LAMMPS (2 Aug 2023 - Development - patch_2Aug2023-219-g06e2d5d306)
units          metal
boundary       p p p
atom_style     atomic
neigh_modify   delay 0 every 1 check no
read_data     tetrag_hfo2_sample_DATA
Reading data file ...
  orthogonal box = (0 0 0) to (10.956 10.956 10.629)
  1 by 1 by 1 MPI processor grid
  reading atoms ...
  108 atoms
  read_data CPU = 0.004 seconds
pair_style     pace
ACE version: 2022.6.27
Recursive evaluator is used
pair_coeff     * * Siviraman_GAP_HfO2_N3_rcut5_maxdeg10_regQR.yace Hf O
Loading Siviraman_GAP_HfO2_N3_rcut5_maxdeg10_regQR.yace
Total number of basis functions
	O: 20 (r=1) 1166 (r>1)
	Hf: 20 (r=1) 1166 (r>1)
Mapping LAMMPS atom type #1(Hf) -> ACE species type #1
Mapping LAMMPS atom type #2(O) -> ACE species type #0
variable T        equal  2000
variable Tdamp    equal  0.1
variable Tseed    equal  12280329
variable dumpf    equal  1
velocity     all create $T ${Tseed} mom yes rot yes dist gaussian
velocity     all create 2000 ${Tseed} mom yes rot yes dist gaussian
velocity     all create 2000 12280329 mom yes rot yes dist gaussian
thermo       1
thermo_style custom step temp pe ke etotal press
dump           run_forces all custom ${dumpf} dump_single.custom id type x y z fx fy fz vx vy vz
dump           run_forces all custom 1 dump_single.custom id type x y z fx fy fz vx vy vz
dump_modify    run_forces sort id format line "%4d %1d %32.27f %32.27f %32.27f %32.27f %32.27f %32.27f %32.27f %32.27f %32.27f" 
fix          nvt all nvt temp $T $T ${Tdamp}
fix          nvt all nvt temp 2000 $T ${Tdamp}
fix          nvt all nvt temp 2000 2000 ${Tdamp}
fix          nvt all nvt temp 2000 2000 0.1
run 1
Neighbor list info ...
  update: every = 1 steps, delay = 0 steps, check = no
  max neighbors/atom: 2000, page size: 100000
  master list distance cutoff = 7
  ghost atom cutoff = 7
  binsize = 3.5, bins = 4 4 4
  1 neighbor lists, perpetual/occasional/extra = 1 0 0
  (1) pair pace, perpetual
      attributes: full, newton on
      pair build: full/bin/atomonly
      stencil: full/bin/3d
      bin: standard
Per MPI rank memory allocation (min/avg/max) = 2.602 | 2.602 | 2.602 Mbytes
   Step          Temp          PotEng         KinEng         TotEng         Press     
         0   2000          -1063.1311      27.661671     -1035.4694      29976.049    
         1   1995.1938     -1063.064       27.595197     -1035.4688      30177.72     
Loop time of 0.00703071 on 1 procs for 1 steps with 108 atoms

Performance: 12.289 ns/day, 1.953 hours/ns, 142.233 timesteps/s, 15.361 katom-step/s
98.5% CPU use with 1 MPI tasks x no OpenMP threads

MPI task timing breakdown:
Section |  min time  |  avg time  |  max time  |%varavg| %total
---------------------------------------------------------------
Pair    | 0.0055494  | 0.0055494  | 0.0055494  |   0.0 | 78.93
Neigh   | 0.00051204 | 0.00051204 | 0.00051204 |   0.0 |  7.28
Comm    | 1.8168e-05 | 1.8168e-05 | 1.8168e-05 |   0.0 |  0.26
Output  | 0.00093146 | 0.00093146 | 0.00093146 |   0.0 | 13.25
Modify  | 1.3291e-05 | 1.3291e-05 | 1.3291e-05 |   0.0 |  0.19
Other   |            | 6.376e-06  |            |       |  0.09

Nlocal:            108 ave         108 max         108 min
Histogram: 1 0 0 0 0 0 0 0 0 0
Nghost:           1106 ave        1106 max        1106 min
Histogram: 1 0 0 0 0 0 0 0 0 0
Neighs:              0 ave           0 max           0 min
Histogram: 1 0 0 0 0 0 0 0 0 0
FullNghs:        13112 ave       13112 max       13112 min
Histogram: 1 0 0 0 0 0 0 0 0 0

Total # of neighbors = 13112
Ave neighs/atom = 121.40741
Neighbor list builds = 1
Dangerous builds not checked
run 1
Per MPI rank memory allocation (min/avg/max) = 3.871 | 3.871 | 3.871 Mbytes
   Step          Temp          PotEng         KinEng         TotEng         Press     
         1   1995.1938     -1063.064       27.595197     -1035.4688      30177.72     
         2   1994.3479     -1063.0521      27.583498     -1035.4686      30186.459    
Loop time of 0.00550467 on 1 procs for 1 steps with 108 atoms

Performance: 15.696 ns/day, 1.529 hours/ns, 181.664 timesteps/s, 19.620 katom-step/s
98.6% CPU use with 1 MPI tasks x no OpenMP threads

MPI task timing breakdown:
Section |  min time  |  avg time  |  max time  |%varavg| %total
---------------------------------------------------------------
Pair    | 0.0044767  | 0.0044767  | 0.0044767  |   0.0 | 81.33
Neigh   | 0.00043687 | 0.00043687 | 0.00043687 |   0.0 |  7.94
Comm    | 1.5375e-05 | 1.5375e-05 | 1.5375e-05 |   0.0 |  0.28
Output  | 0.00056629 | 0.00056629 | 0.00056629 |   0.0 | 10.29
Modify  | 4.5e-06    | 4.5e-06    | 4.5e-06    |   0.0 |  0.08
Other   |            | 4.876e-06  |            |       |  0.09

Nlocal:            108 ave         108 max         108 min
Histogram: 1 0 0 0 0 0 0 0 0 0
Nghost:           1106 ave        1106 max        1106 min
Histogram: 1 0 0 0 0 0 0 0 0 0
Neighs:              0 ave           0 max           0 min
Histogram: 1 0 0 0 0 0 0 0 0 0
FullNghs:        13126 ave       13126 max       13126 min
Histogram: 1 0 0 0 0 0 0 0 0 0

Total # of neighbors = 13126
Ave neighs/atom = 121.53704
Neighbor list builds = 1
Dangerous builds not checked
run 1
Per MPI rank memory allocation (min/avg/max) = 3.871 | 3.871 | 3.871 Mbytes
   Step          Temp          PotEng         KinEng         TotEng         Press     
         2   1994.3479     -1063.0521      27.583498     -1035.4686      30186.459    
         3   1997.7148     -1063.0988      27.630064     -1035.4688      29996.983    
Loop time of 0.00508604 on 1 procs for 1 steps with 108 atoms

Performance: 16.988 ns/day, 1.413 hours/ns, 196.617 timesteps/s, 21.235 katom-step/s
98.7% CPU use with 1 MPI tasks x no OpenMP threads

MPI task timing breakdown:
Section |  min time  |  avg time  |  max time  |%varavg| %total
---------------------------------------------------------------
Pair    | 0.0039976  | 0.0039976  | 0.0039976  |   0.0 | 78.60
Neigh   | 0.00037221 | 0.00037221 | 0.00037221 |   0.0 |  7.32
Comm    | 1.1334e-05 | 1.1334e-05 | 1.1334e-05 |   0.0 |  0.22
Output  | 0.0007005  | 0.0007005  | 0.0007005  |   0.0 | 13.77
Modify  | 2.458e-06  | 2.458e-06  | 2.458e-06  |   0.0 |  0.05
Other   |            | 1.958e-06  |            |       |  0.04

Nlocal:            108 ave         108 max         108 min
Histogram: 1 0 0 0 0 0 0 0 0 0
Nghost:           1100 ave        1100 max        1100 min
Histogram: 1 0 0 0 0 0 0 0 0 0
Neighs:              0 ave           0 max           0 min
Histogram: 1 0 0 0 0 0 0 0 0 0
FullNghs:        13122 ave       13122 max       13122 min
Histogram: 1 0 0 0 0 0 0 0 0 0

Total # of neighbors = 13122
Ave neighs/atom = 121.5
Neighbor list builds = 1
Dangerous builds not checked
