(written by ASE)

4861 atoms
2 atom types

0.0      47.496081794731396  xlo xhi
0.0      49.359376101810554  ylo yhi
0.0      46.322427954443121  zlo zhi

Masses

     1      178.48999995408445 # Hf
     2      15.998999995884349 # O

Atoms # charge

     1   1 -8.99999490637433e-05      3.1793970624797998      1.8506244873081299      1.2357871954194199
     2   1 -8.60880665491303e-05        1.59619266287068     0.93656130516331704      3.8092572177910098
     3   1 -5.90039929564649e-05    0.012989584765122001      3.6787493758582599      3.8092557649177099
     4   1 -6.72354680706452e-05      1.5961923838123899      4.5928134927837698        1.23578670601643
     5   1 -3.10756832718406e-05        3.17939295080423      1.8506220073797801      6.3827234439260501
     6   1 3.50385440527807e-06      1.5961899480270501     0.93655979693701896        8.95619211150483
     7   1 -3.15045622434518e-06      0.0129895792922224        3.67874397118038      8.9561903262834406
     8   1 -2.48726058489615e-05      1.5961906788817399      4.5928085146130799      6.3827217470704403
     9   1 -2.28839522154849e-05      3.1793899169837401        1.85062134697629      11.529657773426599
    10   1 4.28001528480368e-05        1.59618889963521     0.93655937906542097        14.1031258419577
    11   1 -5.44220419337084e-05    0.012989594494672799        3.67874219591156        14.1031257779358
    12   1 -7.51155889005059e-05      1.5961923154837701      4.5928058627010202      11.529657199940599
    13   1 -7.38670223143364e-05        3.17939100200888      1.8506236546786099        16.6765946668183
    14   1 2.11943784728991e-05        1.59618985304396     0.93655996034287603      19.250062721170501
    15   1 -0.000126718685305223      0.0129896120593012      3.6787439480999602      19.250063441194499
    16   1 -0.000163677387258839         1.5961957364291        4.59280840336762      16.676595529177199
    17   1 -0.00010468748519948      3.1793926923234701        1.85062546864178      21.823532253696001
    18   1 1.07717622203465e-05      1.5961902650089199     0.93656017514107603      24.397001212810402
    19   1 -0.00014353088091247      0.0129896158014729      3.6787446628837199      24.397000907107099
    20   1 -0.00019428433785953      1.5961972469122301      4.5928109187660002        21.8235325860337
    21   1 -9.48309335623407e-05      3.1793920619312899      1.8506248320736201      26.970469605302199
    22   1 3.49644737372868e-05        1.59618928962614     0.93655963033323697      29.543939229986101
    23   1 -9.65935247622146e-05    0.012989603879862701      3.6787429359102299      29.543938603840999
    24   1 -0.000186546522405554        1.59619680316088      4.5928100173669701      26.970468783521699
    25   1 -4.78930224919697e-05      3.1793901205381498        1.85062236040176      32.117407222832902
    26   1 3.42480590863952e-05      1.5961890609406799     0.93655938531125105      34.690874521751901
    27   1 -1.81662581600799e-05      0.0129895845730522      3.6787423912302399      34.690875534963297
    28   1 -0.00012624935173129        1.59619421140729      4.5928067998667501        32.1174068694108
    29   1 -1.46544666826627e-05        3.17939083361455      1.8506211639933901        37.2643427591915
    30   1 -4.00453629020356e-05      1.5961912624626799     0.93656050560724602      39.837807898325501
    31   1 -1.93300433031172e-05      0.0129895800643751        3.67874650496569      39.837809854388603
    32   1 -3.55549846733917e-05        1.59619095491638      4.5928063409238504        37.2643441541763
    33   1 -6.27498909160282e-05      3.1793953385835101      1.8506233768454701      42.411277288536901
    34   1 -0.000113399678405472      1.5961934902019299     0.93656181054932797      44.984745431073399
    35   1 -8.98225625615302e-05    0.012989589678723301      3.6787511558922699      44.984745975699397
    36   1 -4.32217617782922e-05      1.5961914472755501        4.59281133474658        42.4112786337476
    37   1 -1.20208759882241e-05        3.17939166770367      7.3349983563535597      1.2357851686910299
    38   1 -2.34942706839565e-05        1.59619074236884      6.4209356443152998      3.8092525824921899
    39   1 -4.56869926582796e-06      0.0129895801161316      9.1631218641395495      3.8092497996680699
    40   1 2.86066350416847e-05        1.59618876249909        10.0771851279562      1.2357840926014101
    41   1 -0.00010875423316253        3.17939466272923      7.3349974779952403      6.3827206082744201
    42   1 -8.60911734020632e-05        1.59619378062879      6.4209322844815597      8.9561886912824402
    43   1 -0.000186557813190701       0.012989620514457      9.1631223746013895      8.9561884542187897
    44   1 -0.000127119885030355      1.5961948422498999      10.077184575843701      6.3827183230909599
    45   1 -0.000161629714413359      3.1794039201404201        7.33500119363993        11.5296624927915
    46   1 -0.000215838011485461      1.5961995310803301      6.4209355008001099        14.1031280581822
    47   1 -0.000319421890405649    0.012989642408505701      9.1631302673922796      14.103131129283099
    48   1 -0.000242256566990824      1.5962011378204399      10.077190526285801        11.5296636708054
    49   1 -6.85058073437556e-05      3.1794073921403898      7.3350035936942302      16.676599103930599
    50   1 -0.000246926159626205      1.5962014239034601      6.4209395667982996      19.250065534953201
    51   1 -0.000244646490670965       0.012989620715437      9.1631349388516501      19.250067450163801
    52   1 -0.000132891418120396      1.5961977554422599        10.0771946898787      16.676601296691299
    53   1 8.53190957215299e-06      3.1794057780602998      7.3350030889507396      21.823533021237601
    54   1 -0.0002421028731247      1.5962013889089199      6.4209404985549998      24.397000176623401
    55   1 -0.000206208941933125       0.012989611929363      9.1631355601345401        24.3969995678817
    56   1 -2.13592311840813e-05      1.5961928856440999        10.0771946092602      21.823533553626898
    57   1 -1.69486656472813e-05      3.1794065874517301      7.3350034201375198      26.970467207835799
    58   1 -0.000245202424102925        1.59620107228777      6.4209378913471999      29.543935852215199
    59   1 -0.000295508885308549      0.0129896347988618      9.1631334280288392      29.543932961734701
    60   1 -5.97323771237929e-05      1.5961946702577801        10.0771948407652      26.970465744982501
    61   1 -0.000123747549504045      3.1794069166298602      7.3350030153705204      32.117401528213101
    62   1 -0.000159514854877297        1.59619697703132        6.42093335072264      34.690874857710703
    63   1 -0.000285674189617438       0.012989638138121      9.1631262680866694      34.690872842802897
    64   1 -0.000205137432404684      1.5962004149893201      10.077193473641699      32.117399288224298
    65   1 -0.000156854208620246        3.17939934941159      7.3349989956585802      37.264341404207798
    66   1 -3.66022302361617e-05        1.59619156586602      6.4209331557602702      39.837813096359099
    67   1 -8.07496391715733e-05      0.0129895972969656      9.1631208302694809      39.837815362215899
    68   1 -0.000215380444188913        1.59619911056832      10.077187097360699      37.264342008097302
    69   1 -5.13503857493289e-05      3.1793922369308301      7.3349975543355503      42.411281673862199
    70   1 -3.03115565825283e-05      1.5961908125150699      6.4209376894267702      44.984747336429798
    71   1 2.47636731832764e-05      0.0129895723409199      9.1631234636285708      44.984748618105101
    72   1 -3.30820496517505e-05        1.59619098820223      10.077184288934699      42.411284230778698
    73   1 -3.75026294835717e-05        3.17938871089954        12.8193712690971      1.2357858890116999
    74   1 -5.94430845776048e-05        1.59619262711524        11.9053095963961      3.8092498182291599
    75   1 -0.000102556345392546    0.012989602244710701        14.6474975628909      3.8092493290388298
    76   1 1.00275614118935e-05      1.5961890753974399      15.561558110866001      1.2357844678973999
    77   1 -0.000147652506482067        3.17940592952512        12.8193771938071      6.3827260714175003
    78   1 -0.000246172685474794         1.5962006417785      11.905315236040799      8.9561933166375098
    79   1 -0.000320138954333009      0.0129896400001252        14.6475056396244      8.9561974967897608
    80   1 -0.000242505911789366        1.59620152037444        15.5615641136335      6.3827254262341304
    81   1 5.99885721874188e-05      3.1794021710241802      12.819376220937601         11.529662599579
    82   1 -9.584429766819e-05        1.59619408409608      11.905319144163499      14.103133814371301
    83   1 6.59739419033105e-05    0.012989544527716499      14.647505895707001        14.1031369522843
    84   1 -2.49819146963032e-05        1.59619220901862      15.561566489067699        11.5296687538971
    85   1 0.000106454375137462      3.1793826332501598        12.8193701908307        16.6765923553459
    86   1 0.000106382420419246        1.59618234381885        11.9053166920939      19.250066420315701
    87   1 0.00040922599779075    0.012989451253713501        14.6474978841156        19.2500660656656
    88   1 0.000252505056854621        1.59617326592738        15.5615621514261      16.676596202400201
    89   1 -1.64836100242396e-05      3.1793735630993298        12.8193677370037      21.823531143239499
    90   1 0.000147952858854836        1.59617935704721      11.905315497026599      24.397000124282499
    91   1 0.000464393961139912      0.0129894333584107        14.6474953094865        24.3970004352892
    92   1 0.000263944930512026      1.5961668451678901      15.561559311993699        21.8235315184142
    93   1 3.38456374090772e-05      3.1793761800210101        12.8193683740708      26.970472199508901
    94   1 2.76002161811085e-05      1.5961874157776801        11.9053182615519        29.5439329098981
    95   1 0.000289469274254632      0.0129894893020311      14.647501819670101      29.543932064543899
    96   1 0.000273588985400469      1.5961684112822601      15.561560198290501      26.970470679077799
    97   1 0.000134695106911929      3.1793915819015601      12.819372863356399      32.117406698908503
    98   1 -0.000204864175001466      1.5961991516771901        11.9053182302977      34.690867941037702
    99   1 -0.000168813978840348      0.0129896040734572      14.647507517813899      34.690863189629397
   100   1 0.00016285449035195      1.5961811991937001        15.5615644495194      32.117400667440002
   101   1 -6.58173384394173e-05      3.1794082490675901      12.819378129218901        37.2643366742412
   102   1 -0.000187584954218202      1.5961978608976899        11.9053119304338      39.837812797095403
   103   1 -0.000286772994645987      0.0129896365490313        14.6475016531306      39.837811020399997
   104   1 -0.000197274276986119      1.5962003822105399         15.561566598991        37.2643331935707
   105   1 -0.000115074632733103      3.1793971105312999        12.8193741148791      42.411278577442502
   106   1 3.65083625825502e-05         1.5961889849069      11.905308812900399      44.984749044162001
   107   1 5.47585569420406e-05    0.012989570906067199        14.6474954890686      44.984749632244998
   108   1 -0.000131773781431995      1.5961957119482899      15.561560650468699      42.411281299880599
   109   1 -0.000130710803020104      3.1793940530145899      18.303747828986101      1.2357892425999399
   110   1 -0.000151848554192855      1.5961967505658401      17.389686870040801      3.8092542610288098
   111   1 -0.000199298601610188    0.012989623139239501        20.1318749704729      3.8092550658179798
   112   1 -7.24164874639061e-05        1.59619254952812      21.045934627906099      1.2357870938650799
   113   1 -1.08827127035824e-05      3.1794071095724799      18.303751473722699      6.3827288603112802
   114   1 -0.00013824348433152        1.59619644095001      17.389691076955899        8.95619928549735
   115   1 -0.000139171056824586      0.0129895982511432        20.1318779335794      8.9562037373391004
   116   1 -0.000190891645868018        1.59620053053807        21.0459388324626      6.3827312908983602
   117   1 8.38361476139339e-05        3.17937920005234      18.303746232043199      11.529652952481699
   118   1 0.000230470572188959      1.5961742492939599      17.389684839169501          14.10313059986
   119   1 0.000463345074353785      0.0129894342158742      20.131869058067601        14.1031304288105
   120   1 0.000188745415091553      1.5961771320170399      21.045937899322901      11.529663332497799
   121   1 -0.000327890131134258      3.1793650309390098      18.303746350307499      16.676591765341001
   122   1 0.000234654591462558        1.59616558163552      17.389678826632402      19.250061994092899
   123   1 0.000487772305642302    0.012989394933804001      20.131860645587899      19.250059025429699
   124   1 0.000201751424150466        1.59616411601214      21.045936419110699        16.6765898440459
   125   1 -0.000516286628226284      3.1793712818397899        18.3037483676333      21.823532772705398
   126   1 0.000193985817696386      1.5961656386777401      17.389677880627499      24.397001639502999
   127   1 0.000419029374878537      0.0129894033670097      20.131859356798099        24.3970028390609
   128   1 1.10497371029935e-05      1.5961699363497099      21.045936030172999      21.823530641242201
   129   1 -0.000475316463881569      3.1793682428625898        18.3037477269147      26.970469320705799
   130   1 0.000272042413155094      1.5961673310289699      17.389680939475198      29.543938392731398
   131   1 0.000544935226337565    0.012989396343108601      20.131863666918498      29.543941137947201
   132   1 8.20772996980833e-05      1.5961669325279699      21.045936241498602        26.9704737779963
   133   1 -0.000115198614489902        3.17936711358464      18.303745373473198      32.117413266342602
   134   1 7.9109098525059e-05      1.5961849863298101      17.389688737867001      34.690866479017501
   135   1 0.00020728591566068      0.0129895110026146        20.1318744265063      34.690863487070601
   136   1 0.000269747452324192        1.59616636697792      21.045936857956701      32.117408675466898
   137   1 0.000110629819357857         3.1793958518515        18.3037490719476      37.264342246658998
   138   1 -0.000236835981726503      1.5962007987250899      17.389690176984701      39.837805927758197
   139   1 -0.00030227103668175      0.0129896416849088      20.131877721321299      39.837802782661797
   140   1 -1.51100475537021e-05      1.5961911614534099      21.045939019266498      37.264332763933403
   141   1 -0.000109169292301683        3.17940371339688         18.303750452783      42.411271782653799
   142   1 -2.10853937887119e-05      1.5961910328434199      17.389684205822899      44.984747606310002
   143   1 -2.5254022517698e-05    0.012989586278599599      20.131872641325899        44.9847476814723
   144   1 -0.000179500808726116      1.5961988525498501      21.045936814101701      42.411274789589903
   145   1 -0.000170725574761424      3.1793985145511501      23.788123841303101      1.2357907185954899
   146   1 -0.00017969095773845         1.5961987559949      22.874062323174201        3.80925914837673
   147   1 -0.000219253904295176      0.0129896291786248        25.6162497389004      3.8092577051352299
   148   1 -8.92408493402907e-05      1.5961934361252601      26.530311626736101      1.2357876267633701
   149   1 7.42964805087709e-05      3.1794021304947599      23.788124878814902      6.3827273896988599
   150   1 1.13176987388119e-05      1.5961893106044001        22.8740620133078      8.9561995722975904
   151   1 -5.01824087547311e-05    0.012989580522166901      25.616247759431701      8.9562051113088597
   152   1 -0.000171642515250596        1.59619933166229        26.5303106641067      6.3827314356290001
   153   1 -5.35829615855442e-05      3.1793694199262501         23.788123099076        11.5296504486084
   154   1 0.000260902412702895        1.59616580634215      22.874057984359599      14.103124313195901
   155   1 0.000523070867349887    0.012989406714217999      25.616245450896798        14.1031256663408
   156   1 0.000213395668037332        1.59617481344445      26.530313294872499      11.529662314435299
   157   1 -0.000511134319062223      3.1793721630212799      23.788121207935301        16.6765967846591
   158   1 3.14277059115632e-05        1.59617025846572      22.874057459629601      19.250059611506501
   159   1 0.00038341627529133    0.012989400828909399      25.616243766546699        19.2500559324512
   160   1 0.000162030277961615         1.5961654118232      26.530316206717899      16.676589968557501
   161   1 -0.00048914441237787      3.1793892782237698      23.788119013453201        21.8235343884743
   162   1 -5.10825133747308e-05      1.5961745933412499      22.874058176481199      24.397002219994199
   163   1 0.000273279093273691    0.012989422004912401        25.6162438715848      24.397003831927599
   164   1 -5.08149180905413e-05      1.5961745682822199        26.5303151514949      21.823530848924801
   165   1 -0.000529431074659219        3.17938288945202      23.788119712385701      26.970465198502801
   166   1 0.000158827814757721        1.59616549832059      22.874057111165101        29.5439431726567
   167   1 0.000512119773847877      0.0129893844923364        25.6162443051631        29.5439458664939
   168   1 2.7429455926531e-05      1.5961704406583801      26.530315833895301      26.970473476174199
   169   1 -0.00034314933783532      3.1793650894519598      23.788122444173801      32.117410843209399
   170   1 0.000216965142024296      1.5961744894335399        22.8740600017966      34.690871009538199
   171   1 0.000311620025070461      0.0129894786381149      25.616246716542499      34.690865735307803
   172   1 0.000259540066209173      1.5961656601881999        26.5303153946621      32.117409001486401
   173   1 0.00012019634216376        3.17938538212417      23.788123991963801      37.264346556285197
   174   1 -0.000169067329896394      1.5961992095055999        22.8740627158368      39.837801651186602
   175   1 -0.000271456004792512       0.012989639386057      25.616248630465201      39.837799629522799
   176   1 1.81890234440055e-05      1.5961889022579401      26.530311403997999      37.264333669510599
   177   1 -7.21258650687375e-05      3.1794048628757299      23.788124708382298      42.411269881976999
   178   1 -9.10264910111913e-05        1.59619353727312      22.874061725034199      44.984745486597802
   179   1 -6.10278538481262e-05    0.012989592358780401         25.616250502657      44.984746707397299
   180   1 -0.000181959270727632      1.5961989004714701      26.530311020491499        42.4112738686405
   181   1 -0.000152034586229539      3.1793965761252299      29.272499398752199      1.2357897782276901
   182   1 -0.000176890664778407        1.59619869427628      28.358436611197799      3.8092582683705598
   183   1 -0.000177989427859924    0.012989618348976601      31.100625022673899      3.8092527629360902
   184   1 -1.92745803719915e-05      1.5961909514997299      32.014689175730801      1.2357856171300701
   185   1 3.32444982859767e-05      3.1794040666479799        29.2724986534209      6.3827279947940196
   186   1 -2.04240595838271e-05      1.5961914715785399      28.358434337796201      8.9562004443973304
   187   1 -0.00021025894985758      0.0129896237615949      31.100618826814198      8.9562048546500304
   188   1 -0.000236523808348543      1.5962007857179901      32.014683247035499      6.3827271255961904
   189   1 2.4553599103278e-05        3.17937403051301        29.2725014776324        11.5296530161496
   190   1 0.000269845520404929        1.59616650167467        28.3584364633058        14.1031245963958
   191   1 0.000386074825831543      0.0129894653347621      31.100621770070902        14.1031328475674
   192   1 7.52592295157332e-05      1.5961852089340001      32.014684576041802        11.5296667397158
   193   1 -0.0004433058396502        3.17936858293056        29.2724963940599      16.676593574320599
   194   1 8.34597989138051e-05        1.59616688724537      28.358437077398001        19.2500593010123
   195   1 0.00054157642358841    0.012989390259631301      31.100626135691101      19.250059483475301
   196   1 0.000272168512025806        1.59616737139473        32.0146923797288        16.6765947821197
   197   1 -0.000537216303752118        3.17938127879466      29.272490393407701      21.823533133952999
   198   1 8.2453149880295e-06        1.59617007803511      28.358437299001501      24.397002418264499
   199   1 0.000510799224921187      0.0129893870607084      31.100627016300798        24.3970028185113
   200   1 0.000192583740182221        1.59616566186105      32.014695471652203      21.823531454437301
   201   1 -0.00052714157670274         3.1793760107422      29.272492557831502        26.9704683885229
   202   1 0.000197580900392948        1.59616415300406      28.358436911785301         29.543943341031
   203   1 0.000528066636754467    0.012989409584105599         31.100624359365        29.5439396524072
   204   1 0.000231848433678648      1.5961655601804301      32.014694593538799      26.970471181196299
   205   1 -0.000228449455603056      3.1793660203341401        29.2725000728331        32.1174115561262
   206   1 0.000193992090564649      1.5961766859933999        28.3584354983299      34.690870061884603
   207   1 9.88260484852984e-05    0.012989542180309999      31.100619378065399      34.690860915712499
   208   1 0.000234330388429865      1.5961738820776901        32.0146886925831      32.117402740690601
   209   1 0.000121851629919962        3.17939042792421      29.272500309226899      37.264343428187601
   210   1 -0.00018814671604468      1.5962004184005201      28.358434507048202        39.8378017314147
   211   1 -0.000315895382932708      0.0129896504227037      31.100621103678598      39.837804030786401
   212   1 -0.000131879888005398        1.59619614696488      32.014682325453101      37.264333798246398
   213   1 -9.29334255442726e-05      3.1794039160852998      29.272498526482199      42.411271339965602
   214   1 -7.50291790473319e-05      1.5961926888694999      28.358438681320798      44.984746023156099
   215   1 3.83466007058183e-06    0.012989577531432501      31.100627701921301      44.984748820613802
   216   1 -0.000156283433643696      1.5961969510390699      32.014686381238299      42.411278770549004
   217   1 -7.08758650002713e-05      3.1793912980035901      34.756876367653199        1.23578702186028
   218   1 -0.000128118232635321        1.59619554117633      33.842812777063997        3.80925182854239
   219   1 -6.04110549383049e-05    0.012989589439259401      36.585002077381098      3.8092471620369102
   220   1 3.79877259801774e-05        1.59618893190615      37.499064566597703      1.2357842306834099
   221   1 -0.000110859060759256        3.17940671691753      34.756871285700001      6.3827269363811903
   222   1 -0.000199517176661313      1.5962004764896001      33.842806795083099      8.9561998885733392
   223   1 -0.000321040778042716      0.0129896476867567      36.584995623877198      8.9561954725030208
   224   1 -0.000185866049737047      1.5961977847036699      37.499061466148603      6.3827202817294104
   225   1 0.000119500507457148      3.1793924277394501      34.756875024702602      11.529660433997901
   226   1 0.00016107516603741      1.5961813052507601        33.8428088975094        14.1031325738681
   227   1 -0.000117077014364829      0.0129896053931963      36.584989441343801        14.1031388651779
   228   1 -0.000205812983568424        1.59619919086409      37.499055161604502      11.529665208353601
   229   1 -1.62905325066804e-05      3.1793705377999602      34.756879486541003        16.6765922508988
   230   1 0.000273607419485159      1.5961683679874801        33.8428131669069      19.250062438303701
   231   1 0.00021105089602106       0.012989527508662      36.584991101481798      19.250067955933801
   232   1 2.81985596826334e-05      1.5961873963973601      37.499055126621599        16.6766002934055
   233   1 -0.00022332242514895      3.1793659038680802      34.756878691853203      21.823531561385401
   234   1 0.000262906374995563         1.5961667306417      33.842814096475202        24.3970016053762
   235   1 0.000281458550892088      0.0129895074749797      36.584992193435703      24.396999688917099
   236   1 0.000150618807266601         1.5961791837038      37.499057961966699      21.823533055792399
   237   1 -0.00014801085140749      3.1793668182962298      34.756879234178697      26.970471643499099
   238   1 0.00025503528975767        1.59617293106384      33.842811324815798        29.5439371150837
   239   1 7.11115009301787e-05      0.0129895593259125      36.584989770171198      29.543929538698499
   240   1 0.000111460625362168      1.5961820213323901      37.499056809493702        26.9704668047872
   241   1 0.00010129434305325      3.1793792523342401      34.756878113642102        32.1174078697127
   242   1 -1.72283698270212e-05        1.59619180152372         33.842806937309      34.690864485442702
   243   1 -0.000270894862768577    0.012989637489436399        36.5849914347381      34.690863208842799
   244   1 -8.96453354501421e-05         1.5961937818523      37.499054236921097      32.117399347578399
   245   1 1.03365567606238e-05      3.1794037905282799      34.756871949270703      37.264338100239797
   246   1 -0.000243947856253389      1.5962016292537999      33.842809133195502        39.8378074713494
   247   1 -0.000230385125857707    0.012989627941162801      36.584999777098297      39.837813920658299
   248   1 -0.000246925301483469      1.5962006855848601        37.4990579782353      37.264339653319503
   249   1 -0.000123939639470553      3.1793998341285801      34.756873596695598      42.411276391820003
   250   1 7.17952516173672e-06      1.5961892004707701      33.842815209745503      44.984748780129898
   251   1 6.22191347678985e-05      0.0129895643179989      36.585002416653801      44.984750374012897
   252   1 -6.34648419440117e-05        1.59619278617727      37.499063715913699      42.411283333811603
   253   1 -3.61603914798101e-06        3.17939015701196      40.241251081735101        1.23578515318606
   254   1 -3.1412601721351e-05        1.59619092551745      39.327189053710597      3.8092489388566899
   255   1 -6.01935383396736e-06      0.0129895777716885      42.069375542998898      3.8092511621697298
   256   1 -2.97765975083943e-05      1.5961907951933401        42.9834356563819      1.2357858437651399
   257   1 -0.00014329219330231      3.1793990290180201      40.241249062410098      6.3827217386719202
   258   1 -0.00021475451460749        1.59619907914032        39.3271862886535      8.9561910767728392
   259   1 -0.000101035293074959    0.012989596705605099        42.0693791969085      8.9561867903288697
   260   1 -3.63008254859633e-05      1.5961915501978801        42.9834401517926         6.3827200323605
   261   1 -0.000116029547095557      3.1794069413172301      40.241245465791003        11.5296632906861
   262   1 -0.000205066003689786      1.5962004166938499      39.327179897376197        14.1031339054986
   263   1 -0.00028655776242829      0.0129896334814226      42.069374213334903          14.10312858588
   264   1 -0.000159274232022816        1.59619696494367      42.983439982691102        11.5296582777769
   265   1 4.52641547545759e-05      3.1794006863069599      40.241246596181902      16.676598004625401
   266   1 -5.76527124623364e-05      1.5961945754999001        39.3271785326478        19.2500674633378
   267   1 -0.000330076631171484      0.0129896444048765      42.069368559293203      19.250066782933899
   268   1 -0.000245739404342168        1.59620108510549      42.983435409895002      16.676597325708499
   269   1 0.000101927784911666      3.1793930258269398      40.241249060876001        21.8235325747075
   270   1 -1.6920643419451e-05        1.59619267229944        39.3271787898464      24.396999663487399
   271   1 -0.000321907339514759      0.0129896437344876        42.0693673453532      24.396999697296099
   272   1 -0.000242090117517323        1.59620137840222        42.9834327619457        21.8235330134017
   273   1 8.62472374596409e-05      3.1793958691642699      40.241248110480797        26.9704682322465
   274   1 -0.000127795321842533      1.5961975550152401      39.327178640617099        29.5439318883362
   275   1 -0.000325630131375408      0.0129896426310238      42.069370901477001      29.543934552266101
   276   1 -0.000247131900996852      1.5962014341648501      42.983433642826597      26.970467605942002
   277   1 -2.86138504722214e-05        3.17940509144369      40.241245454739399      32.117401939488197
   278   1 -0.000242112352615635      1.5962011808646399      39.327182671727101      34.690869315646999
   279   1 -0.000204419593304874      0.0129896184091642      42.069377368434203      34.690875631018997
   280   1 -0.000218576848163459      1.5961996533090299      42.983437693193899      32.117405020060097
   281   1 -0.000164369214419203        3.17940458863522      40.241246918128603        37.2643399706159
   282   1 -0.000131037282541949      1.5961950178670901      39.327188714526798      39.837814729082702
   283   1 -2.93472326137093e-05    0.012989582647164301        42.0693784180676      39.837815147710202
   284   1 -8.91191946944594e-05        1.59619391168955      42.983441037219499        37.2643444471111