ITEM: TIMESTEP
9
ITEM: NUMBER OF ATOMS
4861
ITEM: BOX BOUNDS pp pp pp
0.0000000000000000e+00 4.7496081794731396e+01
0.0000000000000000e+00 4.9359376101810554e+01
0.0000000000000000e+00 4.6322427954443121e+01
ITEM: ATOMS id type q x y z
1 1 -8.99999490637433e-05      3.1793970624798     1.85062448730813     1.23578719541942
2 1 -8.60880665491303e-05     1.59619266287068    0.936561305163317     3.80925721779101
3 1 -5.90039929564649e-05    0.012989584765122     3.67874937585826     3.80925576491771
4 1 -6.72354680706452e-05     1.59619238381239     4.59281349278377     1.23578670601643
5 1 -3.10756832718406e-05     3.17939295080423     1.85062200737978     6.38272344392605
6 1 3.50385440527807e-06     1.59618994802705    0.936559796937019     8.95619211150483
7 1 -3.15045622434518e-06   0.0129895792922224     3.67874397118038     8.95619032628344
8 1 -2.48726058489615e-05     1.59619067888174     4.59280851461308     6.38272174707044
9 1 -2.28839522154849e-05     3.17938991698374     1.85062134697629     11.5296577734266
10 1 4.28001528480368e-05     1.59618889963521    0.936559379065421     14.1031258419577
11 1 -5.44220419337084e-05   0.0129895944946728     3.67874219591156     14.1031257779358
12 1 -7.51155889005059e-05     1.59619231548377     4.59280586270102     11.5296571999406
13 1 -7.38670223143364e-05     3.17939100200888     1.85062365467861     16.6765946668183
14 1 2.11943784728991e-05     1.59618985304396    0.936559960342876     19.2500627211705
15 1 -0.000126718685305223   0.0129896120593012     3.67874394809996     19.2500634411945
16 1 -0.000163677387258839      1.5961957364291     4.59280840336762     16.6765955291772
17 1 -0.00010468748519948     3.17939269232347     1.85062546864178      21.823532253696
18 1 1.07717622203465e-05     1.59619026500892    0.936560175141076     24.3970012128104
19 1 -0.00014353088091247   0.0129896158014729     3.67874466288372     24.3970009071071
20 1 -0.00019428433785953     1.59619724691223       4.592810918766     21.8235325860337
21 1 -9.48309335623407e-05     3.17939206193129     1.85062483207362     26.9704696053022
22 1 3.49644737372868e-05     1.59618928962614    0.936559630333237     29.5439392299861
23 1 -9.65935247622146e-05   0.0129896038798627     3.67874293591023      29.543938603841
24 1 -0.000186546522405554     1.59619680316088     4.59281001736697     26.9704687835217
25 1 -4.78930224919697e-05     3.17939012053815     1.85062236040176     32.1174072228329
26 1 3.42480590863952e-05     1.59618906094068    0.936559385311251     34.6908745217519
27 1 -1.81662581600799e-05   0.0129895845730522     3.67874239123024     34.6908755349633
28 1 -0.00012624935173129     1.59619421140729     4.59280679986675     32.1174068694108
29 1 -1.46544666826627e-05     3.17939083361455     1.85062116399339     37.2643427591915
30 1 -4.00453629020356e-05     1.59619126246268    0.936560505607246     39.8378078983255
31 1 -1.93300433031172e-05   0.0129895800643751     3.67874650496569     39.8378098543886
32 1 -3.55549846733917e-05     1.59619095491638     4.59280634092385     37.2643441541763
33 1 -6.27498909160282e-05     3.17939533858351     1.85062337684547     42.4112772885369
34 1 -0.000113399678405472     1.59619349020193    0.936561810549328     44.9847454310734
35 1 -8.98225625615302e-05   0.0129895896787233     3.67875115589227     44.9847459756994
36 1 -4.32217617782922e-05     1.59619144727555     4.59281133474658     42.4112786337476
37 1 -1.20208759882241e-05     3.17939166770367     7.33499835635356     1.23578516869103
38 1 -2.34942706839565e-05     1.59619074236884      6.4209356443153     3.80925258249219
39 1 -4.56869926582796e-06   0.0129895801161316     9.16312186413955     3.80924979966807
40 1 2.86066350416847e-05     1.59618876249909     10.0771851279562     1.23578409260141
41 1 -0.00010875423316253     3.17939466272923     7.33499747799524     6.38272060827442
42 1 -8.60911734020632e-05     1.59619378062879     6.42093228448156     8.95618869128244
43 1 -0.000186557813190701    0.012989620514457     9.16312237460139     8.95618845421879
44 1 -0.000127119885030355      1.5961948422499     10.0771845758437     6.38271832309096
45 1 -0.000161629714413359     3.17940392014042     7.33500119363993     11.5296624927915
46 1 -0.000215838011485461     1.59619953108033     6.42093550080011     14.1031280581822
47 1 -0.000319421890405649   0.0129896424085057     9.16313026739228     14.1031311292831
48 1 -0.000242256566990824     1.59620113782044     10.0771905262858     11.5296636708054
49 1 -6.85058073437556e-05     3.17940739214039     7.33500359369423     16.6765991039306
50 1 -0.000246926159626205     1.59620142390346      6.4209395667983     19.2500655349532
51 1 -0.000244646490670965    0.012989620715437     9.16313493885165     19.2500674501638
52 1 -0.000132891418120396     1.59619775544226     10.0771946898787     16.6766012966913
53 1 8.53190957215299e-06      3.1794057780603     7.33500308895074     21.8235330212376
54 1  -0.0002421028731247     1.59620138890892       6.420940498555     24.3970001766234
55 1 -0.000206208941933125    0.012989611929363     9.16313556013454     24.3969995678817
56 1 -2.13592311840813e-05      1.5961928856441     10.0771946092602     21.8235335536269
57 1 -1.69486656472813e-05     3.17940658745173     7.33500342013752     26.9704672078358
58 1 -0.000245202424102925     1.59620107228777      6.4209378913472     29.5439358522152
59 1 -0.000295508885308549   0.0129896347988618     9.16313342802884     29.5439329617347
60 1 -5.97323771237929e-05     1.59619467025778     10.0771948407652     26.9704657449825
61 1 -0.000123747549504045     3.17940691662986     7.33500301537052     32.1174015282131
62 1 -0.000159514854877297     1.59619697703132     6.42093335072264     34.6908748577107
63 1 -0.000285674189617438    0.012989638138121     9.16312626808667     34.6908728428029
64 1 -0.000205137432404684     1.59620041498932     10.0771934736417     32.1173992882243
65 1 -0.000156854208620246     3.17939934941159     7.33499899565858     37.2643414042078
66 1 -3.66022302361617e-05     1.59619156586602     6.42093315576027     39.8378130963591
67 1 -8.07496391715733e-05   0.0129895972969656     9.16312083026948     39.8378153622159
68 1 -0.000215380444188913     1.59619911056832     10.0771870973607     37.2643420080973
69 1 -5.13503857493289e-05     3.17939223693083     7.33499755433555     42.4112816738622
70 1 -3.03115565825283e-05     1.59619081251507     6.42093768942677     44.9847473364298
71 1 2.47636731832764e-05   0.0129895723409199     9.16312346362857     44.9847486181051
72 1 -3.30820496517505e-05     1.59619098820223     10.0771842889347     42.4112842307787
73 1 -3.75026294835717e-05     3.17938871089954     12.8193712690971      1.2357858890117
74 1 -5.94430845776048e-05     1.59619262711524     11.9053095963961     3.80924981822916
75 1 -0.000102556345392546   0.0129896022447107     14.6474975628909     3.80924932903883
76 1 1.00275614118935e-05     1.59618907539744      15.561558110866      1.2357844678974
77 1 -0.000147652506482067     3.17940592952512     12.8193771938071      6.3827260714175
78 1 -0.000246172685474794      1.5962006417785     11.9053152360408     8.95619331663751
79 1 -0.000320138954333009   0.0129896400001252     14.6475056396244     8.95619749678976
80 1 -0.000242505911789366     1.59620152037444     15.5615641136335     6.38272542623413
81 1 5.99885721874188e-05     3.17940217102418     12.8193762209376      11.529662599579
82 1  -9.584429766819e-05     1.59619408409608     11.9053191441635     14.1031338143713
83 1 6.59739419033105e-05   0.0129895445277165      14.647505895707     14.1031369522843
84 1 -2.49819146963032e-05     1.59619220901862     15.5615664890677     11.5296687538971
85 1 0.000106454375137462     3.17938263325016     12.8193701908307     16.6765923553459
86 1 0.000106382420419246     1.59618234381885     11.9053166920939     19.2500664203157
87 1  0.00040922599779075   0.0129894512537135     14.6474978841156     19.2500660656656
88 1 0.000252505056854621     1.59617326592738     15.5615621514261     16.6765962024002
89 1 -1.64836100242396e-05     3.17937356309933     12.8193677370037     21.8235311432395
90 1 0.000147952858854836     1.59617935704721     11.9053154970266     24.3970001242825
91 1 0.000464393961139912   0.0129894333584107     14.6474953094865     24.3970004352892
92 1 0.000263944930512026     1.59616684516789     15.5615593119937     21.8235315184142
93 1 3.38456374090772e-05     3.17937618002101     12.8193683740708     26.9704721995089
94 1 2.76002161811085e-05     1.59618741577768     11.9053182615519     29.5439329098981
95 1 0.000289469274254632   0.0129894893020311     14.6475018196701     29.5439320645439
96 1 0.000273588985400469     1.59616841128226     15.5615601982905     26.9704706790778
97 1 0.000134695106911929     3.17939158190156     12.8193728633564     32.1174066989085
98 1 -0.000204864175001466     1.59619915167719     11.9053182302977     34.6908679410377
99 1 -0.000168813978840348   0.0129896040734572     14.6475075178139     34.6908631896294
100 1  0.00016285449035195      1.5961811991937     15.5615644495194       32.11740066744
101 1 -6.58173384394173e-05     3.17940824906759     12.8193781292189     37.2643366742412
102 1 -0.000187584954218202     1.59619786089769     11.9053119304338     39.8378127970954
103 1 -0.000286772994645987   0.0129896365490313     14.6475016531306        39.8378110204
104 1 -0.000197274276986119     1.59620038221054      15.561566598991     37.2643331935707
105 1 -0.000115074632733103      3.1793971105313     12.8193741148791     42.4112785774425
106 1 3.65083625825502e-05      1.5961889849069     11.9053088129004      44.984749044162
107 1 5.47585569420406e-05   0.0129895709060672     14.6474954890686      44.984749632245
108 1 -0.000131773781431995     1.59619571194829     15.5615606504687     42.4112812998806
109 1 -0.000130710803020104     3.17939405301459     18.3037478289861     1.23578924259994
110 1 -0.000151848554192855     1.59619675056584     17.3896868700408     3.80925426102881
111 1 -0.000199298601610188   0.0129896231392395     20.1318749704729     3.80925506581798
112 1 -7.24164874639061e-05     1.59619254952812     21.0459346279061     1.23578709386508
113 1 -1.08827127035824e-05     3.17940710957248     18.3037514737227     6.38272886031128
114 1 -0.00013824348433152     1.59619644095001     17.3896910769559     8.95619928549735
115 1 -0.000139171056824586   0.0129895982511432     20.1318779335794      8.9562037373391
116 1 -0.000190891645868018     1.59620053053807     21.0459388324626     6.38273129089836
117 1 8.38361476139339e-05     3.17937920005234     18.3037462320432     11.5296529524817
118 1 0.000230470572188959     1.59617424929396     17.3896848391695       14.10313059986
119 1 0.000463345074353785   0.0129894342158742     20.1318690580676     14.1031304288105
120 1 0.000188745415091553     1.59617713201704     21.0459378993229     11.5296633324978
121 1 -0.000327890131134258     3.17936503093901     18.3037463503075      16.676591765341
122 1 0.000234654591462558     1.59616558163552     17.3896788266324     19.2500619940929
123 1 0.000487772305642302    0.012989394933804     20.1318606455879     19.2500590254297
124 1 0.000201751424150466     1.59616411601214     21.0459364191107     16.6765898440459
125 1 -0.000516286628226284     3.17937128183979     18.3037483676333     21.8235327727054
126 1 0.000193985817696386     1.59616563867774     17.3896778806275      24.397001639503
127 1 0.000419029374878537   0.0129894033670097     20.1318593567981     24.3970028390609
128 1 1.10497371029935e-05     1.59616993634971      21.045936030173     21.8235306412422
129 1 -0.000475316463881569     3.17936824286259     18.3037477269147     26.9704693207058
130 1 0.000272042413155094     1.59616733102897     17.3896809394752     29.5439383927314
131 1 0.000544935226337565   0.0129893963431086     20.1318636669185     29.5439411379472
132 1 8.20772996980833e-05     1.59616693252797     21.0459362414986     26.9704737779963
133 1 -0.000115198614489902     3.17936711358464     18.3037453734732     32.1174132663426
134 1  7.9109098525059e-05     1.59618498632981      17.389688737867     34.6908664790175
135 1  0.00020728591566068   0.0129895110026146     20.1318744265063     34.6908634870706
136 1 0.000269747452324192     1.59616636697792     21.0459368579567     32.1174086754669
137 1 0.000110629819357857      3.1793958518515     18.3037490719476      37.264342246659
138 1 -0.000236835981726503     1.59620079872509     17.3896901769847     39.8378059277582
139 1 -0.00030227103668175   0.0129896416849088     20.1318777213213     39.8378027826618
140 1 -1.51100475537021e-05     1.59619116145341     21.0459390192665     37.2643327639334
141 1 -0.000109169292301683     3.17940371339688      18.303750452783     42.4112717826538
142 1 -2.10853937887119e-05     1.59619103284342     17.3896842058229       44.98474760631
143 1 -2.5254022517698e-05   0.0129895862785996     20.1318726413259     44.9847476814723
144 1 -0.000179500808726116     1.59619885254985     21.0459368141017     42.4112747895899
145 1 -0.000170725574761424     3.17939851455115     23.7881238413031     1.23579071859549
146 1 -0.00017969095773845      1.5961987559949     22.8740623231742     3.80925914837673
147 1 -0.000219253904295176   0.0129896291786248     25.6162497389004     3.80925770513523
148 1 -8.92408493402907e-05     1.59619343612526     26.5303116267361     1.23578762676337
149 1 7.42964805087709e-05     3.17940213049476     23.7881248788149     6.38272738969886
150 1 1.13176987388119e-05      1.5961893106044     22.8740620133078     8.95619957229759
151 1 -5.01824087547311e-05   0.0129895805221669     25.6162477594317     8.95620511130886
152 1 -0.000171642515250596     1.59619933166229     26.5303106641067       6.382731435629
153 1 -5.35829615855442e-05     3.17936941992625      23.788123099076     11.5296504486084
154 1 0.000260902412702895     1.59616580634215     22.8740579843596     14.1031243131959
155 1 0.000523070867349887    0.012989406714218     25.6162454508968     14.1031256663408
156 1 0.000213395668037332     1.59617481344445     26.5303132948725     11.5296623144353
157 1 -0.000511134319062223     3.17937216302128     23.7881212079353     16.6765967846591
158 1 3.14277059115632e-05     1.59617025846572     22.8740574596296     19.2500596115065
159 1  0.00038341627529133   0.0129894008289094     25.6162437665467     19.2500559324512
160 1 0.000162030277961615      1.5961654118232     26.5303162067179     16.6765899685575
161 1 -0.00048914441237787     3.17938927822377     23.7881190134532     21.8235343884743
162 1 -5.10825133747308e-05     1.59617459334125     22.8740581764812     24.3970022199942
163 1 0.000273279093273691   0.0129894220049124     25.6162438715848     24.3970038319276
164 1 -5.08149180905413e-05     1.59617456828222     26.5303151514949     21.8235308489248
165 1 -0.000529431074659219     3.17938288945202     23.7881197123857     26.9704651985028
166 1 0.000158827814757721     1.59616549832059     22.8740571111651     29.5439431726567
167 1 0.000512119773847877   0.0129893844923364     25.6162443051631     29.5439458664939
168 1  2.7429455926531e-05     1.59617044065838     26.5303158338953     26.9704734761742
169 1 -0.00034314933783532     3.17936508945196     23.7881224441738     32.1174108432094
170 1 0.000216965142024296     1.59617448943354     22.8740600017966     34.6908710095382
171 1 0.000311620025070461   0.0129894786381149     25.6162467165425     34.6908657353078
172 1 0.000259540066209173      1.5961656601882     26.5303153946621     32.1174090014864
173 1  0.00012019634216376     3.17938538212417     23.7881239919638     37.2643465562852
174 1 -0.000169067329896394      1.5961992095056     22.8740627158368     39.8378016511866
175 1 -0.000271456004792512    0.012989639386057     25.6162486304652     39.8377996295228
176 1 1.81890234440055e-05     1.59618890225794      26.530311403998     37.2643336695106
177 1 -7.21258650687375e-05     3.17940486287573     23.7881247083823      42.411269881977
178 1 -9.10264910111913e-05     1.59619353727312     22.8740617250342     44.9847454865978
179 1 -6.10278538481262e-05   0.0129895923587804      25.616250502657     44.9847467073973
180 1 -0.000181959270727632     1.59619890047147     26.5303110204915     42.4112738686405
181 1 -0.000152034586229539     3.17939657612523     29.2724993987522     1.23578977822769
182 1 -0.000176890664778407     1.59619869427628     28.3584366111978     3.80925826837056
183 1 -0.000177989427859924   0.0129896183489766     31.1006250226739     3.80925276293609
184 1 -1.92745803719915e-05     1.59619095149973     32.0146891757308     1.23578561713007
185 1 3.32444982859767e-05     3.17940406664798     29.2724986534209     6.38272799479402
186 1 -2.04240595838271e-05     1.59619147157854     28.3584343377962     8.95620044439733
187 1 -0.00021025894985758   0.0129896237615949     31.1006188268142     8.95620485465003
188 1 -0.000236523808348543     1.59620078571799     32.0146832470355     6.38272712559619
189 1  2.4553599103278e-05     3.17937403051301     29.2725014776324     11.5296530161496
190 1 0.000269845520404929     1.59616650167467     28.3584364633058     14.1031245963958
191 1 0.000386074825831543   0.0129894653347621     31.1006217700709     14.1031328475674
192 1 7.52592295157332e-05       1.596185208934     32.0146845760418     11.5296667397158
193 1  -0.0004433058396502     3.17936858293056     29.2724963940599     16.6765935743206
194 1 8.34597989138051e-05     1.59616688724537      28.358437077398     19.2500593010123
195 1  0.00054157642358841   0.0129893902596313     31.1006261356911     19.2500594834753
196 1 0.000272168512025806     1.59616737139473     32.0146923797288     16.6765947821197
197 1 -0.000537216303752118     3.17938127879466     29.2724903934077      21.823533133953
198 1  8.2453149880295e-06     1.59617007803511     28.3584372990015     24.3970024182645
199 1 0.000510799224921187   0.0129893870607084     31.1006270163008     24.3970028185113
200 1 0.000192583740182221     1.59616566186105     32.0146954716522     21.8235314544373
201 1 -0.00052714157670274      3.1793760107422     29.2724925578315     26.9704683885229
202 1 0.000197580900392948     1.59616415300406     28.3584369117853      29.543943341031
203 1 0.000528066636754467   0.0129894095841056      31.100624359365     29.5439396524072
204 1 0.000231848433678648     1.59616556018043     32.0146945935388     26.9704711811963
205 1 -0.000228449455603056     3.17936602033414     29.2725000728331     32.1174115561262
206 1 0.000193992090564649      1.5961766859934     28.3584354983299     34.6908700618846
207 1 9.88260484852984e-05     0.01298954218031     31.1006193780654     34.6908609157125
208 1 0.000234330388429865     1.59617388207769     32.0146886925831     32.1174027406906
209 1 0.000121851629919962     3.17939042792421     29.2725003092269     37.2643434281876
210 1 -0.00018814671604468     1.59620041840052     28.3584345070482     39.8378017314147
211 1 -0.000315895382932708   0.0129896504227037     31.1006211036786     39.8378040307864
212 1 -0.000131879888005398     1.59619614696488     32.0146823254531     37.2643337982464
213 1 -9.29334255442726e-05      3.1794039160853     29.2724985264822     42.4112713399656
214 1 -7.50291790473319e-05      1.5961926888695     28.3584386813208     44.9847460231561
215 1 3.83466007058183e-06   0.0129895775314325     31.1006277019213     44.9847488206138
216 1 -0.000156283433643696     1.59619695103907     32.0146863812383      42.411278770549
217 1 -7.08758650002713e-05     3.17939129800359     34.7568763676532     1.23578702186028
218 1 -0.000128118232635321     1.59619554117633      33.842812777064     3.80925182854239
219 1 -6.04110549383049e-05   0.0129895894392594     36.5850020773811     3.80924716203691
220 1 3.79877259801774e-05     1.59618893190615     37.4990645665977     1.23578423068341
221 1 -0.000110859060759256     3.17940671691753        34.7568712857     6.38272693638119
222 1 -0.000199517176661313      1.5962004764896     33.8428067950831     8.95619988857334
223 1 -0.000321040778042716   0.0129896476867567     36.5849956238772     8.95619547250302
224 1 -0.000185866049737047     1.59619778470367     37.4990614661486     6.38272028172941
225 1 0.000119500507457148     3.17939242773945     34.7568750247026     11.5296604339979
226 1  0.00016107516603741     1.59618130525076     33.8428088975094     14.1031325738681
227 1 -0.000117077014364829   0.0129896053931963     36.5849894413438     14.1031388651779
228 1 -0.000205812983568424     1.59619919086409     37.4990551616045     11.5296652083536
229 1 -1.62905325066804e-05     3.17937053779996      34.756879486541     16.6765922508988
230 1 0.000273607419485159     1.59616836798748     33.8428131669069     19.2500624383037
231 1  0.00021105089602106    0.012989527508662     36.5849911014818     19.2500679559338
232 1 2.81985596826334e-05     1.59618739639736     37.4990551266216     16.6766002934055
233 1 -0.00022332242514895     3.17936590386808     34.7568786918532     21.8235315613854
234 1 0.000262906374995563      1.5961667306417     33.8428140964752     24.3970016053762
235 1 0.000281458550892088   0.0129895074749797     36.5849921934357     24.3969996889171
236 1 0.000150618807266601      1.5961791837038     37.4990579619667     21.8235330557924
237 1 -0.00014801085140749     3.17936681829623     34.7568792341787     26.9704716434991
238 1  0.00025503528975767     1.59617293106384     33.8428113248158     29.5439371150837
239 1 7.11115009301787e-05   0.0129895593259125     36.5849897701712     29.5439295386985
240 1 0.000111460625362168     1.59618202133239     37.4990568094937     26.9704668047872
241 1  0.00010129434305325     3.17937925233424     34.7568781136421     32.1174078697127
242 1 -1.72283698270212e-05     1.59619180152372      33.842806937309     34.6908644854427
243 1 -0.000270894862768577   0.0129896374894364     36.5849914347381     34.6908632088428
244 1 -8.96453354501421e-05      1.5961937818523     37.4990542369211     32.1173993475784
245 1 1.03365567606238e-05     3.17940379052828     34.7568719492707     37.2643381002398
246 1 -0.000243947856253389      1.5962016292538     33.8428091331955     39.8378074713494
247 1 -0.000230385125857707   0.0129896279411628     36.5849997770983     39.8378139206583
248 1 -0.000246925301483469     1.59620068558486     37.4990579782353     37.2643396533195
249 1 -0.000123939639470553     3.17939983412858     34.7568735966956       42.41127639182
250 1 7.17952516173672e-06     1.59618920047077     33.8428152097455     44.9847487801299
251 1 6.22191347678985e-05   0.0129895643179989     36.5850024166538     44.9847503740129
252 1 -6.34648419440117e-05     1.59619278617727     37.4990637159137     42.4112833338116
253 1 -3.61603914798101e-06     3.17939015701196     40.2412510817351     1.23578515318606
254 1 -3.1412601721351e-05     1.59619092551745     39.3271890537106     3.80924893885669
255 1 -6.01935383396736e-06   0.0129895777716885     42.0693755429989     3.80925116216973
256 1 -2.97765975083943e-05     1.59619079519334     42.9834356563819     1.23578584376514
257 1 -0.00014329219330231     3.17939902901802     40.2412490624101     6.38272173867192
258 1 -0.00021475451460749     1.59619907914032     39.3271862886535     8.95619107677284
259 1 -0.000101035293074959   0.0129895967056051     42.0693791969085     8.95618679032887
260 1 -3.63008254859633e-05     1.59619155019788     42.9834401517926      6.3827200323605
261 1 -0.000116029547095557     3.17940694131723      40.241245465791     11.5296632906861
262 1 -0.000205066003689786     1.59620041669385     39.3271798973762     14.1031339054986
263 1 -0.00028655776242829   0.0129896334814226     42.0693742133349       14.10312858588
264 1 -0.000159274232022816     1.59619696494367     42.9834399826911     11.5296582777769
265 1 4.52641547545759e-05     3.17940068630696     40.2412465961819     16.6765980046254
266 1 -5.76527124623364e-05      1.5961945754999     39.3271785326478     19.2500674633378
267 1 -0.000330076631171484   0.0129896444048765     42.0693685592932     19.2500667829339
268 1 -0.000245739404342168     1.59620108510549      42.983435409895     16.6765973257085
269 1 0.000101927784911666     3.17939302582694      40.241249060876     21.8235325747075
270 1 -1.6920643419451e-05     1.59619267229944     39.3271787898464     24.3969996634874
271 1 -0.000321907339514759   0.0129896437344876     42.0693673453532     24.3969996972961
272 1 -0.000242090117517323     1.59620137840222     42.9834327619457     21.8235330134017
273 1 8.62472374596409e-05     3.17939586916427     40.2412481104808     26.9704682322465
274 1 -0.000127795321842533     1.59619755501524     39.3271786406171     29.5439318883362
275 1 -0.000325630131375408   0.0129896426310238      42.069370901477     29.5439345522661
276 1 -0.000247131900996852     1.59620143416485     42.9834336428266      26.970467605942
277 1 -2.86138504722214e-05     3.17940509144369     40.2412454547394     32.1174019394882
278 1 -0.000242112352615635     1.59620118086464     39.3271826717271      34.690869315647
279 1 -0.000204419593304874   0.0129896184091642     42.0693773684342      34.690875631019
280 1 -0.000218576848163459     1.59619965330903     42.9834376931939     32.1174050200601
281 1 -0.000164369214419203     3.17940458863522     40.2412469181286     37.2643399706159
282 1 -0.000131037282541949     1.59619501786709     39.3271887145268     39.8378147290827
283 1 -2.93472326137093e-05   0.0129895826471643     42.0693784180676     39.8378151477102
284 1 -8.91191946944594e-05     1.59619391168955     42.9834410372195     37.2643444471111
285 1 -7.02238479612755e-05     3.17939352423698     40.2412505277305     42.4112813051119
286 1 2.82138507472692e-05     1.59618877045759     39.3271882767721     44.9847492055788
287 1 -1.28898953296227e-05   0.0129895786686281     42.0693730477433     44.9847478369512
288 1 -2.3038189529601e-05     1.59619073821657     42.9834377991586       42.41128064314
289 1 -6.47699364311813e-05     3.17939506336196     45.7256236003545     1.23578658988757
290 1 -4.34327903813936e-05     1.59619145760376     44.8115619620205      3.8092544985889
291 1 -8.50946965414724e-05   0.0129895907183761     47.5537489754149     3.80925730418399
292 1 -0.000113596153809665     1.59619349340946      48.467811508739     1.23578767178788
293 1 -4.58469002689215e-05     3.17939277297696     45.7256271915591     6.38272227920484
294 1 -3.5600581643835e-05      1.5961909580517     44.8115669837633     8.95618898469343
295 1 4.71748724869378e-06    0.012989575537707     47.5537524935772     8.95619188130692
296 1 -4.11163592442854e-05     1.59619129390161     48.4678128520738     6.38272526467833
297 1 -8.72128301115714e-05     3.17939527164472     45.7256271897207     11.5296588168891
298 1 -0.000127204892100265     1.59619425309527     44.8115665420085     14.1031262808773
299 1 4.06237120911311e-05   0.0129895693139145     47.5537547462415     14.1031254714325
300 1 3.32975063046506e-05     1.59618909412254      48.467814041847     11.5296586655568
301 1 -0.000124078166162195     3.17940081686495     45.7256233751317     16.6765963116749
302 1 -0.000188403251232978     1.59619688907237     44.8115632874408     19.2500643935176
303 1 1.55094493709328e-05   0.0129895732679632     47.5537545408739     19.2500625822326
304 1 3.42909626844114e-05     1.59618932584278     48.4678138134165     16.6765939254229
305 1 -0.000121341465644418     3.17940344318616     45.7256209928232     21.8235326499232
306 1 -0.000196491038650026     1.59619735744844     44.8115623334478     24.3970005626455
307 1 4.47754000012308e-06    0.012989575262729     47.5537542499197      24.397001260766
308 1 9.77665773053708e-06     1.59619032295532     48.4678132461226      21.823531917484
309 1 -0.000124034472094029     3.17940261404881      45.725621793179     26.9704685093955
310 1 -0.000166887787559674     1.59619587573608     44.8115648354098     29.5439375653193
311 1 3.07209905589508e-05   0.0129895712129667     47.5537548178456      29.543939491331
312 1  1.9764035361147e-05     1.59618992569396     48.4678134577425     26.9704704056127
313 1 -0.000112462247193344     3.17939823034741     45.7256253191251     32.1174055298368
314 1 -7.80655366807309e-05     1.59619242404704     44.8115674671257     34.6908759459664
315 1  3.3673254703015e-05   0.0129895706779365     47.5537539958089     34.6908748802307
316 1 4.21051734402649e-05     1.59618893723317     48.4678140586422     32.1174073268008
317 1 -5.99884267657172e-05     3.17939321588614     45.7256279791731      37.264342827664
318 1 -2.4610226851705e-05     1.59619066485086     44.8115649300037     39.8378114889802
319 1 -3.87736472935205e-05   0.0129895825332436     47.5537506998358     39.8378079347164
320 1 4.48496918271308e-06     1.59618992018363     48.4678136309722     37.2643410993304
321 1 -5.21539928165263e-05     3.17939382646664     45.7256252975203     42.4112786947159
322 1 -6.61471493001331e-05     1.59619234668982     44.8115598967389     44.9847464658475
323 1 -0.000112959533725086   0.0129895953012107     47.5537480149293     44.9847453801925
324 1 -8.49286679737355e-05     1.59619262470829     48.4678120595958     42.4112759324849
325 1 -3.56887400837378e-05     6.34580220039317     1.85062233209758     1.23578590535169
326 1 -4.32816907955592e-05     4.76259798870731    0.936560672506396     3.80925477102744
327 1 -5.27734989684265e-05     3.17939389171764     3.67874812130673     3.80925450357119
328 1 -3.1408886288289e-05     4.76259719069083     4.59281028170359     1.23578566471695
329 1 -3.90331029012485e-05     6.34579738300482     1.85062192160734     6.38272007556919