LAMMPS (27 Jun 2024)
OMP_NUM_THREADS environment is not set. Defaulting to 1 thread. (src/comm.cpp:98)
  using 1 OpenMP thread(s) per MPI task
Reading data file ...
  orthogonal box = (0 0 0) to (44.844435 44.38448 40.643788)
  5 by 2 by 2 MPI processor grid
  reading atoms ...
  3584 atoms
  read_data CPU = 0.021 seconds
**************** Begin of POD Potentials ****************
species: Hf 
periodic boundary conditions: 1 1 1
number of environment clusters: 8
number of principal compoments: 2
inner cut-off radius: 1
outer cut-off radius: 5
cut-off function type: 1
gaussian_exponents: 
polynomial_degrees: 
bessel polynomial degree: 4
inverse polynomial degree: 10
one-body potential: 1
two-body radial basis functions: 8
three-body radial basis functions: 8
three-body angular degree: 6
four-body radial basis functions: 7
four-body angular degree: 5
five-body radial basis functions: 0
five-body angular degree: 0
six-body radial basis functions: 0
six-body angular degree: 0
seven-body radial basis functions: 0
seven-body angular degree: 0
number of local descriptors per element for one-body potential: 1
number of local descriptors per element for two-body potential: 8
number of local descriptors per element for three-body potential: 56
number of local descriptors per element for four-body potential: 112
number of local descriptors per element for five-body potential: 0
number of local descriptors per element for six-body potential: 0
number of local descriptors per element for seven-body potential: 0
number of local descriptors per element for all potentials: 177
number of global descriptors: 1409
**************** End of POD Potentials ****************

**************** Begin of Model Coefficients ****************
total number of coefficients for POD potential: 1409
total number of elements for PCA projection matrix: 352
total number of elements for PCA centroids: 16
**************** End of Model Coefficients ****************


CITE-CITE-CITE-CITE-CITE-CITE-CITE-CITE-CITE-CITE-CITE-CITE-CITE

Your simulation uses code contributions which should be cited:
- Type Label Framework: https://doi.org/10.1021/acs.jpcb.3c08419
The log file lists these citations in BibTeX format.

CITE-CITE-CITE-CITE-CITE-CITE-CITE-CITE-CITE-CITE-CITE-CITE-CITE

Neighbor list info ...
  update: every = 1 steps, delay = 0 steps, check = no
  max neighbors/atom: 2000, page size: 100000
  master list distance cutoff = 7
  ghost atom cutoff = 7
  binsize = 3.5, bins = 13 13 12
  1 neighbor lists, perpetual/occasional/extra = 1 0 0
  (1) pair pod, perpetual
      attributes: full, newton on
      pair build: full/bin/atomonly
      stencil: full/bin/3d
      bin: standard
Setting up Verlet run ...
  Unit style    : metal
  Current step  : 0
  Time step     : 0.001
Per MPI rank memory allocation (min/avg/max) = 2.609 | 2.61 | 2.613 Mbytes
   Step          Temp          TotEng         PotEng         KinEng         Press          Volume    
         0   300           -25853.672     -25992.614      138.94173      27705.402      80897.271    
       100   316.91445     -25876.939     -26023.715      146.77547      9707.5543      80897.271    
       200   237.45971     -25884.477     -25994.454      109.97688      10542.614      80897.271    
       300   334.39149     -25876.261     -26031.131      154.86977      9295.4971      80897.271    
       400   348.02475     -25895.034     -26056.218      161.18387      9235.589       80897.271    
       500   334.85225     -25911.544     -26066.627      155.08317      8252.7057      80897.271    
       600   293.45206     -25921.355     -26057.264      135.90912      8356.2315      80897.271    
       700   287.6011      -25922.458     -26055.657      133.19931      8863.5266      80897.271    
       800   296.88306     -25919.506     -26057.004      137.49815      8668.4196      80897.271    
       900   297.91336     -25916.642     -26054.617      137.97533      8502.0431      80897.271    
      1000   316.92904     -25913.077     -26059.859      146.78223      8387.9258      80897.271    
      1100   303.76836     -25913.889     -26054.576      140.68701      8850.8324      80897.271    
      1200   299.91177     -25918.272     -26057.173      138.90087      8646.393       80897.271    
      1300   289.84632     -25921.403     -26055.642      134.23916      8337.7864      80897.271    
      1400   300.54751     -25921.147     -26060.342      139.1953       8610.1246      80897.271    
      1500   288.1841      -25921.325     -26054.795      133.46933      8655.506       80897.271    
      1600   320.78233     -25914.829     -26063.396      148.56684      8425.8006      80897.271    
      1700   294.60534     -25914.927     -26051.37       136.44325      8889.109       80897.271    
      1800   303.68302     -25914.214     -26054.862      140.64748      8760.705       80897.271    
      1900   299.27095     -25918.112     -26056.716      138.60408      8928.1431      80897.271    
      2000   291.91971     -25921.887     -26057.086      135.19943      8423.5035      80897.271    
      2100   313.90753     -25920.043     -26065.426      145.38285      8387.2684      80897.271    
      2200   288.81674     -25919.624     -26053.387      133.76233      8461.6077      80897.271    
      2300   301.66397     -25914.66      -26054.372      139.71238      8877.9284      80897.271    
      2400   292.58882     -25915.539     -26051.049      135.50932      8923.3542      80897.271    
      2500   314.71694     -25915.517     -26061.275      145.75772      8627.0199      80897.271    
      2600   300.71021     -25919.321     -26058.592      139.27065      8508.105       80897.271    
      2700   301.64126     -25921.26      -26060.961      139.70186      8478.2003      80897.271    
      2800   289.6595      -25920.675     -26054.828      134.15264      8666.5064      80897.271    
      2900   309.32826     -25917.084     -26060.346      143.26201      8638.5801      80897.271    
      3000   295.59413     -25918.127     -26055.029      136.9012       8727.0495      80897.271    
      3100   304.23584     -25916.666     -26057.569      140.90351      8802.1817      80897.271    
      3200   295.49504     -25918.192     -26055.048      136.85531      8773.8708      80897.271    
      3300   304.35074     -25918.424     -26059.381      140.95673      8715.51        80897.271    
      3400   298.01181     -25919.754     -26057.775      138.02092      8626.9747      80897.271    
      3500   299.61981     -25920.271     -26059.036      138.76565      8548.7249      80897.271    
      3600   300.69786     -25918.086     -26057.351      139.26493      8647.867       80897.271    
      3700   304.45552     -25914.097     -26055.102      141.00525      8876.7301      80897.271    
      3800   303.32581     -25913.178     -26053.66       140.48204      8576.5447      80897.271    
      3900   305.5884      -25916.592     -26058.122      141.52994      8687.399       80897.271    
      4000   298.51253     -25919.295     -26057.548      138.25282      8676.6013      80897.271    
      4100   300.05657     -25918.852     -26057.82       138.96793      8633.4807      80897.271    
      4200   295.17482     -25918.403     -26055.11       136.707        8589.4621      80897.271    
      4300   300.04286     -25916.688     -26055.65       138.96158      8946.8717      80897.271    
      4400   313.48595     -25913.8       -26058.987      145.1876       8822.09        80897.271    
      4500   298.60242     -25916.348     -26054.643      138.29445      8643.6402      80897.271    
      4600   292.93359     -25920.051     -26055.72       135.669        8586.3325      80897.271    
      4700   303.13922     -25919.174     -26059.57       140.39563      8884.1631      80897.271    
      4800   298.74222     -25919.584     -26057.943      138.3592       8533.8126      80897.271    
      4900   297.93313     -25919.365     -26057.349      137.98448      8617.3381      80897.271    
      5000   301.55662     -25915.282     -26054.944      139.66266      8891.1543      80897.271    
      5100   304.59502     -25912.722     -26053.792      141.06986      8783.1834      80897.271    
      5200   299.88414     -25914.829     -26053.717      138.88807      8781.2872      80897.271    
      5300   302.53825     -25917.974     -26058.091      140.11729      8689.6151      80897.271    
      5400   305.13048     -25919.419     -26060.736      141.31786      8622.8907      80897.271    
      5500   292.17123     -25920.379     -26055.695      135.31592      8737.9296      80897.271    
      5600   302.64156     -25917.737     -26057.902      140.16514      8776.3982      80897.271    
      5700   298.8673      -25916.811     -26055.228      138.41713      8779.5374      80897.271    
      5800   309.96689     -25913.566     -26057.124      143.55778      8795.4857      80897.271    
      5900   302.01029     -25912.417     -26052.29       139.87277      8977.3105      80897.271    
      6000   301.6469      -25916.14      -26055.844      139.70447      8833.6215      80897.271    
      6100   300.23845     -25919.898     -26058.95       139.05217      8644.1541      80897.271    
      6200   298.66627     -25919.614     -26057.938      138.32403      8772.915       80897.271    
      6300   306.90775     -25916.889     -26059.03       142.14098      8803.1944      80897.271    
      6400   297.22397     -25917.646     -26055.302      137.65604      8737.2604      80897.271    
      6500   296.458       -25918.551     -26055.853      137.30129      8958.346       80897.271    
      6600   303.35656     -25920.691     -26061.187      140.49629      8644.7176      80897.271    
      6700   297.82957     -25921.873     -26059.81       137.93652      8671.6009      80897.271    
      6800   302.31667     -25919.052     -26059.067      140.01467      8726.0978      80897.271    
      6900   297.815       -25916.369     -26054.298      137.92977      8742.2374      80897.271    
      7000   303.82758     -25915.362     -26056.077      140.71443      8980.7214      80897.271    
      7100   301.51027     -25916.798     -26056.439      139.64119      8851.8811      80897.271    
      7200   300.92093     -25917.88      -26057.249      139.36825      8835.0439      80897.271    
      7300   298.89186     -25919.768     -26058.197      138.42851      8671.5347      80897.271    
      7400   295.24687     -25922.407     -26059.147      136.74037      8690.3564      80897.271    
      7500   290.92376     -25925.724     -26060.462      134.73817      8784.6571      80897.271    
      7600   294.93214     -25924.16      -26060.754      136.59461      8549.5691      80897.271    
      7700   301.12296     -25919.144     -26058.605      139.46181      8609.6491      80897.271    
      7800   302.18102     -25917.731     -26057.682      139.95185      8639.0204      80897.271    
      7900   300.42061     -25917.031     -26056.168      139.13653      8954.7804      80897.271    
      8000   295.44573     -25917.464     -26054.297      136.83247      8854.7321      80897.271    
      8100   293.73545     -25920.093     -26056.133      136.04037      8815.6325      80897.271    
      8200   303.67361     -25922.473     -26063.116      140.64312      8683.0049      80897.271    
      8300   289.9937      -25924.266     -26058.574      134.30742      8692.733       80897.271    
      8400   297.41021     -25920.395     -26058.138      137.7423       8741.4875      80897.271    
      8500   299.15996     -25918.332     -26056.884      138.55267      8856.8882      80897.271    
      8600   300.76913     -25918.162     -26057.46       139.29794      8853.04        80897.271    
      8700   299.86412     -25918.696     -26057.574      138.8788       8848.4596      80897.271    
      8800   302.53177     -25917.945     -26058.059      140.11429      8604.7781      80897.271    
      8900   295.5102      -25917.934     -26054.796      136.86233      8956.6078      80897.271    
      9000   307.00064     -25915.802     -26057.986      142.184        8992.3039      80897.271    
      9100   297.12949     -25918.046     -26055.659      137.61229      8795.9064      80897.271    
      9200   296.70802     -25921.23      -26058.647      137.41708      8677.5793      80897.271    
      9300   293.88684     -25922.283     -26058.393      136.11049      8823.2049      80897.271    
      9400   307.38282     -25917.565     -26059.926      142.361        8866.6575      80897.271    
      9500   299.21885     -25914.997     -26053.577      138.57995      8949.6318      80897.271    
      9600   301.12076     -25915.591     -26055.052      139.4608       8929.811       80897.271    
      9700   298.74915     -25918.162     -26056.524      138.36241      8909.692       80897.271    
      9800   297.09953     -25920.503     -26058.101      137.59841      8772.4224      80897.271    
      9900   298.94974     -25920.771     -26059.226      138.45531      8631.0406      80897.271    
     10000   302.91469     -25916.912     -26057.204      140.29164      8878.4798      80897.271    
     10100   297.88688     -25913.828     -26051.791      137.96306      8944.9727      80897.271    
     10200   309.96303     -25913.82      -26057.376      143.556        8784.0121      80897.271    
     10300   301.69151     -25918.108     -26057.833      139.72514      8848.812       80897.271    
     10400   297.48319     -25919.177     -26056.953      137.7761       8940.5493      80897.271    
     10500   301.3587      -25918.033     -26057.604      139.57099      8903.157       80897.271    
     10600   298.90441     -25917.137     -26055.571      138.43432      9014.8882      80897.271    
     10700   303.29978     -25916.494     -26056.964      140.46999      8887.6792      80897.271    
     10800   298.76683     -25918.321     -26056.692      138.3706       8941.0925      80897.271    
     10900   304.16712     -25919.864     -26060.736      140.87169      8712.3158      80897.271    
     11000   293.32354     -25922.749     -26058.598      135.8496       8877.8207      80897.271    
     11100   294.46277     -25921.704     -26058.081      136.37722      8798.2782      80897.271    
     11200   306.98963     -25917.141     -26059.32       142.1789       8834.8321      80897.271    
     11300   303.62689     -25916.796     -26057.418      140.62148      8823.6221      80897.271    
     11400   295.69175     -25917.837     -26054.783      136.94641      8998.4794      80897.271    
     11500   294.26545     -25920.088     -26056.374      136.28583      8961.8611      80897.271    
     11600   299.51963     -25922.324     -26061.043      138.71925      8717.4617      80897.271    
     11700   296.73294     -25923.536     -26060.965      137.42863      8674.471       80897.271    
     11800   299.4434      -25920.32      -26059.004      138.68395      8914.7797      80897.271    
     11900   301.76493     -25916.04      -26055.799      139.75914      9046.7633      80897.271    
     12000   300.02303     -25916.343     -26055.295      138.9524       9030.2737      80897.271    
     12100   300.3518      -25918.112     -26057.217      139.10466      8830.1712      80897.271    
     12200   294.13944     -25920.508     -26056.736      136.22747      8905.2247      80897.271    
     12300   301.56773     -25922.336     -26062.004      139.66781      8712.426       80897.271    
     12400   290.41379     -25924.785     -26059.287      134.50198      8664.0345      80897.271    
     12500   298.16449     -25921.532     -26059.624      138.09163      8813.9096      80897.271    
     12600   299.53023     -25917.824     -26056.548      138.72416      8823.0633      80897.271    
     12700   300.91636     -25916.592     -26055.958      139.36613      8936.6146      80897.271    
     12800   299.7935      -25917.599     -26056.446      138.84609      8997.3812      80897.271    
     12900   298.42429     -25919.695     -26057.907      138.21196      8889.3258      80897.271    
     13000   293.92927     -25923.518     -26059.648      136.13014      8809.62        80897.271    
     13100   297.76706     -25924.391     -26062.298      137.90757      8598.2425      80897.271    
     13200   297.26165     -25921.137     -26058.81       137.67349      8776.8966      80897.271    
     13300   304.08592     -25916.748     -26057.582      140.83408      8957.8007      80897.271    
     13400   299.53458     -25916.999     -26055.726      138.72617      8951.6193      80897.271    
     13500   296.40992     -25918.396     -26055.675      137.27902      9014.9341      80897.271    
     13600   300.74613     -25919.833     -26059.12       139.28729      8931.38        80897.271    
     13700   294.6619      -25923.32      -26059.79       136.46945      8673.8473      80897.271    
     13800   296.53991     -25922.649     -26059.988      137.33923      8753.4809      80897.271    
     13900   300.55358     -25917.953     -26057.151      139.19812      9049.9354      80897.271    
     14000   296.84101     -25917.685     -26055.163      137.47868      8930.933       80897.271    
     14100   300.79657     -25917.503     -26056.813      139.31065      8861.7716      80897.271    
     14200   298.05571     -25918.842     -26056.883      138.04125      8848.8992      80897.271    
     14300   301.00834     -25921.149     -26060.558      139.40873      8744.9913      80897.271    
     14400   293.82177     -25923.797     -26059.877      136.08035      8692.0623      80897.271    
     14500   296.65476     -25921.19      -26058.583      137.39242      8853.2379      80897.271    
     14600   301.8908      -25917.115     -26056.933      139.81743      8866.2483      80897.271    
     14700   304.45261     -25917.123     -26058.127      141.00391      8791.8632      80897.271    
     14800   298.42719     -25918.621     -26056.835      138.2133       8929.6368      80897.271    
     14900   303.85036     -25919.502     -26060.227      140.72498      8845.454       80897.271    
     15000   293.78829     -25922.869     -26058.934      136.06485      8763.9794      80897.271    
     15100   296.25392     -25921.826     -26059.033      137.20677      8791.9382      80897.271    
     15200   302.5529      -25916.789     -26056.913      140.12408      8740.3642      80897.271    
     15300   303.44618     -25915.404     -26055.942      140.53779      8782.5375      80897.271    
     15400   298.72843     -25917.022     -26055.375      138.35282      9040.9201      80897.271    
     15500   303.08489     -25919.232     -26059.602      140.37046      8785.1102      80897.271    
     15600   292.591       -25923.386     -26058.897      135.51033      8730.9224      80897.271    
     15700   299.21474     -25922.47      -26061.048      138.57804      8709.6142      80897.271    
     15800   300.96974     -25920.579     -26059.97       139.39086      8659.5836      80897.271    
     15900   293.89963     -25918.637     -26054.753      136.11641      8979.7041      80897.271    
     16000   305.02634     -25915.749     -26057.019      141.26962      8925.0248      80897.271    
     16100   302.95752     -25916.671     -26056.983      140.31148      8843.6341      80897.271    
     16200   300.14488     -25919.261     -26058.27       139.00883      8822.9267      80897.271    
     16300   295.66498     -25920.775     -26057.709      136.93401      8692.9076      80897.271    
     16400   300.21631     -25920.119     -26059.161      139.04191      8932.1328      80897.271    
     16500   296.55141     -25919.578     -26056.923      137.34456      8913.1336      80897.271    
     16600   309.10711     -25916.545     -26059.704      143.15959      8809.5096      80897.271    
     16700   295.52286     -25917.662     -26054.53       136.86819      8870.0302      80897.271    
     16800   305.36809     -25917.994     -26059.422      141.4279       8886.872       80897.271    
     16900   293.33388     -25921.485     -26057.34       135.85439      8828.137       80897.271    
     17000   296.99963     -25923.137     -26060.689      137.55214      8794.3122      80897.271    
     17100   295.40391     -25921.042     -26057.856      136.8131       8938.2585      80897.271    
     17200   302.27381     -25916.344     -26056.339      139.99482      8998.6715      80897.271    
     17300   302.18459     -25915.86      -26055.813      139.9535       9028.1119      80897.271    
     17400   305.37148     -25917.41      -26058.84       141.42947      8858.8453      80897.271    
     17500   289.66548     -25921.454     -26055.61       134.15541      9048.6751      80897.271    
     17600   298.80279     -25920.819     -26059.206      138.38726      8798.4114      80897.271    
     17700   299.49744     -25919.632     -26058.341      138.70898      8863.2089      80897.271    
     17800   303.04172     -25916.22      -26056.57       140.35047      8975.3976      80897.271    
     17900   302.15159     -25915.355     -26055.293      139.93821      8997.6693      80897.271    
     18000   303.65281     -25916.184     -26056.818      140.63349      8966.7984      80897.271    
     18100   301.78449     -25918.991     -26058.759      139.7682       8893.6201      80897.271    
     18200   301.53405     -25919.997     -26059.649      139.65221      8821.5732      80897.271    
     18300   299.77828     -25919.166     -26058.005      138.83904      8866.8753      80897.271    
     18400   302.4624      -25916.451     -26056.533      140.08216      8986.7064      80897.271    
     18500   307.3257      -25912.013     -26054.348      142.33455      8950.4249      80897.271    
     18600   307.146       -25913.701     -26055.953      142.25132      9072.9089      80897.271    
     18700   302.20328     -25917.217     -26057.179      139.96215      8826.5537      80897.271    
     18800   300.27755     -25918.519     -26057.589      139.07027      8926.7619      80897.271    
     18900   296.16265     -25920.042     -26057.206      137.1645       8980.7019      80897.271    
     19000   299.06878     -25920.292     -26058.802      138.51044      8941.7565      80897.271    
     19100   303.63645     -25917.812     -26058.438      140.62591      8948.9628      80897.271    
     19200   301.12974     -25914.705     -26054.17       139.46495      8953.7199      80897.271    
     19300   308.51065     -25913.461     -26056.344      142.88334      9109.9687      80897.271    
     19400   299.55744     -25917.383     -26056.12       138.73676      8873.4724      80897.271    
     19500   304.31379     -25918.36      -26059.3        140.93961      8801.1253      80897.271    
     19600   294.95099     -25920.029     -26056.632      136.60334      9036.9885      80897.271    
     19700   299.14816     -25919.349     -26057.896      138.54721      8969.523       80897.271    
     19800   300.93554     -25918.29      -26057.665      139.37502      9028.6254      80897.271    
     19900   305.51401     -25916.123     -26057.618      141.49548      8938.4009      80897.271    
     20000   298.18027     -25915.134     -26053.233      138.09894      9084.5048      80897.271    
     20100   302.70127     -25916.323     -26056.516      140.19279      9064.5423      80897.271    
     20200   296.07864     -25920.777     -26057.903      137.1256       8932.2426      80897.271    
     20300   297.16785     -25921.596     -26059.227      137.63005      8765.4471      80897.271    
     20400   299.45631     -25920.467     -26059.157      138.68993      8928.7857      80897.271    
     20500   295.76144     -25918.048     -26055.027      136.97869      8930.1037      80897.271    
     20600   306.26953     -25914.204     -26056.049      141.84539      9060.5221      80897.271    
     20700   300.79076     -25914.938     -26054.246      139.30796      9110.1967      80897.271    
     20800   302.91133     -25916.894     -26057.184      140.29008      8991.1819      80897.271    
     20900   299.50227     -25919.875     -26058.587      138.71121      8873.7066      80897.271    
     21000   296.10027     -25920.773     -26057.908      137.13561      8846.3505      80897.271    
     21100   299.05973     -25919.873     -26058.379      138.50625      8799.0029      80897.271    
     21200   304.39841     -25915.379     -26056.358      140.97881      8953.7691      80897.271    
     21300   304.22711     -25911.658     -26052.558      140.89947      9259.0694      80897.271    
     21400   306.50761     -25914.533     -26056.489      141.95566      8932.9678      80897.271    
     21500   297.96105     -25917.523     -26055.52       137.99741      9011.8984      80897.271    
     21600   300.19527     -25917.933     -26056.966      139.03217      8976.5323      80897.271    
     21700   301.59702     -25919.781     -26059.462      139.68137      8748.1721      80897.271    
     21800   292.5395      -25922.613     -26058.1        135.48648      8889.3946      80897.271    
     21900   301.38808     -25920.162     -26059.746      139.5846       8834.1988      80897.271    
     22000   299.05437     -25916.543     -26055.047      138.50377      8993.1231      80897.271    
     22100   308.84369     -25911.635     -26054.672      143.03759      9220.6196      80897.271    
     22200   303.40387     -25913.937     -26054.455      140.51819      9048.1043      80897.271    
     22300   296.34816     -25917.947     -26055.197      137.25042      9020.4018      80897.271    
     22400   304.68994     -25919.747     -26060.861      141.11383      8917.8534      80897.271    
     22500   295.96183     -25921.565     -26058.637      137.07149      8970.9224      80897.271    
     22600   300.30818     -25919.936     -26059.02       139.08446      8972.6089      80897.271    
     22700   300.01367     -25915.973     -26054.921      138.94806      8979.2474      80897.271    
     22800   311.04407     -25912.158     -26056.214      144.05667      9072.973       80897.271    
     22900   300.72225     -25915.44      -26054.717      139.27623      9101.7754      80897.271    
     23000   300.63057     -25917.464     -26056.698      139.23377      8998.6552      80897.271    
     23100   303.04203     -25919.393     -26059.744      140.35061      8885.5256      80897.271    
     23200   299.26044     -25921.366     -26059.965      138.59921      8999.4593      80897.271    
     23300   291.09117     -25921.377     -26056.193      134.8157       8979.0011      80897.271    
     23400   302.92922     -25916.012     -26056.31       140.29837      9058.2753      80897.271    
     23500   301.73052     -25914.775     -26054.518      139.7432       9025.2559      80897.271    
     23600   302.35157     -25916.039     -26056.069      140.03083      9060.3777      80897.271    
     23700   300.42727     -25920.112     -26059.252      139.13961      8871.0875      80897.271    
     23800   297.78678     -25921.659     -26059.575      137.9167       8944.0493      80897.271    
     23900   292.64679     -25921.043     -26056.579      135.53617      8972.6782      80897.271    
     24000   303.46105     -25918.801     -26059.346      140.54468      9024.6913      80897.271    
     24100   301.45467     -25918.015     -26057.631      139.61544      9007.0333      80897.271    
     24200   298.57855     -25917.609     -26055.893      138.2834       8873.8573      80897.271    
     24300   300.28332     -25918.174     -26057.247      139.07295      9087.8053      80897.271    
     24400   301.60039     -25918.942     -26058.625      139.68293      8900.7923      80897.271    
     24500   294.11871     -25920.051     -26056.269      136.21787      8933.8324      80897.271    
     24600   300.96577     -25921.126     -26060.515      139.38902      8822.8769      80897.271    
     24700   297.89515     -25921.545     -26059.512      137.96689      8847.1049      80897.271    
     24800   298.65555     -25919.276     -26057.595      138.31906      9006.5584      80897.271    
     24900   299.46772     -25915.584     -26054.279      138.69521      9051.9969      80897.271    
     25000   305.31305     -25914.762     -26056.165      141.40241      9039.7368      80897.271    
     25100   300.57055     -25917.669     -26056.875      139.20598      9092.0056      80897.271    
     25200   300.01752     -25919.287     -26058.237      138.94985      8927.5709      80897.271    
     25300   296.16874     -25919.396     -26056.564      137.16732      9007.033       80897.271    
     25400   302.13816     -25917.815     -26057.747      139.93199      8985.8366      80897.271    
     25500   297.85093     -25918.032     -26055.978      137.94641      9038.9523      80897.271    
     25600   300.79822     -25918.485     -26057.796      139.31141      8847.3157      80897.271    
     25700   296.06657     -25922.03      -26059.15       137.12001      8669.6105      80897.271    
     25800   295.33689     -25923.068     -26059.85       136.78206      8851.5821      80897.271    
     25900   297.18433     -25919.834     -26057.472      137.63768      8955.7242      80897.271    
     26000   299.33893     -25916.963     -26055.598      138.63556      8962.7744      80897.271    
     26100   300.41855     -25915.837     -26054.972      139.13557      8972.739       80897.271    
     26200   304.59144     -25915.71      -26056.778      141.06821      8964.3887      80897.271    
     26300   295.10567     -25921.714     -26058.389      136.67497      8918.1802      80897.271    
     26400   294.94248     -25922.21      -26058.809      136.5994       8802.213       80897.271    
     26500   305.36218     -25919.07      -26060.496      141.42517      8908.6226      80897.271    
     26600   300.22277     -25917.049     -26056.094      139.0449       8939.5538      80897.271    
     26700   302.12438     -25914.918     -26054.844      139.92561      9003.1137      80897.271    
     26800   296.54884     -25917.486     -26054.829      137.34336      8968.8469      80897.271    
     26900   300.12058     -25921.498     -26060.496      138.99757      8871.1691      80897.271    
     27000   295.92625     -25921.606     -26058.661      137.05502      8848.3176      80897.271    
     27100   298.2256      -25918.413     -26056.533      138.11993      8956.8872      80897.271    
     27200   300.87374     -25916.735     -26056.081      139.3464       9020.9246      80897.271    
     27300   300.20407     -25917.272     -26056.309      139.03624      9096.3707      80897.271    
     27400   304.01625     -25918.859     -26059.661      140.80181      8818.7809      80897.271    
     27500   288.65794     -25923.728     -26057.417      133.68878      8910.0577      80897.271    
     27600   298.1416      -25922.028     -26060.109      138.08103      8958.1918      80897.271    
     27700   300.81103     -25920.745     -26060.062      139.31735      8826.8683      80897.271    
     27800   300.64336     -25918.754     -26057.994      139.23969      8899.2771      80897.271    
     27900   303.11906     -25915.647     -26056.033      140.38629      8993.2067      80897.271    
     28000   297.85836     -25916.021     -26053.971      137.94985      9193.7686      80897.271    
     28100   301.61027     -25916.835     -26056.522      139.68751      8927.686       80897.271    
     28200   306.8775      -25917.531     -26059.658      142.12697      8975.643       80897.271    
     28300   292.15754     -25920.195     -26055.505      135.30958      9024.8467      80897.271    
     28400   296.06071     -25919.998     -26057.116      137.11729      8901.6574      80897.271    
     28500   308.3654      -25915.703     -26058.519      142.81607      9000.4467      80897.271    
     28600   301.57769     -25913.46      -26053.133      139.67242      9218.7217      80897.271    
     28700   304.2257      -25914.087     -26054.986      140.89882      9190.7101      80897.271    
     28800   299.39207     -25919.033     -26057.693      138.66017      8913.7242      80897.271    
     28900   301.65059     -25919.773     -26059.479      139.70618      8802.3127      80897.271    
     29000   299.21359     -25919.383     -26057.961      138.57751      8877.4594      80897.271    
     29100   298.26678     -25918.089     -26056.228      138.13901      9095.7188      80897.271    
     29200   300.73809     -25915.024     -26054.308      139.28357      9044.5146      80897.271    
     29300   309.30265     -25913.139     -26056.389      143.25015      9016.1927      80897.271    
     29400   303.2282      -25916.341     -26056.778      140.43683      9028.4515      80897.271    
     29500   297.62335     -25918.498     -26056.339      137.84101      9030.8265      80897.271    
     29600   300.33323     -25918.905     -26058.001      139.09606      8985.2745      80897.271    
     29700   296.43566     -25919.779     -26057.07       137.29095      8880.9716      80897.271    
     29800   305.13259     -25918.228     -26059.547      141.31883      8947.1755      80897.271    
     29900   304.67534     -25914.653     -26055.76       141.10706      9047.932       80897.271    
     30000   304.3954      -25914.27      -26055.248      140.97741      9083.8134      80897.271    
     30100   297.26234     -25918.806     -26056.48       137.67381      9007.8539      80897.271    
     30200   298.07087     -25920.512     -26058.561      138.04827      8863.0546      80897.271    
     30300   296.43945     -25920.223     -26057.515      137.2927       8885.5184      80897.271    
     30400   301.89877     -25917.427     -26057.248      139.82113      8968.7301      80897.271    
     30500   301.6925      -25914.924     -26054.65       139.72559      9151.7556      80897.271    
     30600   302.85708     -25916.403     -26056.668      140.26495      9159.2346      80897.271    
     30700   300.95977     -25922.196     -26061.582      139.38624      8743.3659      80897.271    
     30800   292.21207     -25922.038     -26057.373      135.33483      8983.0417      80897.271    
     30900   304.15327     -25918.137     -26059.002      140.86527      8896.9649      80897.271    
     31000   301.65819     -25918.111     -26057.82       139.7097       8941.3656      80897.271    
     31100   301.99831     -25918.599     -26058.466      139.86722      8914.9611      80897.271    
     31200   300.51781     -25918.677     -26057.859      139.18155      8881.04        80897.271    
     31300   297.44746     -25918.664     -26056.424      137.75955      9067.7682      80897.271    
     31400   300.43862     -25917.145     -26056.29       139.14487      8982.7479      80897.271    
     31500   305.39015     -25916.755     -26058.193      141.43812      9024.6034      80897.271    
     31600   297.02212     -25919.753     -26057.315      137.56256      8831.4987      80897.271    
     31700   296.94347     -25921.417     -26058.943      137.52613      8823.3449      80897.271    
     31800   295.40717     -25922.928     -26059.742      136.81461      8849.7907      80897.271    
     31900   301.99065     -25920.25      -26060.113      139.86368      8832.56        80897.271    
     32000   300.16852     -25917.038     -26056.057      139.01978      9002.9817      80897.271    
     32100   305.89893     -25915.762     -26057.436      141.67376      8940.9102      80897.271    
     32200   298.58903     -25918.295     -26056.583      138.28826      8877.3758      80897.271    
     32300   295.79365     -25922.931     -26059.924      136.99361      8856.5055      80897.271    
     32400   290.67183     -25924.509     -26059.131      134.62149      8760.9601      80897.271    
     32500   300.66774     -25922.18      -26061.431      139.25099      8811.94        80897.271    
     32600   295.67328     -25920.539     -26057.477      136.93786      9044.5339      80897.271    
     32700   306.18398     -25917.401     -26059.207      141.80577      8914.6331      80897.271    
     32800   297.36893     -25917.544     -26055.267      137.72318      8931.2873      80897.271    
     32900   304.14718     -25915.462     -26056.324      140.86245      9045.8567      80897.271    
     33000   303.19493     -25913.334     -26053.755      140.42143      9165.0878      80897.271    
     33100   298.54541     -25916.857     -26055.125      138.26805      8980.9758      80897.271    
     33200   298.27561     -25921.132     -26059.275      138.1431       8938.2987      80897.271    
     33300   298.54838     -25920.667     -26058.936      138.26943      8902.4432      80897.271    
     33400   299.92042     -25917.631     -26056.536      138.90488      8885.7969      80897.271    
     33500   301.79446     -25917.055     -26056.828      139.77282      9006.6759      80897.271    
     33600   295.16214     -25917.933     -26054.634      136.70113      9009.5089      80897.271    
     33700   302.60168     -25918.16      -26058.307      140.14667      8954.3192      80897.271    
     33800   304.25008     -25919.907     -26060.817      140.91011      8923.9764      80897.271    
     33900   292.78085     -25925.087     -26060.685      135.59826      8732.0441      80897.271    
     34000   291.51559     -25925.302     -26060.314      135.01227      8907.5197      80897.271    
     34100   297.05017     -25920.73      -26058.306      137.57555      8938.7988      80897.271    
     34200   305.2363      -25917.58      -26058.947      141.36687      8895.4171      80897.271    
     34300   298.05214     -25916.924     -26054.963      138.0396       9051.8491      80897.271    
     34400   302.75138     -25916.279     -26056.495      140.216        9010.9693      80897.271    
     34500   299.98536     -25919.638     -26058.573      138.93495      8977.8002      80897.271    
     34600   297.56707     -25923.164     -26060.979      137.81495      8852.0955      80897.271    
     34700   293.16474     -25922.865     -26058.641      135.77605      8884.2423      80897.271    
     34800   306.19292     -25919.256     -26061.066      141.80992      8847.3813      80897.271    
     34900   294.97702     -25919.004     -26055.619      136.61539      9004.8712      80897.271    
     35000   305.63335     -25916.822     -26058.373      141.55075      9021.4747      80897.271    
     35100   299.1039      -25917.661     -26056.188      138.52671      9050.83        80897.271    
     35200   295.3471      -25920.576     -26057.363      136.78679      8973.7847      80897.271    
     35300   298.95506     -25923.48      -26061.938      138.45778      8787.6008      80897.271    
     35400   298.18608     -25923.417     -26061.519      138.10163      8683.5111      80897.271    
     35500   298.20482     -25917.978     -26056.088      138.11031      9094.911       80897.271    
     35600   302.61513     -25916.186     -26056.339      140.1529       8991.5017      80897.271    
     35700   298.72568     -25917.612     -26055.964      138.35154      9001.1601      80897.271    
     35800   303.54332     -25919.837     -26060.419      140.58278      8886.8827      80897.271    
     35900   295.69475     -25922.656     -26059.604      136.9478       8873.1831      80897.271    
     36000   293.99443     -25922.389     -26058.549      136.16032      8858.0446      80897.271    
     36100   303.82945     -25917.457     -26058.173      140.7153       9016.1081      80897.271    
     36200   300.76311     -25915.915     -26055.21       139.29516      8961.3413      80897.271    
     36300   307.8233      -25915.018     -26057.583      142.56501      9015.3451      80897.271    
     36400   297.27654     -25917.935     -26055.616      137.68039      8967.8267      80897.271    
     36500   296.40229     -25921.001     -26058.277      137.27549      8884.7737      80897.271    
     36600   294.37129     -25922.843     -26059.178      136.33485      8813.4095      80897.271    
     36700   298.75376     -25920.883     -26059.247      138.36455      8810.4181      80897.271    
     36800   305.97738     -25914.719     -26056.429      141.71009      8981.4523      80897.271    
     36900   298.59298     -25916.451     -26054.741      138.29009      9111.3887      80897.271    
     37000   296.53537     -25919.217     -26056.554      137.33713      8994.1988      80897.271    
     37100   302.83158     -25920.35      -26060.603      140.25315      8772.6279      80897.271    
     37200   293.72942     -25922.711     -26058.749      136.03758      8826.0411      80897.271    
     37300   295.53635     -25921.758     -26058.632      136.87444      8985.8636      80897.271    
     37400   299.85667     -25916.741     -26055.616      138.87535      8900.1308      80897.271    
     37500   302.36239     -25915.327     -26055.363      140.03585      9008.1121      80897.271    
     37600   303.20104     -25915.992     -26056.416      140.42426      9072.7319      80897.271    
     37700   298.59762     -25920.661     -26058.953      138.29223      8881.7434      80897.271    
     37800   297.60258     -25921.551     -26059.382      137.83139      8892.0857      80897.271    
     37900   297.53767     -25920.358     -26058.159      137.80133      8908.0445      80897.271    
     38000   300.30655     -25918.278     -26057.361      139.08371      9138.1847      80897.271    
     38100   300.66275     -25915.488     -26054.737      139.24867      9035.2111      80897.271    
     38200   308.45107     -25911.386     -26054.242      142.85575      9193.2976      80897.271    
     38300   307.98085     -25911.515     -26054.153      142.63797      9140.807       80897.271    
     38400   301.7033      -25917.597     -26057.328      139.7306       8989.892       80897.271    
     38500   305.67031     -25919.278     -26060.846      141.56787      8940.4651      80897.271    
     38600   294.28625     -25921.471     -26057.766      136.29547      8836.1688      80897.271    
     38700   295.99147     -25920.605     -26057.69       137.08522      8823.0184      80897.271    
     38800   303.91018     -25916.571     -26057.324      140.75269      9090.8361      80897.271    
     38900   302.88732     -25914.487     -26054.766      140.27896      9105.2973      80897.271    
     39000   305.67472     -25915.172     -26056.742      141.56992      9077.8204      80897.271    
     39100   297.22073     -25917.848     -26055.503      137.65454      9090.9073      80897.271    
     39200   306.61632     -25918.518     -26060.524      142.00601      8869.2365      80897.271    
     39300   295.48956     -25920.371     -26057.224      136.85277      8937.078       80897.271    
     39400   300.46316     -25919.265     -26058.421      139.15624      8858.7344      80897.271    
     39500   297.11507     -25918.137     -26055.742      137.60561      9114.7996      80897.271    
     39600   306.11155     -25914.157     -26055.93       141.77223      9150.5017      80897.271    
     39700   303.20551     -25914.55      -26054.977      140.42633      9046.8018      80897.271    
     39800   301.01699     -25917.565     -26056.977      139.41274      8948.1724      80897.271    
     39900   294.65724     -25920.318     -26056.785      136.46729      8994.4222      80897.271    
     40000   299.11948     -25919.333     -26057.867      138.53393      8933.061       80897.271    
     40100   304.8747      -25919.299     -26060.498      141.19939      8943.1494      80897.271    
     40200   297.34103     -25920.076     -26057.786      137.71025      8895.8818      80897.271    
     40300   303.33287     -25916.685     -26057.171      140.48531      9075.6994      80897.271    
     40400   300.2361      -25915.907     -26054.958      139.05108      9112.1288      80897.271    
     40500   297.41837     -25921.184     -26058.93       137.74607      8952.0653      80897.271    
     40600   295.4726      -25924.32      -26061.165      136.84491      8811.9786      80897.271    
     40700   299.87372     -25921.673     -26060.556      138.88324      8935.4567      80897.271    
     40800   299.68919     -25918.807     -26057.605      138.79778      8982.6728      80897.271    
     40900   299.40581     -25917.143     -26055.809      138.66654      9031.8394      80897.271    
     41000   307.60611     -25915.261     -26057.726      142.46441      9061.5436      80897.271    
     41100   302.19347     -25917.906     -26057.863      139.95761      8935.3815      80897.271    
     41200   297.57662     -25922.362     -26060.181      137.81937      8849.3772      80897.271    
     41300   292.46941     -25922.576     -26058.03       135.45402      8860.3696      80897.271    
     41400   302.11495     -25918.729     -26058.651      139.92124      8986.826       80897.271    
     41500   301.42933     -25917.043     -26056.646      139.60371      8979.449       80897.271    
     41600   300.92268     -25916.972     -26056.341      139.36906      9002.5365      80897.271    
     41700   301.90439     -25917.734     -26057.557      139.82373      8930.2049      80897.271    
     41800   293.50901     -25922.678     -26058.613      135.9355       8863.2872      80897.271    
     41900   289.99191     -25924.303     -26058.61       134.30659      8823.1567      80897.271    
     42000   304.14824     -25921.064     -26061.927      140.86294      8786.7069      80897.271    
     42100   299.94866     -25919.229     -26058.147      138.91795      9010.827       80897.271    
     42200   299.69948     -25918.041     -26056.844      138.80255      9019.7963      80897.271    
     42300   298.43926     -25917.861     -26056.08       138.21889      8988.3217      80897.271    
     42400   302.53782     -25916.627     -26056.744      140.11709      9152.6018      80897.271    
     42500   307.36209     -25915.314     -26057.665      142.3514       9088.2039      80897.271    
     42600   294.70802     -25917.475     -26053.965      136.49081      9057.0593      80897.271    
     42700   298.89656     -25919.407     -26057.838      138.43068      8986.8862      80897.271    
     42800   296.89337     -25922.395     -26059.898      137.50293      8716.4155      80897.271    
     42900   301.03431     -25921.085     -26060.505      139.42076      8830.5318      80897.271    
     43000   293.32808     -25919.443     -26055.295      135.8517       9062.619       80897.271    
     43100   298.00159     -25918.445     -26056.461      138.01619      9034.1293      80897.271    
     43200   301.53951     -25918.18      -26057.834      139.65474      8954.8042      80897.271    
     43300   299.53188     -25918.837     -26057.562      138.72492      8981.5054      80897.271    
     43400   300.11893     -25918.941     -26057.938      138.99681      8994.3185      80897.271    
     43500   298.93149     -25918.386     -26056.833      138.44686      8944.7179      80897.271    
     43600   299.53001     -25917.847     -26056.571      138.72406      8884.147       80897.271    
     43700   305.20536     -25916.333     -26057.685      141.35254      8991.0141      80897.271    
     43800   302.337       -25916.01      -26056.034      140.02409      8998.3756      80897.271    
     43900   293.68959     -25919.441     -26055.46       136.01913      8935.0955      80897.271    
     44000   297.84292     -25921.01      -26058.953      137.9427       8817.3894      80897.271    
     44100   301.52862     -25920.713     -26060.363      139.64969      8879.407       80897.271    
     44200   293.16492     -25920.782     -26056.558      135.77614      8910.559       80897.271    
     44300   300.92022     -25916.424     -26055.792      139.36792      9069.3028      80897.271    
     44400   299.88412     -25915.654     -26054.542      138.88806      9128.1258      80897.271    
     44500   307.70484     -25916.893     -26059.403      142.51014      8910.1187      80897.271    
     44600   298.02721     -25920.58      -26058.608      138.02805      8958.0656      80897.271    
     44700   294.38547     -25921.861     -26058.203      136.34142      8959.0085      80897.271    
     44800   299.50865     -25919.334     -26058.048      138.71416      8960.1295      80897.271    
     44900   305.87302     -25913.6       -26055.262      141.66176      9048.9744      80897.271    
     45000   306.89775     -25914.157     -26056.293      142.13635      9081.2676      80897.271    
     45100   301.36936     -25917.664     -26057.24       139.57593      9055.097       80897.271    
     45200   293.31889     -25920.16      -26056.008      135.84745      8912.1531      80897.271    
     45300   299.85084     -25919.779     -26058.652      138.87265      8984.1464      80897.271    
     45400   294.08719     -25919.842     -26056.045      136.20328      9036.1502      80897.271    
     45500   305.075       -25916.077     -26057.369      141.29216      8933.604       80897.271    
     45600   306.49442     -25914.36      -26056.309      141.94955      9071.4552      80897.271    
     45700   299.52747     -25916.324     -26055.046      138.72288      9040.2246      80897.271    
     45800   292.83449     -25921.203     -26056.826      135.6231       8909.4877      80897.271    
     45900   299.60537     -25921.439     -26060.198      138.75896      8818.4667      80897.271    
     46000   306.58444     -25919.289     -26061.281      141.99124      8830.5972      80897.271    
     46100   292.24489     -25918.355     -26053.705      135.35004      9080.301       80897.271    
     46200   304.84302     -25915.141     -26056.325      141.18472      8899.0227      80897.271    
     46300   303.2198      -25915.788     -26056.221      140.43295      8969.0628      80897.271    
     46400   292.81134     -25922.377     -26057.989      135.61238      8965.0952      80897.271    
     46500   296.03873     -25923.51      -26060.617      137.10711      8893.6517      80897.271    
     46600   299.28265     -25921.124     -26059.734      138.60949      8863.4062      80897.271    
     46700   301.46668     -25917.525     -26057.146      139.62101      8892.0064      80897.271    
     46800   301.96989     -25916.476     -26056.33       139.85407      8904.3638      80897.271    
     46900   301.23871     -25917.214     -26056.729      139.51542      9031.9541      80897.271    
     47000   292.67378     -25921.961     -26057.51       135.54867      8961.4961      80897.271    
     47100   305.07084     -25922.562     -26063.853      141.29023      8633.1623      80897.271    
     47200   300.11898     -25920.947     -26059.944      138.99683      8919.3512      80897.271    
     47300   294.44693     -25919.339     -26055.709      136.36988      9058.7506      80897.271    
     47400   299.01821     -25917.649     -26056.136      138.48702      9034.0886      80897.271    
     47500   304.43043     -25917.186     -26058.179      140.99363      8958.2426      80897.271    
     47600   303.65151     -25918.294     -26058.927      140.63289      8954.5662      80897.271    
     47700   300.86598     -25918.423     -26057.766      139.3428       8880.0341      80897.271    
     47800   295.34988     -25919.109     -26055.897      136.78808      9043.8188      80897.271    
     47900   298.28604     -25919.299     -26057.447      138.14793      8935.7965      80897.271    
     48000   301.41705     -25918.783     -26058.381      139.59802      8934.3163      80897.271    
     48100   302.90376     -25915.62      -26055.906      140.28657      8996.2081      80897.271    
     48200   305.93432     -25913.937     -26055.627      141.69015      9105.8446      80897.271    
     48300   303.66131     -25917.131     -26057.769      140.63742      8975.7936      80897.271    
     48400   296.59489     -25919.981     -26057.346      137.36469      8936.3702      80897.271    
     48500   300.54515     -25920.684     -26059.878      139.19421      8893.2017      80897.271    
     48600   294.34561     -25920.313     -26056.636      136.32296      8910.1024      80897.271    
     48700   303.80319     -25917.871     -26058.574      140.70314      9031.1295      80897.271    
     48800   298.73491     -25917.963     -26056.319      138.35582      9024.5912      80897.271    
     48900   302.72891     -25917.762     -26057.967      140.2056       8876.5187      80897.271    
     49000   297.50787     -25919         -26056.788      137.78753      8905.0709      80897.271    
     49100   299.07155     -25919.73      -26058.242      138.51173      8965.7577      80897.271    
     49200   301.39309     -25921.069     -26060.656      139.58692      8820.7351      80897.271    
     49300   298.321       -25921.928     -26060.093      138.16412      8742.0945      80897.271    
     49400   298.71378     -25919.556     -26057.902      138.34603      9014.385       80897.271    
     49500   298.63464     -25916.884     -26055.193      138.30938      8965.4385      80897.271    
     49600   306.48605     -25915.904     -26057.85       141.94567      8943.1529      80897.271    
     49700   299.54228     -25918.166     -26056.896      138.72974      9013.4979      80897.271    
     49800   296.04612     -25923.329     -26060.44       137.11054      8835.422       80897.271    
     49900   294.21254     -25923.87      -26060.131      136.26133      8818.6566      80897.271    
     50000   299.17073     -25920.581     -26059.138      138.55766      8778.8326      80897.271    
     50100   301.51337     -25918.282     -26057.925      139.64263      8975.7078      80897.271    
     50200   302.04642     -25917.743     -26057.632      139.88951      9055.9402      80897.271    
     50300   294.0164      -25918.47      -26054.641      136.17049      9076.3634      80897.271    
     50400   303.24025     -25916.978     -26057.42       140.44242      9052.2587      80897.271    
     50500   305.59637     -25915.076     -26056.609      141.53363      9023.3195      80897.271    
     50600   296.80055     -25916.39      -26053.85       137.45994      9036.5885      80897.271    
     50700   300.20572     -25919.371     -26058.408      139.03701      9093.9315      80897.271    
     50800   295.56777     -25921.871     -26058.76       136.88899      8816.6587      80897.271    
     50900   298.6608      -25920.947     -26059.269      138.32149      8843.7166      80897.271    
     51000   304.22312     -25916.839     -26057.737      140.89762      9054.7367      80897.271    
     51100   303.8407      -25913.836     -26054.556      140.72051      9065.4448      80897.271    
     51200   304.73244     -25915.456     -26056.59       141.13351      8983.6764      80897.271    
     51300   297.61944     -25918.534     -26056.374      137.8392       9018.3574      80897.271    
     51400   295.81991     -25920.233     -26057.239      137.00577      8942.9898      80897.271    
     51500   298.78359     -25919.774     -26058.152      138.37836      8975.9684      80897.271    
     51600   305.41991     -25915.115     -26056.567      141.4519       9038.3607      80897.271    
     51700   307.65763     -25913.24      -26055.728      142.48828      9031.177       80897.271    
     51800   300.72505     -25915.951     -26055.229      139.27753      9114.8858      80897.271    
     51900   303.17159     -25918.244     -26058.655      140.41062      8894.4363      80897.271    
     52000   300.65695     -25918.259     -26057.505      139.24599      9071.2253      80897.271    
     52100   301.05559     -25918.147     -26057.578      139.43061      8995.8864      80897.271    
     52200   296.82357     -25920.396     -26057.867      137.4706       8892.7928      80897.271    
     52300   298.64268     -25922.507     -26060.82       138.3131       8915.5435      80897.271    
     52400   293.49125     -25922.169     -26058.096      135.92727      8891.8665      80897.271    
     52500   300.50957     -25917.541     -26056.719      139.17773      9042.6412      80897.271    
     52600   299.7504      -25917.394     -26056.22       138.82613      8957.0323      80897.271    
     52700   303.51593     -25916.77      -26057.34       140.5701       8984.3324      80897.271    
     52800   303.36337     -25916.774     -26057.274      140.49944      9037.122       80897.271    
     52900   292.72863     -25921.424     -26056.998      135.57407      8967.198       80897.271    
     53000   297.85418     -25921.192     -26059.14       137.94792      8821.5996      80897.271    
     53100   303.66355     -25918.886     -26059.525      140.63846      8865.7801      80897.271    
     53200   300.94768     -25914.771     -26054.151      139.38064      9178.7901      80897.271    
     53300   304.19249     -25911.75      -26052.633      140.88344      9250.0827      80897.271    
     53400   302.78313     -25913.89      -26054.12       140.2307       9092.6331      80897.271    
     53500   306.93423     -25917.213     -26059.366      142.15324      9025.1905      80897.271    
     53600   299.7487      -25919.502     -26058.328      138.82534      8956.9816      80897.271    
     53700   297.06857     -25919.456     -26057.04       137.58407      8953.3666      80897.271    
     53800   297.84009     -25918.796     -26056.738      137.94139      9025.9548      80897.271    
     53900   304.28418     -25916.497     -26057.423      140.9259       9075.4693      80897.271    
     54000   304.65791     -25914.895     -26055.994      141.09899      9176.2032      80897.271    
     54100   297.4145      -25917.398     -26055.142      137.74428      9072.2842      80897.271    
     54200   300.9825      -25921.232     -26060.629      139.39676      8847.647       80897.271    
     54300   290.14992     -25924.027     -26058.406      134.37977      8778.071       80897.271    
     54400   302.57578     -25921.535     -26061.669      140.13468      8883.4431      80897.271    
     54500   295.46538     -25919.419     -26056.261      136.84157      8923.3455      80897.271    
     54600   306.30491     -25916.309     -26058.171      141.86178      9015.6111      80897.271    
     54700   298.80743     -25917.053     -26055.443      138.3894       9056.9355      80897.271    
     54800   293.72338     -25918.684     -26054.718      136.03478      8973.6372      80897.271    
     54900   306.46856     -25919.039     -26060.977      141.93757      8975.8421      80897.271    
     55000   294.94422     -25923.138     -26059.739      136.6002       8953.5304      80897.271    
     55100   297.15946     -25922.894     -26060.52       137.62616      8830.2774      80897.271    
     55200   296.07919     -25919.695     -26056.821      137.12585      8900.8169      80897.271    
     55300   307.72705     -25916.319     -26058.84       142.52043      8901.7871      80897.271    
     55400   300.53451     -25917.097     -26056.286      139.18928      8917.034       80897.271    
     55500   301.03643     -25917.824     -26057.246      139.42174      8847.0182      80897.271    
     55600   296.61104     -25920.116     -26057.488      137.37217      8953.0832      80897.271    
     55700   294.66493     -25923.642     -26060.113      136.47085      8831.8249      80897.271    
     55800   299.42348     -25924.025     -26062.7        138.67472      8754.7879      80897.271    
     55900   298.68549     -25919.41      -26057.743      138.33293      8939.849       80897.271    
     56000   298.31844     -25916.052     -26054.215      138.16293      9099.478       80897.271    
     56100   301.57441     -25915.226     -26054.897      139.6709       9002.9765      80897.271    
     56200   300.85763     -25918.037     -26057.376      139.33893      8900.0485      80897.271    
     56300   307.13573     -25920.46      -26062.706      142.24657      8747.8997      80897.271    
     56400   294.47369     -25922.293     -26058.675      136.38228      8793.3786      80897.271    
     56500   294.87776     -25920.519     -26057.089      136.56942      8918.0622      80897.271    
     56600   299.2416      -25918.946     -26057.537      138.59048      8998.7744      80897.271    
     56700   300.43446     -25918.681     -26057.824      139.14294      8871.1854      80897.271    
     56800   300.51914     -25918.682     -26057.864      139.18216      8910.2311      80897.271    
     56900   302.61795     -25916.924     -26057.078      140.1542       8968.61        80897.271    
     57000   303.72916     -25914.373     -26055.042      140.66885      9178.4913      80897.271    
     57100   299.40535     -25915.097     -26053.763      138.66633      9121.5907      80897.271    
     57200   300.72756     -25919.583     -26058.862      139.27869      9026.3763      80897.271    
     57300   297.53386     -25921.025     -26058.825      137.79956      8887.3835      80897.271    
     57400   299.18832     -25920.003     -26058.569      138.56581      8844.6829      80897.271    
     57500   299.4121      -25917.334     -26056.003      138.66945      9056.2673      80897.271    
     57600   300.65401     -25915.341     -26054.586      139.24463      9027.4806      80897.271    
     57700   301.4903      -25916.426     -26056.058      139.63195      9022.8709      80897.271    
     57800   304.44397     -25919.665     -26060.665      140.9999       8829.5482      80897.271    
     57900   297.14054     -25924.833     -26062.45       137.6174       8939.7486      80897.271    
     58000   292.73108     -25922.707     -26058.282      135.57521      8726.4851      80897.271    
     58100   299.02231     -25918.298     -26056.787      138.48893      9039.2943      80897.271    
     58200   303.55604     -25915.022     -26055.611      140.58867      8992.0742      80897.271    
     58300   301.68121     -25914.647     -26054.367      139.72037      9050.3198      80897.271    
     58400   307.1891      -25917.27      -26059.541      142.27128      8992.5317      80897.271    
     58500   293.71923     -25921.311     -26057.344      136.03286      8862.2856      80897.271    
     58600   294.41008     -25920.856     -26057.208      136.35282      8959.4849      80897.271    
     58700   300.58731     -25918.53      -26057.744      139.21373      9042.2528      80897.271    
     58800   298.56375     -25916.715     -26054.992      138.27655      8995.0487      80897.271    
     58900   317.77348     -25912.246     -26059.419      147.17332      8977.7133      80897.271    
     59000   298.58563     -25914.089     -26052.375      138.28668      9230.3716      80897.271    
     59100   300.44052     -25916.991     -26056.137      139.14575      8993.8167      80897.271    
     59200   298.12803     -25918.219     -26056.294      138.07475      8985.6611      80897.271    
     59300   304.48101     -25917.811     -26058.829      141.01706      8996.6641      80897.271    
     59400   301.2805      -25918.688     -26058.223      139.53478      8928.7128      80897.271    
     59500   292.94234     -25921.816     -26057.489      135.67305      9008.8337      80897.271    
     59600   291.72877     -25923.26      -26058.371      135.111        8944.2875      80897.271    
     59700   299.99345     -25919.074     -26058.013      138.9387       8962.7412      80897.271    
     59800   306.23596     -25915.975     -26057.805      141.82985      8908.4318      80897.271    
     59900   300.58701     -25916.743     -26055.957      139.2136       8994.0359      80897.271    
     60000   299.36954     -25918.615     -26057.265      138.64974      8993.0282      80897.271    
     60100   293.24393     -25922.629     -26058.442      135.81273      8878.2111      80897.271    
     60200   295.02381     -25923.897     -26060.534      136.63706      8859.0174      80897.271    
     60300   300.40661     -25919.733     -26058.863      139.13005      8817.25        80897.271    
     60400   301.69107     -25917.724     -26057.449      139.72493      8891.4045      80897.271    
     60500   297.56659     -25918.295     -26056.11       137.81472      8970.809       80897.271    
     60600   296.12092     -25919.294     -26056.439      137.14518      8868.6381      80897.271    
     60700   300.21607     -25918.82      -26057.861      139.0418       9029.0819      80897.271    
     60800   307.82792     -25916.607     -26059.174      142.56715      8999.0966      80897.271    
     60900   300.17854     -25916.062     -26055.086      139.02442      8901.5333      80897.271    
     61000   301.19794     -25916.434     -26055.931      139.49654      9042.9596      80897.271    
     61100   299.65338     -25920.031     -26058.813      138.7812       8891.5415      80897.271    
     61200   298.99892     -25922.17      -26060.648      138.47809      8826.933       80897.271    
     61300   298.74077     -25920.373     -26058.731      138.35853      8876.6643      80897.271    
     61400   297.18136     -25917.457     -26055.094      137.63631      8931.5209      80897.271    
     61500   299.12963     -25916.719     -26055.258      138.53863      9001.3705      80897.271    
     61600   309.66081     -25915.881     -26059.297      143.41603      8845.7766      80897.271    
     61700   301.6632      -25918.417     -26058.129      139.71202      8906.2374      80897.271    
     61800   294.76438     -25920.051     -26056.568      136.51691      8876.0659      80897.271    
     61900   301.30186     -25919.234     -26058.779      139.54467      8806.2504      80897.271    
     62000   297.71186     -25918.89      -26056.772      137.882        8964.7814      80897.271    
     62100   303.27984     -25917.401     -26057.862      140.46075      8871.3233      80897.271    
     62200   300.71384     -25917.807     -26057.079      139.27234      8958.5164      80897.271    
     62300   301.00247     -25918.017     -26057.423      139.40601      8881.6809      80897.271    
     62400   299.259       -25918.391     -26056.99       138.59854      8946.8038      80897.271    
     62500   296.89714     -25919.94      -26057.445      137.50468      8805.801       80897.271    
     62600   294.33283     -25922.999     -26059.316      136.31704      8868.0088      80897.271    
     62700   293.25575     -25923.325     -26059.143      135.8182       8885.8554      80897.271    
     62800   301.80916     -25918.41      -26058.19       139.77962      8926.6136      80897.271    
     62900   299.79082     -25916.774     -26055.619      138.84485      9057.0732      80897.271    
     63000   300.71123     -25916.671     -26055.942      139.27113      8974.6529      80897.271    
     63100   302.20769     -25918.317     -26058.281      139.9642       8968.4732      80897.271    
     63200   293.24482     -25922.83      -26058.643      135.81314      8969.3951      80897.271    
     63300   300.4502      -25922.144     -26061.295      139.15023      8826.9198      80897.271    
     63400   297.5636      -25920.186     -26057.999      137.81334      8888.9501      80897.271    
     63500   296.82392     -25917.346     -26054.817      137.47076      9058.8855      80897.271    
     63600   304.12843     -25916.884     -26057.738      140.85377      8979.4453      80897.271    
     63700   298.65479     -25918.139     -26056.458      138.31871      8894.4641      80897.271    
     63800   303.42162     -25918.612     -26059.138      140.52641      8940.1637      80897.271    
     63900   285.75007     -25921.84      -26054.182      132.34203      9032.4502      80897.271    
     64000   308.77876     -25918.872     -26061.88       143.00752      8780.9073      80897.271    
     64100   302.73974     -25918.019     -26058.23       140.21061      8990.6455      80897.271    
     64200   296.07375     -25917.572     -26054.695      137.12333      9024.0287      80897.271    
     64300   309.50698     -25911.653     -26054.998      143.34478      9202.5091      80897.271    
     64400   303.14937     -25911.77      -26052.17       140.40033      9113.9834      80897.271    
     64500   309.37292     -25914.755     -26058.037      143.28269      9028.8368      80897.271    
     64600   296.76646     -25917.652     -26055.096      137.44415      9064.4339      80897.271    
     64700   300.06363     -25917.883     -26056.854      138.9712       8963.4833      80897.271    
     64800   297.61863     -25918.75      -26056.589      137.83883      8949.3689      80897.271    
     64900   301.73322     -25919.3       -26059.044      139.74445      8915.4115      80897.271    
     65000   297.47203     -25921.393     -26059.164      137.77093      8845.8087      80897.271    
     65100   299.21204     -25922.126     -26060.702      138.57679      8879.4334      80897.271    
     65200   295.6628      -25919.42      -26056.353      136.933        8998.7434      80897.271    
     65300   303.42014     -25914.837     -26055.363      140.52573      9192.2469      80897.271    
     65400   307.92032     -25915.115     -26057.725      142.60994      9021.2811      80897.271    
     65500   291.45571     -25918.631     -26053.615      134.98453      8908.902       80897.271    
     65600   301.85966     -25918.543     -26058.346      139.80301      8878.4858      80897.271    
     65700   301.9442      -25918.816     -26058.658      139.84216      8892.7566      80897.271    
     65800   295.4021      -25919.306     -26056.118      136.81226      8954.7364      80897.271    
     65900   299.49284     -25919.373     -26058.08       138.70684      8874.6199      80897.271    
     66000   298.50933     -25918.431     -26056.682      138.25134      8873.4156      80897.271    
     66100   302.82733     -25915.814     -26056.065      140.25118      9075.9024      80897.271    
     66200   302.55996     -25915.631     -26055.759      140.12735      9118.5136      80897.271    
     66300   296.02872     -25920.155     -26057.258      137.10248      8999.6452      80897.271    
     66400   296.8603      -25921.238     -26058.726      137.48761      9043.1172      80897.271    
     66500   299.29983     -25920.135     -26058.752      138.61746      8883.8303      80897.271    
     66600   301.96873     -25918.262     -26058.115      139.85353      8988.5075      80897.271    
     66700   305.10533     -25913.214     -26054.52       141.30621      9077.9522      80897.271    
     66800   306.41175     -25911.764     -26053.675      141.91126      9233.6306      80897.271    
     66900   304.50033     -25914.682     -26055.708      141.02601      9128.4301      80897.271    
     67000   303.47131     -25917.648     -26058.197      140.54943      8939.888       80897.271    
     67100   297.89598     -25920.441     -26058.408      137.96727      8843.5111      80897.271    
     67200   294.03383     -25920.613     -26056.791      136.17857      8934.0698      80897.271    
     67300   305.56054     -25917.584     -26059.101      141.51703      9004.7429      80897.271    
     67400   302.04918     -25916.388     -26056.279      139.89079      9044.0102      80897.271    
     67500   308.36701     -25911.436     -26054.253      142.81682      9124.7335      80897.271    
     67600   312.26144     -25909.951     -26054.572      144.62048      9186.6107      80897.271    
     67700   302.07034     -25914.602     -26054.503      139.90058      9082.2174      80897.271    
     67800   297.36545     -25917.981     -26055.702      137.72157      9021.8433      80897.271    
     67900   301.83362     -25919.075     -26058.866      139.79095      8854.8707      80897.271    
     68000   298.65534     -25919.124     -26057.443      138.31897      9046.1354      80897.271    
     68100   303.75649     -25916.597     -26057.278      140.68151      9052.1479      80897.271    
     68200   301.84444     -25915.11      -26054.906      139.79596      9015.9816      80897.271    
     68300   305.31943     -25915.581     -26056.986      141.40537      9045.3417      80897.271    
     68400   295.71863     -25919.957     -26056.916      136.95886      8981.4307      80897.271    
     68500   297.13027     -25922.094     -26059.707      137.61265      8746.1504      80897.271    
     68600   295.99291     -25920.828     -26057.914      137.08589      9036.4929      80897.271    
     68700   300.27345     -25917.554     -26056.622      139.06838      8987.3704      80897.271    
     68800   301.2242      -25917.026     -26056.535      139.5087       8948.0634      80897.271    
     68900   306.73667     -25917.264     -26059.326      142.06175      8961.9193      80897.271    
     69000   299.312       -25920.235     -26058.858      138.62309      8884.4034      80897.271    
     69100   292.51101     -25924.715     -26060.188      135.47329      8782.4967      80897.271    
     69200   291.26309     -25924.527     -26059.423      134.89532      8747.4493      80897.271    
     69300   296.81023     -25922.461     -26059.925      137.46442      8889.22        80897.271    
     69400   299.74203     -25918.773     -26057.595      138.82225      8944.853       80897.271    
     69500   300.53229     -25917.204     -26056.392      139.18825      8969.0899      80897.271    
     69600   300.99489     -25918.187     -26057.59       139.4025       8923.2866      80897.271    
     69700   301.30598     -25920.127     -26059.674      139.54658      8825.675       80897.271    
     69800   289.74258     -25923.535     -26057.726      134.19112      8903.9993      80897.271    
     69900   295.07367     -25922.277     -26058.937      136.66015      8939.8633      80897.271    
     70000   301.03741     -25917.273     -26056.695      139.4222       9034.2313      80897.271    
     70100   299.73264     -25916.106     -26054.924      138.8179       9041.7601      80897.271    
     70200   303.619       -25916.114     -26056.732      140.61783      9047.6309      80897.271    
     70300   296.65409     -25920.291     -26057.683      137.39211      8997.581       80897.271    
     70400   297.15578     -25921.67      -26059.294      137.62446      8788.5918      80897.271    
     70500   296.64934     -25920.211     -26057.601      137.38991      8920.9694      80897.271    
     70600   303.08464     -25918.51      -26058.88       140.37035      8937.1114      80897.271    
     70700   299.65147     -25918.392     -26057.173      138.78031      8955.8285      80897.271    
     70800   302.64288     -25917.5       -26057.666      140.16575      8967.1476      80897.271    
     70900   303.50998     -25917.283     -26057.85       140.56734      8926.205       80897.271    
     71000   295.34467     -25919.007     -26055.793      136.78567      8972.3685      80897.271    
     71100   305.35049     -25919.839     -26061.259      141.41975      8831.7406      80897.271    
     71200   292.93063     -25921.575     -26057.242      135.66763      8857.6674      80897.271    
     71300   300.6194      -25918.46      -26057.689      139.2286       9049.8156      80897.271    
     71400   303.76641     -25916.58      -26057.266      140.6861       9108.9903      80897.271    
     71500   300.65607     -25916.976     -26056.222      139.24558      8883.1897      80897.271    
     71600   294.86809     -25921.722     -26058.287      136.56494      8969.9881      80897.271    
     71700   299.93516     -25922.843     -26061.754      138.9117       8862.2991      80897.271    
     71800   294.37747     -25920.885     -26057.222      136.33772      8874.6267      80897.271    
     71900   302.55409     -25917.353     -26057.478      140.12463      9075.9586      80897.271    
     72000   301.59022     -25916.973     -26056.651      139.67822      8966.0645      80897.271    
     72100   299.81887     -25917.273     -26056.13       138.85784      9052.2462      80897.271    
     72200   296.41977     -25920.615     -26057.898      137.28359      8907.9551      80897.271    
     72300   298.98173     -25923.228     -26061.698      138.47013      8818.5899      80897.271    
     72400   290.64267     -25922.662     -26057.27       134.60798      8959.068       80897.271    
     72500   306.60583     -25917.867     -26059.868      142.00115      8857.6104      80897.271    
     72600   297.59477     -25917.068     -26054.896      137.82777      9156.3284      80897.271    
     72700   300.99171     -25916.664     -26056.065      139.40103      8929.944       80897.271    
     72800   304.45011     -25918.813     -26059.816      141.00275      8813.4165      80897.271    
     72900   295.36432     -25922.762     -26059.557      136.79476      8701.6768      80897.271    
     73000   291.02396     -25922.952     -26057.736      134.78457      8976.5752      80897.271    
     73100   296.24472     -25919.756     -26056.958      137.20251      8989.6736      80897.271    
     73200   306.77156     -25918.003     -26060.081      142.0779       8915.9786      80897.271    
     73300   300.45874     -25919.104     -26058.258      139.15419      8880.4099      80897.271    
     73400   298.44662     -25919.524     -26057.746      138.2223       8979.7537      80897.271    
     73500   299.19457     -25918.35      -26056.918      138.56871      8899.9465      80897.271    
     73600   301.96942     -25916.654     -26056.508      139.85384      8977.8939      80897.271    
     73700   311.40871     -25914.95      -26059.176      144.22555      8985.4728      80897.271    
     73800   298.29559     -25917.703     -26055.855      138.15235      8911.8382      80897.271    
     73900   296.01314     -25921.197     -26058.292      137.09526      8853.2179      80897.271    
     74000   294.53178     -25921.994     -26058.403      136.40918      8913.6792      80897.271    
     74100   301.27527     -25919.554     -26059.086      139.53236      8900.8489      80897.271    
     74200   299.27192     -25917.988     -26056.592      138.60453      8961.1207      80897.271    
     74300   304.03215     -25917.429     -26058.238      140.80918      9069.8523      80897.271    
     74400   297.98823     -25919.193     -26057.203      138.01         8939.2249      80897.271    
     74500   295.73573     -25920.262     -26057.228      136.96678      8900.9889      80897.271    
     74600   300.64868     -25918.723     -26057.965      139.24216      8923.8216      80897.271    
     74700   305.05988     -25915.274     -26056.559      141.28516      8981.2114      80897.271    
     74800   302.58054     -25913.846     -26053.983      140.13688      9143.2746      80897.271    
     74900   300.68053     -25917.496     -26056.753      139.25691      8962.7421      80897.271    
     75000   296.31866     -25921.419     -26058.655      137.23676      8834.6666      80897.271    
     75100   300.70717     -25920.645     -26059.914      139.26925      8834.0135      80897.271    
     75200   303.68439     -25918.819     -26059.467      140.64812      8817.6438      80897.271    
     75300   297.90438     -25916.041     -26054.012      137.97117      8926.8291      80897.271    
     75400   306.80756     -25912.75      -26054.844      142.09458      9119.6679      80897.271    
[...]
    181800   301.82866     -25914.997     -26054.786      139.78865      9059.4197      80897.271    
    181900   296.03891     -25921.467     -26058.574      137.10719      8966.0566      80897.271    
    182000   299.23862     -25921.877     -26060.466      138.5891       8785.1025      80897.271    
    182100   295.94398     -25920.144     -26057.208      137.06323      8938.7806      80897.271    
    182200   300.28565     -25916.665     -26055.739      139.07403      9028.9763      80897.271    
    182300   303.65642     -25915.398     -26056.034      140.63516      9070.716       80897.271    
    182400   296.65678     -25917.661     -26055.054      137.39335      9077.8454      80897.271    
    182500   297.42943     -25922.605     -26060.357      137.7512       8840.2044      80897.271    
    182600   300.30316     -25924.734     -26063.817      139.08214      8698.3528      80897.271    
    182700   291.15669     -25922.717     -26057.563      134.84605      8888.1339      80897.271    
    182800   297.0013      -25919.082     -26056.635      137.55292      8941.2424      80897.271    
    182900   297.79566     -25917.8       -26055.721      137.92081      8936.5507      80897.271    
    183000   306.70026     -25915.913     -26057.958      142.04488      8946.4437      80897.271    
    183100   298.75886     -25915.891     -26054.258      138.36691      9156.967       80897.271    
    183200   298.65268     -25918.73      -26057.047      138.31773      8896.5574      80897.271    
    183300   293.39275     -25922.793     -26058.674      135.88165      8804.5048      80897.271    
    183400   304.47388     -25922.078     -26063.092      141.01376      8685.6493      80897.271    
    183500   296.94789     -25919.741     -26057.269      137.52818      8907.4772      80897.271    
    183600   296.26572     -25916.664     -26053.876      137.21224      9070.8765      80897.271    
    183700   305.09659     -25916.294     -26057.597      141.30216      8950.6504      80897.271    
    183800   298.92848     -25918.853     -26057.299      138.44547      9009.8142      80897.271    
    183900   296.63521     -25920.816     -26058.199      137.38337      8874.6901      80897.271    
    184000   297.8998      -25921.139     -26059.108      137.96905      8789.8         80897.271    
    184100   303.52702     -25916.958     -26057.533      140.57523      8877.7288      80897.271    
    184200   304.50823     -25914.505     -26055.534      141.02967      8969.2526      80897.271    
    184300   301.17588     -25916.187     -26055.673      139.48633      9077.9605      80897.271    
    184400   298.57617     -25919.933     -26058.215      138.2823       8874.9093      80897.271    
    184500   296.50839     -25921.462     -26058.787      137.32463      8863.9304      80897.271    
    184600   301.67782     -25919.774     -26059.492      139.71879      8901.3642      80897.271    
    184700   298.42539     -25918.649     -26056.861      138.21247      8930.9957      80897.271    
    184800   301.3611      -25918.058     -26057.63       139.57211      8923.969       80897.271    
    184900   303.05694     -25918.397     -26058.755      140.35752      8992.507       80897.271    
    185000   292.25627     -25920.665     -26056.02       135.3553       8885.9217      80897.271    
    185100   302.11649     -25919.605     -26059.527      139.92196      8902.5051      80897.271    
    185200   305.97983     -25914.243     -26055.954      141.71122      8966.9087      80897.271    
    185300   303.8924      -25913.318     -26054.062      140.74445      9036.7063      80897.271    
    185400   303.17701     -25916.806     -26057.219      140.41313      8962.6452      80897.271    
    185500   299.66399     -25919.513     -26058.299      138.78611      8847.7755      80897.271    
    185600   299.3406      -25920.005     -26058.641      138.63634      8922.8463      80897.271    
    185700   293.82734     -25919.732     -26055.815      136.08293      8871.6259      80897.271    
    185800   308.43702     -25915.35      -26058.2        142.84924      9049.7747      80897.271    
    185900   305.42745     -25914.696     -26056.151      141.45539      8950.8514      80897.271    
    186000   295.89142     -25918.084     -26055.123      137.03889      9054.9394      80897.271    
    186100   293.69407     -25922.69      -26058.711      136.02121      8786.098       80897.271    
    186200   297.46148     -25921.23      -26058.996      137.76604      8884.0521      80897.271    
    186300   304.09825     -25918.267     -26059.107      140.83979      8990.1257      80897.271    
    186400   295.52924     -25916.818     -26053.689      136.87115      9090.1151      80897.271    
    186500   302.99257     -25915.058     -26055.386      140.32771      9061.5493      80897.271    
    186600   298.26841     -25919.273     -26057.412      138.13976      8919.2088      80897.271    
    186700   298.10308     -25921.573     -26059.636      138.06319      8878.1661      80897.271    
    186800   300.91867     -25920.663     -26060.03       139.3672       8799.9672      80897.271    
    186900   298.92205     -25918.284     -26056.726      138.44249      8837.3873      80897.271    
    187000   295.76641     -25916.429     -26053.41       136.98099      9010.6683      80897.271    
    187100   306.08351     -25915.4       -26057.159      141.75924      9086.1287      80897.271    
    187200   302.14524     -25916.796     -26056.732      139.93528      8924.3449      80897.271    
    187300   297.7532      -25918.366     -26056.267      137.90115      9047.6248      80897.271    
    187400   305.1037      -25918.997     -26060.302      141.30545      8845.7871      80897.271    
    187500   292.15634     -25921.252     -26056.561      135.30902      8925.1495      80897.271    
    187600   299.60484     -25918.533     -26057.292      138.75872      9044.6302      80897.271    
    187700   306.6766      -25914.708     -26056.742      142.03392      8970.378       80897.271    
    187800   302.46493     -25914.679     -26054.763      140.08333      9067.3678      80897.271    
    187900   296.26803     -25917.623     -26054.836      137.21331      9046.2387      80897.271    
    188000   298.56015     -25920.839     -26059.114      138.27488      8878.7125      80897.271    
    188100   296.78688     -25921.119     -26058.573      137.45361      8888.161       80897.271    
    188200   304.53695     -25919.509     -26060.552      141.04297      8970.375       80897.271    
    188300   303.01877     -25918.374     -26058.714      140.33984      8848.3741      80897.271    
    188400   301.53707     -25915.49      -26055.144      139.65361      8982.654       80897.271    
    188500   308.56364     -25910.627     -26053.535      142.90789      9190.6274      80897.271    
    188600   303.71683     -25912.806     -26053.469      140.66314      9116.1289      80897.271    
    188700   304.99349     -25917.19      -26058.444      141.25441      8976.6904      80897.271    
    188800   298.39947     -25919.612     -26057.812      138.20046      8914.9423      80897.271    
    188900   297.21773     -25920.433     -26058.086      137.65315      8947.8756      80897.271    
    189000   297.44462     -25920.368     -26058.127      137.75824      8963.826       80897.271    
    189100   302.87242     -25916.785     -26057.057      140.27206      8877.4469      80897.271    
    189200   307.70735     -25914.43      -26056.942      142.5113       9007.5196      80897.271    
    189300   301.99043     -25916.045     -26055.908      139.86358      8998.4323      80897.271    
    189400   296.61132     -25919.93      -26057.302      137.3723       8992.1387      80897.271    
    189500   297.45192     -25921.973     -26059.735      137.76162      8805.8934      80897.271    
    189600   296.77359     -25921.141     -26058.589      137.44746      8868.5058      80897.271    
    189700   303.12445     -25917.704     -26058.092      140.38879      8958.6876      80897.271    
    189800   302.77092     -25916.385     -26056.61       140.22505      8946.5293      80897.271    
    189900   297.50605     -25917.561     -26055.348      137.78669      9031.6615      80897.271    
    190000   296.80982     -25920.045     -26057.509      137.46423      8900.7044      80897.271    
    190100   298.28194     -25924.304     -26062.45       138.14603      8733.6547      80897.271    
    190200   291.27845     -25925.001     -26059.903      134.90244      8717.8746      80897.271    
    190300   301.76011     -25919.986     -26059.743      139.75691      8949.726       80897.271    
    190400   297.0105      -25918.951     -26056.508      137.55718      8896.6007      80897.271    
    190500   299.63222     -25917.926     -26056.698      138.7714       8914.457       80897.271    
    190600   302.68192     -25916.835     -26057.019      140.18383      9034.7018      80897.271    
    190700   301.71        -25915.996     -26055.73       139.7337       9101.7594      80897.271    
    190800   298.51182     -25917.819     -26056.071      138.2525       8928.2957      80897.271    
    190900   300.95537     -25921.66      -26061.045      139.3842       8793.8788      80897.271    
    191000   294.8683      -25922.264     -26058.829      136.56504      8843.0288      80897.271    
    191100   297.04553     -25920.18      -26057.753      137.5734       8883.8351      80897.271    
    191200   296.80016     -25918.923     -26056.382      137.45976      8888.0539      80897.271    
    191300   303.21513     -25917.681     -26058.112      140.43078      8877.1357      80897.271    
    191400   298.32664     -25917.703     -26055.869      138.16673      8926.6074      80897.271    
    191500   299.48084     -25918.306     -26057.008      138.70129      8848.1075      80897.271    
    191600   297.34431     -25922.66      -26060.372      137.71178      8796.7249      80897.271    
    191700   292.61268     -25925.264     -26060.785      135.52037      8678.4134      80897.271    
    191800   296.28373     -25922.66      -26059.88       137.22058      8748.1786      80897.271    
    191900   294.75816     -25920.021     -26056.535      136.51403      8835.2151      80897.271    
    192000   307.13316     -25917.168     -26059.413      142.24537      8967.2219      80897.271    
    192100   300.38039     -25918.172     -26057.29       139.1179       8951.4789      80897.271    
    192200   297.84436     -25919.036     -26056.98       137.94337      8829.366       80897.271    
    192300   301.33484     -25917.831     -26057.391      139.55995      8923.2832      80897.271    
    192400   302.14724     -25915.244     -26055.18       139.9362       8955.9035      80897.271    
    192500   301.30641     -25913.944     -26053.491      139.54678      9029.8545      80897.271    
    192600   305.13579     -25914.998     -26056.318      141.32032      8896.2081      80897.271    
    192700   297.83359     -25919.368     -26057.306      137.93838      8817.2047      80897.271    
    192800   299.21454     -25920.414     -26058.992      138.57795      8913.2123      80897.271    
    192900   300.1122      -25920.244     -26059.238      138.99369      8817.7941      80897.271    
    193000   304.2735      -25916.643     -26057.564      140.92096      8957.4335      80897.271    
    193100   301.74613     -25913.753     -26053.504      139.75043      9090.986       80897.271    
    193200   301.39237     -25914.087     -26053.674      139.58659      9015.8435      80897.271    
    193300   295.49594     -25918.932     -26055.787      136.85572      9083.1296      80897.271    
    193400   300.01125     -25920.813     -26059.76       138.94694      8740.6         80897.271    
    193500   298.44721     -25920.878     -26059.101      138.22257      8897.7935      80897.271    
    193600   302.20069     -25918.546     -26058.507      139.96096      8819.6216      80897.271    
    193700   301.34477     -25915.807     -26055.372      139.56454      8971.6233      80897.271    
    193800   304.26009     -25915.09      -26056.004      140.91474      8954.8832      80897.271    
    193900   293.15392     -25919.853     -26055.624      135.77104      8942.7732      80897.271    
    194000   297.44905     -25922.52      -26060.28       137.76028      8749.5795      80897.271    
    194100   301.24881     -25922.062     -26061.582      139.5201       8735.2434      80897.271    
    194200   296.89101     -25919.066     -26056.568      137.50184      8966.8404      80897.271    
    194300   301.4511      -25915.716     -26055.33       139.61379      9018.798       80897.271    
    194400   299.813       -25917.273     -26056.128      138.85512      8998.6325      80897.271    
    194500   302.03956     -25918.888     -26058.775      139.88633      8789.9582      80897.271    
    194600   301.58953     -25919.571     -26059.249      139.6779       8889.9387      80897.271    
    194700   291.87497     -25920.766     -26055.944      135.17871      8899.3002      80897.271    
    194800   301.75131     -25919.454     -26059.207      139.75283      8800.6902      80897.271    
    194900   300.04734     -25917.14      -26056.104      138.96366      9156.7526      80897.271    
    195000   300.7517      -25915.105     -26054.395      139.28987      8938.2253      80897.271    
    195100   304.16625     -25915.411     -26056.282      140.87128      9033.1185      80897.271    
    195200   302.1641      -25919.62      -26059.564      139.94401      8839.2036      80897.271    
    195300   289.88698     -25922.978     -26057.236      134.258        8898.6741      80897.271    
    195400   297.00152     -25921.326     -26058.879      137.55301      8930.7093      80897.271    
    195500   303.25568     -25918.675     -26059.124      140.44956      8913.7432      80897.271    
    195600   305.00921     -25917.461     -26058.723      141.26169      8954.2188      80897.271    
    195700   297.18089     -25918.036     -26055.672      137.63609      8950.7424      80897.271    
    195800   295.41742     -25918.246     -26055.065      136.81936      8954.0624      80897.271    
    195900   301.06617     -25917.898     -26057.333      139.43552      8930.0883      80897.271    
    196000   302.86779     -25919.722     -26059.992      140.26992      8786.2156      80897.271    
    196100   303.50308     -25920.191     -26060.756      140.56414      8713.1554      80897.271    
    196200   291.13898     -25920.036     -26054.874      134.83785      8998.0505      80897.271    
    196300   298.32449     -25917.265     -26055.431      138.16574      9047.3888      80897.271    
    196400   308.84622     -25914.838     -26057.877      143.03876      8847.1019      80897.271    
    196500   304.56499     -25916.341     -26057.397      141.05596      8842.8866      80897.271    
    196600   296.61398     -25921.599     -26058.973      137.37353      8819.6122      80897.271    
    196700   291.17445     -25923.903     -26058.757      134.85427      8760.6611      80897.271    
    196800   298.03531     -25921.796     -26059.828      138.0318       8839.3934      80897.271    
    196900   299.15288     -25918.666     -26057.216      138.54939      8865.1878      80897.271    
    197000   308.26297     -25916.351     -26059.12       142.76864      8875.8841      80897.271    
    197100   293.55457     -25917.244     -26053.201      135.9566       8992.1524      80897.271    
    197200   304.0286      -25916.687     -26057.495      140.80753      8843.7741      80897.271    
    197300   297.46665     -25919.478     -26057.247      137.76844      8902.1166      80897.271    
    197400   293.12478     -25924.091     -26059.849      135.75755      8664.7748      80897.271    
    197500   292.33824     -25925.063     -26060.456      135.39327      8589.2975      80897.271    
    197600   300.1663      -25922.457     -26061.475      139.01875      8789.9388      80897.271    
    197700   296.83379     -25920.571     -26058.046      137.47534      8774.087       80897.271    
    197800   301.48367     -25917.46      -26057.089      139.62887      8906.177       80897.271    
    197900   300.9752      -25915.704     -26055.098      139.39338      8928.111       80897.271    
    198000   305.23669     -25915.39      -26056.757      141.36704      8882.4191      80897.271    
    198100   296.46601     -25920.864     -26058.169      137.305        8772.1559      80897.271    
    198200   295.36864     -25922.647     -26059.444      136.79677      8813.8398      80897.271    
    198300   301.3165      -25920.769     -26060.32       139.55145      8816.1491      80897.271    
    198400   296.25852     -25918.198     -26055.407      137.2089       8945.4786      80897.271    
    198500   305.24137     -25916.105     -26057.474      141.36921      8948.3899      80897.271    
    198600   299.27786     -25917.154     -26055.761      138.60728      8967.5142      80897.271    
    198700   299.03126     -25918.001     -26056.494      138.49307      8896.0766      80897.271    
    198800   298.22498     -25919.424     -26057.543      138.11965      8769.1671      80897.271    
    198900   298.41807     -25922.307     -26060.516      138.20908      8856.1304      80897.271    
    199000   292.62374     -25924.723     -26060.248      135.52549      8742.7463      80897.271    
    199100   300.60405     -25921.194     -26060.415      139.22149      8736.7045      80897.271    
    199200   298.16659     -25917.864     -26055.957      138.09261      9054.4834      80897.271    
    199300   298.95192     -25917.181     -26055.638      138.45632      8909.3998      80897.271    
    199400   304.10296     -25916.901     -26057.743      140.84197      8913.2552      80897.271    
    199500   302.35549     -25918.741     -26058.773      140.03265      8859.7527      80897.271    
    199600   292.92866     -25923.387     -26059.054      135.66672      8904.1056      80897.271    
    199700   291.7112      -25923.115     -26058.218      135.10286      8844.1668      80897.271    
    199800   300.04958     -25919.566     -26058.531      138.96469      8903.8046      80897.271    
    199900   308.72527     -25917.556     -26060.539      142.98274      8805.8575      80897.271    
    200000   297.70558     -25918.536     -26056.416      137.87909      8932.0774      80897.271    
Loop time of 11841.7 on 20 procs for 200000 steps with 3584 atoms

Performance: 1.459 ns/day, 16.447 hours/ns, 16.890 timesteps/s, 60.532 katom-step/s
99.9% CPU use with 20 MPI tasks x 1 OpenMP threads

MPI task timing breakdown:
Section |  min time  |  avg time  |  max time  |%varavg| %total
---------------------------------------------------------------
Pair    | 9551.8     | 10716      | 11566      | 681.1 | 90.49
Neigh   | 114.64     | 131.25     | 146.42     |  80.1 |  1.11
Comm    | 92.259     | 927.95     | 2135.9     |2424.2 |  7.84
Output  | 0.3107     | 0.3565     | 0.41565    |   4.8 |  0.00
Modify  | 16.512     | 65.374     | 166.62     | 676.6 |  0.55
Other   |            | 0.8858     |            |       |  0.01

Nlocal:          179.2 ave         193 max         160 min
Histogram: 4 0 0 1 4 2 1 0 0 8
Nghost:         1125.2 ave        1214 max        1081 min
Histogram: 8 0 3 5 0 0 0 0 0 4
Neighs:              0 ave           0 max           0 min
Histogram: 20 0 0 0 0 0 0 0 0 0
FullNghs:      10265.9 ave       11103 max        9179 min
Histogram: 4 0 0 1 4 2 1 0 0 8

Total # of neighbors = 205318
Ave neighs/atom = 57.287388
Neighbor list builds = 200000
Dangerous builds not checked
Total wall time: 3:17:21
