ITEM: TIMESTEP
0
ITEM: NUMBER OF ATOMS
96
ITEM: BOX BOUNDS xy xz yz pp pp pp
-1.9502768608408696e+00 1.1339214512371766e+01 0.0000000000000000e+00
0.0000000000000000e+00 1.1464909705241407e+01 -1.9502768608408696e+00
0.0000000000000000e+00 1.1581352099068955e+01 0.0000000000000000e+00
ITEM: ATOMS id type c_ld[1] c_ld[2] c_ld[3] c_ld[4] c_ld[5] c_ld[6] c_ld[7] c_ld[8] c_ld[9] c_ld[10] c_ld[11] c_ld[12] c_ld[13] c_ld[14] c_ld[15] c_ld[16] c_ld[17] c_ld[18] c_ld[19] c_ld[20] c_ld[21] c_ld[22] c_ld[23] c_ld[24] c_ld[25] c_ld[26] c_ld[27] c_ld[28] c_ld[29] c_ld[30] c_ld[31] c_ld[32] c_ld[33] c_ld[34] c_ld[35] c_ld[36] c_ld[37] c_ld[38] c_ld[39] c_ld[40] c_ld[41] c_ld[42] c_ld[43] c_ld[44] c_ld[45] c_ld[46] c_ld[47] c_ld[48] c_ld[49] c_ld[50] c_ld[51] c_ld[52] c_ld[53] c_ld[54] c_ld[55] c_ld[56] c_ld[57] c_ld[58] c_ld[59] c_ld[60] c_ld[61] c_ld[62] c_ld[63] c_ld[64] c_ld[65] c_ld[66] c_ld[67] c_ld[68] c_ld[69] c_ld[70] c_ld[71] c_ld[72] c_ld[73] c_ld[74] c_ld[75] c_ld[76] c_ld[77] c_ld[78] c_ld[79] c_ld[80] c_ld[81] c_ld[82] c_ld[83] c_ld[84] c_ld[85] c_ld[86] c_ld[87] c_ld[88] c_ld[89] c_ld[90] c_ld[91] c_ld[92] c_ld[93] c_ld[94] c_ld[95] c_ld[96] c_ld[97] c_ld[98] c_ld[99] c_ld[100] c_ld[101] c_ld[102] c_ld[103] c_ld[104] c_ld[105] c_ld[106] c_ld[107] c_ld[108] c_ld[109] c_ld[110] c_ld[111] c_ld[112] c_ld[113] c_ld[114] c_ld[115] c_ld[116] c_ld[117] c_ld[118] c_ld[119] c_ld[120] c_ld[121] c_ld[122] c_ld[123] c_ld[124] c_ld[125] c_ld[126] c_ld[127] c_ld[128] c_ld[129] c_ld[130] c_ld[131] c_ld[132] c_ld[133] c_ld[134] c_ld[135] c_ld[136] c_ld[137] c_ld[138] c_ld[139] c_ld[140] c_ld[141] c_ld[142] c_ld[143] c_ld[144] c_ld[145] c_ld[146] c_ld[147] c_ld[148] c_ld[149] c_ld[150] c_ld[151] c_ld[152] c_ld[153] c_ld[154] c_ld[155] c_ld[156] c_ld[157] c_ld[158] c_ld[159] c_ld[160] c_ld[161] c_ld[162] c_ld[163] c_ld[164] c_ld[165] c_ld[166] c_ld[167] c_ld[168] c_ld[169] c_ld[170] c_ld[171] c_ld[172] c_ld[173] c_ld[174] c_ld[175] c_ld[176] c_ld[177] c_ld[178] c_ld[179] c_ld[180] c_ld[181] c_ld[182] c_ld[183] c_ld[184] c_ld[185] c_ld[186] c_ld[187] c_ld[188] c_ld[189] c_ld[190] c_ld[191] c_ld[192] c_ld[193] c_ld[194] c_ld[195] c_ld[196] c_ld[197] c_ld[198] c_ld[199] c_ld[200] c_ld[201] c_ld[202] c_ld[203] c_ld[204] c_ld[205] c_ld[206] c_ld[207] c_ld[208] c_ld[209] c_ld[210] c_ld[211] c_ld[212] c_ld[213] c_ld[214] c_ld[215] c_ld[216] c_ld[217] c_ld[218] c_ld[219] c_ld[220] c_ld[221] c_ld[222] c_ld[223] c_ld[224] c_ld[225] c_ld[226] c_ld[227] c_ld[228] c_ld[229] c_ld[230] c_ld[231] c_ld[232] c_ld[233] c_ld[234] c_ld[235] c_ld[236] c_ld[237] c_ld[238] c_ld[239] c_ld[240] c_ld[241] c_ld[242] c_ld[243] c_ld[244] c_ld[245] c_ld[246] c_ld[247] c_ld[248] c_ld[249] c_ld[250] c_ld[251] c_ld[252] c_ld[253] c_ld[254] c_ld[255] c_ld[256] c_ld[257] c_ld[258] c_ld[259] c_ld[260] c_ld[261] c_ld[262] c_ld[263] c_ld[264] c_ld[265] c_ld[266] c_ld[267] c_ld[268] c_ld[269] c_ld[270] c_ld[271] c_ld[272] c_ld[273] c_ld[274] c_ld[275] c_ld[276] c_ld[277] c_ld[278] c_ld[279] c_ld[280] c_ld[281] c_ld[282] c_ld[283] c_ld[284] c_ld[285] c_ld[286] c_ld[287] c_ld[288] c_ld[289] c_ld[290] c_ld[291] c_ld[292] c_ld[293] c_ld[294] c_ld[295] c_ld[296] c_ld[297] c_ld[298] c_ld[299] c_ld[300] c_ld[301] c_ld[302] c_ld[303] c_ld[304] c_ld[305] c_ld[306] c_ld[307] c_ld[308] c_ld[309] c_ld[310] c_ld[311] c_ld[312] c_ld[313] c_ld[314] c_ld[315] c_ld[316] c_ld[317] c_ld[318] c_ld[319] c_ld[320] c_ld[321] c_ld[322] c_ld[323] c_ld[324] c_ld[325] c_ld[326] c_ld[327] c_ld[328] c_ld[329] c_ld[330] c_ld[331] c_ld[332] c_ld[333] c_ld[334] c_ld[335] c_ld[336] c_ld[337] c_ld[338] c_ld[339] c_ld[340] c_ld[341] c_ld[342] c_ld[343] c_ld[344] c_ld[345] c_ld[346] c_ld[347] c_ld[348] c_ld[349] c_ld[350] c_ld[351] c_ld[352] c_ld[353] c_ld[354] c_ld[355] c_ld[356] c_ld[357] c_ld[358] c_ld[359] c_ld[360] c_ld[361] c_ld[362] c_ld[363] c_ld[364] c_ld[365] c_ld[366] c_ld[367] c_ld[368] c_ld[369] c_ld[370] c_ld[371] c_ld[372] c_ld[373] c_ld[374] c_ld[375] c_ld[376] c_ld[377] c_ld[378] c_ld[379] c_ld[380] c_ld[381] c_ld[382] c_ld[383] c_ld[384] c_ld[385] c_ld[386] c_ld[387] c_ld[388] c_ld[389] c_ld[390] c_ld[391] c_ld[392] c_ld[393] c_ld[394] c_ld[395] c_ld[396] c_ld[397] c_ld[398] c_ld[399] c_ld[400] c_ld[401] c_ld[402] c_ld[403] c_ld[404] c_ld[405] c_ld[406] c_ld[407] c_ld[408] c_ld[409] c_ld[410] c_ld[411] c_ld[412] c_ld[413] c_ld[414] c_ld[415] c_ld[416] c_ld[417] c_ld[418] c_ld[419] c_ld[420] c_ld[421] c_ld[422] c_ld[423] c_ld[424] c_ld[425] c_ld[426] c_ld[427] c_ld[428] c_ld[429] c_ld[430] c_ld[431] c_ld[432] c_ld[433] c_ld[434] c_ld[435] c_ld[436] c_ld[437] c_ld[438] c_ld[439] c_ld[440] c_ld[441] c_ld[442] c_ld[443] c_ld[444] c_ld[445] c_ld[446] c_ld[447] c_ld[448] c_ld[449] c_ld[450] c_ld[451] c_ld[452] c_ld[453] c_ld[454] c_ld[455] c_ld[456] c_ld[457] c_ld[458] c_ld[459] c_ld[460] c_ld[461] c_ld[462] c_ld[463] c_ld[464] c_ld[465] c_ld[466] c_ld[467] c_ld[468] c_ld[469] c_ld[470] c_ld[471] c_ld[472] c_ld[473] c_ld[474] c_ld[475] c_ld[476] c_ld[477] c_ld[478] c_ld[479] c_ld[480] c_ld[481] c_ld[482] c_ld[483] c_ld[484] c_ld[485] c_ld[486] c_ld[487] c_ld[488] c_ld[489] c_ld[490] c_ld[491] c_ld[492] c_ld[493] c_ld[494] c_ld[495] c_ld[496] c_ld[497] c_ld[498] c_ld[499] c_ld[500] c_ld[501] c_ld[502] c_ld[503] c_ld[504] c_ld[505] c_ld[506] c_ld[507] c_ld[508] c_ld[509] c_ld[510] c_ld[511] c_ld[512] c_ld[513] c_ld[514] c_ld[515] c_ld[516] c_ld[517] c_ld[518] c_ld[519] c_ld[520] c_ld[521] c_ld[522] c_ld[523] c_ld[524] c_ld[525] c_ld[526] c_ld[527] c_ld[528] c_ld[529] c_ld[530] c_ld[531] c_ld[532] c_ld[533] c_ld[534] c_ld[535] c_ld[536] c_ld[537] c_ld[538] c_ld[539] c_ld[540] c_ld[541] c_ld[542] c_ld[543] c_ld[544] c_ld[545] c_ld[546] c_ld[547] c_ld[548] c_ld[549] c_ld[550] c_ld[551] c_ld[552] c_ld[553] c_ld[554] c_ld[555] c_ld[556] c_ld[557] c_ld[558] c_ld[559] c_ld[560]
1 1 0.434081 1.29285 -2.17498 3.48373 -5.36315 2.28939 -4.58181 1.064 1.29985 3.53993 -4.73197 3.27373 -4.11987 2.4748 -9.32621 5.41401 0.188427 0.00828284 0.0650975 0.0120133 0.0426964 1.67147 0.0749001 0.577282 0.108696 0.379041 4.73053 0.250956 1.64532 0.343629 1.0875 12.1364 0.265009 4.09808 0.547701 2.66439 28.7633 0.53697 10.3932 0.705388 7.11825 5.2413 0.448059 2.164 0.345351 1.59863 0.564239 -0.0194612 0.181812 -0.00146997 0.102959 4.5766 -0.145665 1.48439 -0.00713331 0.845667 10.2919 -0.216152 3.40195 0.0350731 1.97911 11.4048 0.591451 3.9663 0.341131 2.52993 22.0955 -1.42565 6.98503 -1.1779 4.1712 5.66577 -0.492447 1.84219 -0.319904 0.991811 1.6896 0.149495 0.610096 0.142709 0.414133 12.5311 0.876374 4.48996 0.871714 2.99431 22.3915 0.622677 8.05885 0.835281 5.18333 10.7173 2.07892 5.04081 2.02493 3.93796 16.9733 4.50102 8.36355 3.63222 6.0212 6.12462 1.64997 2.50963 1.20722 1.87464 0.0817926 0.00359543 0.0282576 0.00145519 2.16096 0.0968347 0.746341 0.0391679 -10.2888 -0.545823 -3.57854 -0.227146 42.2797 0.92322 14.2766 0.332364 0.244926 0.0107664 0.0846168 -0.00308811 5.91687 0.265141 2.04354 -0.0695359 -22.3847 -1.18751 -7.7856 0.187265 39.7312 0.86757 13.416 0.711032 0.733424 -0.0252966 0.236328 0.0212301 16.2008 -0.515644 5.25465 0.374883 -48.701 1.02283 -16.0979 -0.454042 37.3363 1.93625 12.9846 2.37259 2.19622 0.19432 0.793031 0.083445 44.3591 3.1023 15.8941 1.31972 -105.956 -2.94649 -38.1342 -1.27746 35.0857 6.80584 16.5023 1.04566 0.0355046 0.00156071 0.0122661 0.314949 0.0141132 0.108775 0.891357 0.0472868 0.310022 2.28681 0.0499349 0.772188 0.106318 -0.00366701 0.0342582 0.862354 -0.0274472 0.2797 1.93927 -0.0407289 0.641018 2.14897 0.111445 0.747358 0.318366 0.0281688 0.114958 2.36119 0.165132 0.846029 4.21916 0.117329 1.5185 2.01943 0.391725 0.949823 6.86054e-05 0.0138445 0.000620385 0.0391822 0.00207863 0.100523 0.00219503 -0.000161194 0.0379072 -0.00120652 0.0852463 -0.00179036 0.0944641 0.00489889 0.00123824 0.103793 0.00725887 0.185465 0.00515753 0.0887699 0.0172194 0.108808 0.307945 0.790046 0.297925 0.669978 0.742424 0.815742 1.45763 0.697672 2.7938 0.125193 0.964908 7.90691 0.419464 2.7501 7.64963 -0.243475 2.48111 17.2026 -0.361291 5.68624 20.9453 1.46483 7.50482 37.4266 1.04078 13.4701 0.00561002 0.354317 0.0187966 -0.0109103 0.770865 -0.0161898 0.0656405 1.67713 0.0466385 2.73085 5.94134 12.9262 0.318366 -0.0109808 0.102585 2.5823 -0.0821901 0.837553 5.8071 -0.121962 1.91951 6.43503 0.33372 2.23794 0.953339 0.0843507 0.34424 7.07053 0.494485 2.53341 12.6342 0.351339 4.54712 6.04714 1.17301 2.84422 0.000378738 -0.0890661 0.00283482 -0.200293 0.00420658 -0.221951 -0.0115103 -0.00290934 -0.24387 -0.0170553 -0.435765 -0.012118 -0.208572 -0.0404583 0.832081 1.87119 2.07353 2.2783 4.07104 1.94854 20.9453 -0.666652 6.79348 47.102 -0.989243 15.5694 57.3498 4.01082 20.5488 102.477 2.84974 36.8821 0.0212184 -1.49917 0.0314859 -0.127657 -3.26166 -0.0907024 15.2773 33.2378 2.85475 0.252586 1.03082 21.1725 1.48072 7.58624 37.8327 1.05207 13.6162 18.108 3.51255 8.51695 0.0223486 1.87333 0.131013 3.34741 0.0930868 1.60218 0.310788 7.64517 13.661 6.5386 157.028 10.9819 56.2641 280.59 7.80281 100.986 0.768032 19.6233 0.545698 100.537 0.0154119 0.000677475 0.00532449 0.000274196 0.407182 0.0182462 0.140631 0.00738029 -1.93868 -0.102848 -0.674292 -0.0428003 0.0461506 0.00202868 0.0159441 -0.000581883 1.1149 0.0499596 0.385057 -0.0131024 -4.21787 -0.22376 -1.46702 0.0352857 0.138197 -0.00476655 0.0445304 0.00400032 3.05267 -0.0971612 0.990116 0.070638 -9.17657 0.192728 -3.03328 -0.0855537 0.413827 0.0366151 0.149428 0.0157233 8.35844 0.584557 2.99488 0.24867 -19.9649 -0.555197 -7.1855 -0.240707 2.97803e-05 0.0178989 0.000802066 -0.0852203 -0.00452097 8.91765e-05 0.0490084 0.00219612 -0.185409 -0.00983599 -0.000209527 0.134189 -0.004271 -0.403383 0.0084719 0.00160952 0.367419 0.0256959 -0.877615 -0.0244053 0.140673 -0.669774 0.385173 -1.45719 1.05463 -3.17031 2.88767 -6.89746 0.161856 1.24748 0.0654678 0.443174 3.4157 -0.116227 -0.861882 8.78296 0.626605 5.18539 26.5665 2.20587 0.138197 0.00607483 0.0477441 -0.00174243 3.33853 0.149603 1.15304 -0.0392349 -12.6303 -0.670042 -4.39294 0.105662 0.413827 -0.0142733 0.133345 0.0119789 9.14114 -0.290947 2.96488 0.211524 -27.479 0.577119 -9.08307 -0.256189 1.23919 0.109643 0.447459 0.0470829 25.0291 1.75044 8.96809 0.744638 -59.7844 -1.66252 -21.5168 -0.720791 -0.000209527 -0.115149 -0.00515995 0.435633 0.0231105 0.000492301 -0.315287 0.0100351 0.947779 -0.0199054 -0.0037817 -0.863281 -0.0603745 2.06203 0.0573421 1.07576 -4.0698 2.94551 -8.85443 8.06502 -19.264 1.21344 9.35246 -0.318238 -2.3599 24.0484 1.71569 14.198 72.7411 6.03983 1.23919 -0.0427411 0.399299 0.0358704 27.3729 -0.871233 8.87825 0.633403 -82.2852 1.72817 -27.199 -0.76715 3.71073 0.328323 1.33991 0.140989 74.9492 5.24165 26.8547 2.2298 -179.023 -4.97838 -64.4316 -2.15839 -0.0037817 2.42194 -0.0770861 -7.28054 0.152907 0.0290498 6.63145 0.463777 -15.8398 -0.440484 9.88407 -29.7123 27.0633 -64.6433 -6.46158 65.8464 4.69769 38.8752 199.171 16.5375
2 1 0.286547 0.856224 -1.42818 2.49804 -4.55903 2.08527 -3.76627 0.320023 1.4622 3.98664 -5.2984 3.54671 -4.67142 2.84331 -7.65566 2.16922 0.0821091 0.00447982 0.0286913 0.00539214 0.01992 0.733119 0.0427127 0.256961 0.0502159 0.179081 2.03969 0.131046 0.719745 0.147208 0.504709 6.2402 0.358517 2.18807 0.429677 1.52593 20.7848 0.430658 7.09894 0.944248 4.76392 4.34835 0.0676375 1.50518 0.191637 1.00174 0.418988 -0.0110378 0.142342 -0.00603186 0.0854129 3.41346 -0.0840767 1.15516 -0.0473554 0.695204 7.56706 -0.116338 2.52104 -0.0752 1.53245 8.85982 0.154581 2.78697 -0.0221513 1.81004 21.2972 0.0432306 6.99388 -0.256003 4.31504 5.92907 0.103142 2.03529 0.0256724 1.19079 2.13802 0.0898249 0.80962 0.128317 0.530055 15.8933 0.503828 5.91299 0.80655 3.83014 28.0731 0.315332 10.0083 0.848197 6.34217 12.5791 2.80285 4.88355 2.00552 3.73503 21.8222 0.221275 9.52359 0.541818 7.41371 8.08441 0.784234 3.58784 0.621834 2.57356 0.0235281 0.00128368 0.0082214 0.000433268 0.627714 0.0365716 0.220016 0.0124104 -2.91303 -0.187156 -1.02792 -0.0651793 15.5883 0.895589 5.46589 0.296406 0.12006 0.00655038 0.0419523 -0.0011406 2.92268 0.17028 1.02441 -0.025834 -10.8071 -0.694332 -3.8135 0.0542242 22.1322 1.27155 7.76045 0.192663 0.612644 -0.0161394 0.208132 0.00743537 13.6083 -0.335184 4.60519 0.124253 -40.0933 0.616408 -13.3575 -0.153016 31.4232 0.548253 9.88458 2.27332 3.12621 0.131342 1.18383 0.0549687 63.3611 2.00858 23.573 0.829098 -148.743 -1.67076 -53.028 -0.622008 44.6146 9.94089 17.3205 2.45228 0.00674191 0.000367834 0.00235582 0.0601957 0.0035071 0.0210988 0.167477 0.01076 0.0590976 0.512377 0.0294375 0.179661 0.0344028 -0.000906302 0.0116876 0.280276 -0.00690347 0.0948488 0.621324 -0.00955244 0.207001 0.727472 0.0126925 0.228836 0.175551 0.00737545 0.0664772 1.30499 0.0413689 0.485511 2.30506 0.0258916 0.821772 1.03286 0.23014 0.400984 2.00687e-05 0.00328424 0.000191345 0.00913743 0.00058706 0.0279549 0.00160609 -4.94472e-05 0.0152917 -0.000376648 0.033899 -0.000521175 0.0396903 0.000692493 0.000402399 0.0711992 0.00225706 0.125762 0.00141263 0.0563522 0.0125563 0.0210341 0.0585213 0.179039 0.0979365 0.217109 0.254199 0.456 0.805453 0.360912 0.537463 0.0313135 0.188383 1.49533 0.096072 0.527659 2.50247 -0.0616383 0.846866 5.54755 -0.0852899 1.84822 11.6517 0.369366 4.33493 20.5809 0.231176 7.33727 0.00182437 0.0871206 0.00559731 -0.00359114 0.323209 -0.00496913 0.0215199 1.19908 0.0134687 0.52412 1.94444 7.21369 0.175551 -0.0046247 0.0596397 1.4302 -0.0352272 0.483997 3.17051 -0.0487444 1.05629 3.71216 0.0647675 1.16771 0.895807 0.0376356 0.339221 6.65912 0.211098 2.47747 11.7623 0.13212 4.19336 5.27051 1.17436 2.04615 0.000121833 -0.037677 0.00092802 -0.0835235 0.00128412 -0.0977927 -0.00170623 -0.000991468 -0.175427 -0.00556115 -0.309865 -0.00348056 -0.138846 -0.0309372 0.485879 1.07711 1.26113 2.26229 3.99598 1.79054 11.6517 -0.286993 3.94308 25.8298 -0.397116 8.60548 54.2513 1.7198 20.1838 95.8264 1.07637 34.1629 0.0070689 -0.636214 0.00978136 -0.0423602 -2.36029 -0.0265121 8.74113 32.4288 4.57115 0.192048 1.73099 33.9803 1.0772 12.6421 60.0209 0.674187 21.398 26.8945 5.99256 10.4412 0.00806852 1.42762 0.0452564 2.52166 0.0283247 1.12992 0.251766 12.8676 22.7285 10.1843 252.598 8.00751 93.9772 446.175 5.01167 159.065 0.253843 14.144 0.158873 165.996 0.00193187 0.000105402 0.000675052 3.55753e-05 0.051541 0.00300286 0.0180653 0.00101901 -0.239187 -0.0153672 -0.0844019 -0.00535182 0.009858 0.000537846 0.00344467 -9.36534e-05 0.239979 0.0139816 0.0841136 -0.00212121 -0.887361 -0.057011 -0.313123 0.0044523 0.0503036 -0.00132519 0.0170896 0.000610512 1.11736 -0.0275217 0.378128 0.0102023 -3.29203 0.0506127 -1.09677 -0.012564 0.256691 0.0107844 0.0972029 0.00451343 5.20252 0.164923 1.93556 0.0680765 -12.2131 -0.137184 -4.35408 -0.0510725 5.75064e-06 0.00281204 0.000163834 -0.0130499 -0.000838425 2.93445e-05 0.0130931 0.000762824 -0.0484138 -0.00311048 -7.23016e-05 0.0609624 -0.00150156 -0.179611 0.00276139 0.000588387 0.283846 0.00899809 -0.666339 -0.00748467 0.0180099 -0.0835787 0.0838556 -0.310069 0.390438 -1.15033 1.81791 -4.26762 0.0268113 0.161298 0.00909829 0.124836 0.751016 -0.0189394 -0.24573 3.37616 0.0910921 1.47253 17.2818 0.607828 0.0503036 0.00274453 0.0175775 -0.000477897 1.22457 0.0713455 0.429217 -0.0108241 -4.52805 -0.290917 -1.59781 0.0227193 0.256691 -0.00676223 0.087205 0.00311533 5.7017 -0.140438 1.92952 0.0520605 -16.7986 0.258268 -5.59664 -0.0641121 1.30985 0.0550307 0.496009 0.0230312 26.5476 0.841574 9.87681 0.347382 -62.3214 -0.700027 -22.2181 -0.260614 -7.23016e-05 -0.0322599 -0.00187952 0.119286 0.00766389 0.000178143 -0.150205 0.00369969 0.442541 -0.00680377 -0.00144972 -0.699366 -0.0221703 1.64179 0.0184414 0.416021 -1.5383 1.93703 -5.70697 9.01895 -21.1723 0.581245 3.49679 -0.0881833 -1.14414 15.7196 0.424132 6.85622 80.4655 2.83009 1.30985 -0.0345065 0.444992 0.015897 29.0948 -0.716632 9.84601 0.265655 -85.7205 1.31789 -28.5587 -0.327153 6.68392 0.280812 2.53105 0.117524 135.468 4.2944 50.3996 1.77263 -318.015 -3.57211 -113.375 -1.32987 -0.00144972 1.22236 -0.0301079 -3.60138 0.0553688 0.0117978 5.69141 0.180421 -13.3608 -0.150075 11.0175 -32.4604 51.2984 -120.425 -5.32719 73.1919 1.97479 31.9231 374.654 13.1771
3 1 0.384768 1.14778 -1.93358 3.21347 -5.40793 2.42318 -5.83663 2.57015 1.46784 4.00745 -5.41397 3.82427 -4.35024 2.588 -10.5295 5.32281 0.148047 0.00627792 0.0543954 0.00714294 0.0358067 1.3174 0.0581758 0.487505 0.0659486 0.32201 3.73875 0.184402 1.40593 0.207456 0.936269 10.3264 0.363955 3.78813 0.429645 2.49325 29.2457 0.209415 9.97457 0.396746 6.39982 5.87182 0.0722718 2.09455 0.119627 1.39036 0.564779 0.000940253 0.185748 -0.00330687 0.11372 4.59968 -0.00953043 1.51961 -0.0348128 0.928798 10.4684 -0.185487 3.53679 -0.162345 2.15824 12.2892 -0.661318 4.36102 -0.397208 2.56735 23.5258 -0.749396 7.82663 -0.533115 4.11376 6.27119 -0.259901 2.03844 -0.217051 1.07954 2.15456 0.0423095 0.848992 0.0773202 0.589888 16.0597 0.176402 6.23778 0.42031 4.28746 29.3111 0.209991 11.1825 0.381787 7.52036 14.6251 4.56916 6.40681 3.1659 4.48794 18.9246 5.48409 7.55761 4.15661 6.50669 6.69773 1.3364 3.47304 0.883171 2.73247 0.0569636 0.00241554 0.0209296 0.000933009 1.51209 0.0667731 0.559548 0.0258382 -7.22919 -0.356556 -2.71848 -0.142938 33.1836 1.16956 12.1731 0.412415 0.217309 0.009215 0.0798438 -0.000451372 5.27942 0.233137 1.95365 -0.0156139 -20.2415 -0.998345 -7.61165 0.131742 39.491 1.39186 14.4868 -0.422803 0.829006 0.00138014 0.272649 0.00578801 18.433 -0.0381928 6.08976 0.0787612 -56.6754 1.00422 -19.1481 -0.134954 46.9972 -2.52906 16.6777 4.53468 3.16255 0.0621037 1.24619 0.0231847 64.3585 0.706924 24.9976 0.230853 -158.689 -1.13689 -60.5415 -0.557122 55.9302 17.4737 24.5014 3.06891 0.0219178 0.000929424 0.00805305 0.195036 0.00861273 0.0721734 0.553509 0.0273 0.208143 1.52879 0.0538823 0.56082 0.0836135 0.000139201 0.0274993 0.680966 -0.00141095 0.224973 1.54981 -0.0274608 0.52361 1.81937 -0.0979058 0.645634 0.318975 0.00626377 0.12569 2.37758 0.0261157 0.923481 4.3394 0.0310885 1.65552 2.16519 0.676449 0.948505 3.94123e-05 0.00827053 0.000365223 0.0234716 0.00115766 0.0648284 0.00228488 5.90284e-06 0.0288764 -5.98313e-05 0.0657196 -0.00116448 0.0771506 -0.0041517 0.000265616 0.100821 0.00110744 0.184013 0.00131831 0.091815 0.0286848 0.0716605 0.203371 0.561709 0.250201 0.569431 0.668476 0.873573 1.59439 0.795536 1.73554 0.0766408 0.642239 4.92543 0.242931 1.85217 6.05961 -0.0125554 2.00193 13.791 -0.244361 4.65937 21.157 0.232392 8.21765 38.6144 0.276643 14.7318 0.00338443 0.217505 0.0107277 -0.000554441 0.609006 -0.0107909 0.0102623 1.7052 0.0122164 1.82266 5.10338 14.2893 0.318975 0.000531035 0.104906 2.5978 -0.00538258 0.858243 5.91231 -0.104759 1.9975 6.94068 -0.373498 2.46301 1.21685 0.0238955 0.479493 9.07017 0.0996282 3.52296 16.5543 0.118599 6.31561 8.25992 2.58057 3.61843 8.84076e-07 0.00432486 -8.96102e-06 0.00984292 -0.000174405 0.011555 -0.000621806 3.97816e-05 0.0151002 0.000165863 0.0275598 0.000197445 0.0137513 0.00429617 0.85438 1.94448 2.28269 2.98305 5.44447 2.71657 21.157 -0.0438369 6.98971 48.1511 -0.853182 16.2681 73.8694 0.811393 28.6918 134.821 0.965892 51.4357 9.08291e-05 -0.099768 0.00176777 -0.00168119 -0.279347 -0.00200131 15.9078 44.5414 4.64213 0.0911584 1.82921 34.6016 0.380069 13.4397 63.1525 0.452439 24.0933 31.5106 9.84454 13.8039 0.00179009 0.679477 0.00746349 1.24014 0.00888463 0.618779 0.193319 13.6346 24.8849 12.4166 257.914 2.83296 100.177 470.727 3.3724 179.587 0.0311177 5.17054 0.0370429 182.836 0.00843326 0.000357613 0.00309856 0.000138129 0.223859 0.00988552 0.0828392 0.00382526 -1.07026 -0.0527869 -0.402461 -0.0211615 0.0321718 0.00136425 0.0118206 -6.6824e-05 0.7816 0.0345151 0.289231 -0.00231158 -2.99668 -0.147802 -1.12688 0.0195039 0.122731 0.000204325 0.0403647 0.000856894 2.72894 -0.0056543 0.901568 0.0116603 -8.3906 0.148672 -2.83481 -0.0199794 0.468205 0.00919423 0.184494 0.00343241 9.52805 0.104658 3.70081 0.034177 -23.4934 -0.168312 -8.96295 -0.0824799 1.51646e-05 0.00949276 0.000419196 -0.0453843 -0.00223843 5.7851e-05 0.0331438 0.00146362 -0.127074 -0.00626753 8.66443e-06 0.115721 -0.000239771 -0.355804 0.00630444 0.000389882 0.404037 0.00443801 -0.996239 -0.00713729 0.0822505 -0.393234 0.287176 -1.10104 1.00267 -3.08288 3.5008 -8.63196 0.0879668 0.737149 0.0340393 0.307135 2.57374 -0.0205698 -0.0503151 8.02266 0.10376 0.931301 32.9318 0.304126 0.122731 0.00520444 0.0450941 -0.000254925 2.9817 0.131671 1.10338 -0.0088184 -11.432 -0.563844 -4.2989 0.0744051 0.468205 0.000779476 0.153986 0.00326894 10.4106 -0.0215705 3.43937 0.0444826 -32.0091 0.567164 -10.8144 -0.0762189 1.78614 0.0350748 0.70382 0.0130942 36.3483 0.399256 14.1181 0.130381 -89.6243 -0.64209 -34.1925 -0.31465 8.66443e-06 0.00496399 0.000219208 -0.0190321 -0.000938697 1.29768e-06 0.0173317 -3.59109e-05 -0.0532892 0.000944224 5.83932e-05 0.0605133 0.000664687 -0.149208 -0.00106896 0.980641 -3.75981 3.42389 -10.5273 11.9544 -29.4762 1.07235 8.98617 -0.0718189 -0.175674 28.011 0.362276 3.25162 114.981 1.06185 1.78614 0.0029736 0.587438 0.0124706 39.715 -0.0822886 13.1208 0.169696 -122.111 2.16366 -41.2557 -0.290766 6.81392 0.133806 2.68499 0.0499528 138.664 1.52311 53.8589 0.497387 -341.906 -2.44949 -130.44 -1.20035 5.83932e-05 0.779891 -0.00161592 -2.39791 0.0424882 0.00262757 2.72297 0.0299096 -6.71406 -0.0481011 15.6495 -48.117 54.6399 -134.726 -0.613364 97.7997 1.26488 11.353 401.454 3.70743
4 1 0.411576 1.23162 -2.10123 3.36047 -4.80641 1.90332 -3.58468 1.79371 1.86565 4.93548 -5.89096 2.26066 -2.62969 2.29145 -8.2323 3.92795 0.169395 0.0121733 0.0587688 0.00875706 0.0409955 1.51689 0.11501 0.526807 0.0823691 0.368368 4.41518 0.387324 1.53846 0.273693 1.08359 11.2928 0.649836 3.90865 0.488038 2.70844 23.1016 0.14504 8.40358 0.462538 5.6344 3.62262 0.366143 1.4783 0.345493 1.01686 0.767859 -0.016306 0.250629 -0.00645443 0.146585 6.07863 -0.121327 1.97713 -0.0489131 1.15666 12.3783 -0.124546 3.96246 -0.0450563 2.32291 7.59689 -0.032668 2.25852 -0.091772 1.26004 12.6394 0.174572 3.47221 -0.0975557 1.61443 4.36135 0.416192 1.40445 0.157365 0.815503 3.48067 0.0903899 1.19057 0.175761 0.768976 24.3589 0.487153 8.32103 1.01581 5.31773 34.7034 0.46166 12.468 0.728274 7.89353 5.11058 2.40727 5.9417 2.48869 5.06548 6.91525 0.930658 4.93125 1.60553 4.33825 5.25073 0.537258 2.75082 0.710421 2.21597 0.069719 0.00501023 0.0241878 0.00180871 1.86823 0.141649 0.648825 0.0513241 -9.27731 -0.813858 -3.23267 -0.303222 37.9491 2.18376 13.1349 0.73763 0.316033 0.0227111 0.109642 -0.00268526 7.48655 0.567629 2.60004 -0.0584814 -26.0096 -2.28171 -9.06302 0.0816595 25.5292 1.46906 8.83612 0.0745578 1.43256 -0.0304214 0.467586 0.0111943 30.0009 -0.598808 9.7581 0.18511 -72.9198 0.733694 -23.3427 -0.363088 17.174 -0.0738512 5.10574 2.44136 6.49372 0.168636 2.2212 0.0603489 120.223 2.40433 41.0682 0.817231 -204.436 -2.71962 -73.4487 -0.859782 11.5533 5.44201 13.4321 3.09559 0.0286947 0.00206209 0.00995514 0.256953 0.0194821 0.0892385 0.747909 0.0656109 0.260608 1.91294 0.110079 0.662106 0.130072 -0.00276216 0.0424553 1.02969 -0.0205523 0.334917 2.09682 -0.0210975 0.671222 1.28688 -0.0055338 0.382582 0.589608 0.0153116 0.201677 4.12628 0.0825213 1.40954 5.87858 0.078203 2.11203 0.865707 0.407779 1.00649 0.000148188 0.0184655 0.00140005 0.0537471 0.004715 0.13747 0.00791063 -0.000198497 0.0739967 -0.00147695 0.150684 -0.00151613 0.0924789 -0.000397676 0.00110034 0.296528 0.00593024 0.422453 0.00561991 0.0622124 0.0293043 0.0891455 0.259474 0.663663 0.357233 0.727455 0.44646 1.43154 2.03947 0.300342 2.30094 0.174457 0.799106 6.69732 0.587527 2.33367 9.22059 -0.18404 2.99909 18.7764 -0.188922 6.01061 36.9497 0.738955 12.6221 52.6411 0.700286 18.9126 0.0132273 0.50779 0.0445462 -0.0139539 1.42362 -0.014324 0.0560275 3.99124 0.0530955 2.32594 6.52095 18.282 0.589608 -0.0125207 0.192448 4.66753 -0.0931623 1.51816 9.50477 -0.0956337 3.04262 5.83334 -0.0250844 1.73422 2.67266 0.0694068 0.914192 18.7042 0.374065 6.38938 26.6473 0.35449 9.5737 3.92421 1.84844 4.56239 0.000265886 -0.0991182 0.00197836 -0.20184 0.00203085 -0.123875 0.000532685 -0.0014739 -0.397197 -0.00794352 -0.565874 -0.00752784 -0.0833332 -0.0392529 1.52348 3.10235 1.904 6.10504 8.69766 1.28086 36.9497 -0.737503 12.0183 75.2429 -0.757068 24.0863 148.069 2.96122 50.5804 210.949 2.80626 75.7886 0.0147203 -1.50182 0.0151108 -0.0591049 -4.21046 -0.0560119 24.4735 68.6132 12.115 0.314617 4.14399 84.7852 1.69562 28.9627 120.791 1.60688 43.3971 17.7882 8.37888 20.6811 0.00817034 2.2018 0.0440337 3.13683 0.0417294 0.461945 0.217593 29.0011 41.3169 6.08452 593.357 11.8665 202.691 845.336 11.2455 303.708 0.237318 16.9058 0.224899 288.768 0.0118101 0.000848708 0.0040973 0.000306387 0.316468 0.0239946 0.109908 0.00869406 -1.57153 -0.137864 -0.547598 -0.0513644 0.0535344 0.00384715 0.0185729 -0.000454871 1.26819 0.0961536 0.440434 -0.00990647 -4.4059 -0.386511 -1.53523 0.0138327 0.242669 -0.00515324 0.0792069 0.00189626 5.08201 -0.101435 1.65297 0.0313567 -12.3523 0.124284 -3.95414 -0.0615053 1.1 0.0285662 0.37626 0.0102228 20.3652 0.407282 6.95676 0.138435 -34.6305 -0.46069 -12.4419 -0.145643 6.09908e-05 0.0227424 0.00172433 -0.112935 -0.00990731 0.000276468 0.0911358 0.0069099 -0.316622 -0.0277759 -0.000370328 0.365209 -0.00728945 -0.887672 0.00893145 0.00205286 1.4635 0.0292686 -2.48865 -0.0331066 0.109793 -0.545216 0.439976 -1.52855 1.76312 -4.28541 7.06535 -12.0144 0.214865 0.984194 0.0778529 0.861029 3.94397 -0.0887096 -0.908323 14.8019 0.28079 3.6471 62.2958 1.23965 0.242669 0.0174389 0.0841898 -0.0020619 5.74862 0.435859 1.99647 -0.0449055 -19.9717 -1.75203 -6.95912 0.062703 1.1 -0.0233593 0.359041 0.00859567 23.0365 -0.4598 7.49285 0.142138 -55.9922 0.563374 -17.9239 -0.2788 4.98626 0.129489 1.70557 0.0463394 92.3142 1.84619 31.5346 0.627519 -156.978 -2.08828 -56.3983 -0.660192 -0.000370328 -0.122076 -0.00925577 0.424113 0.0372056 0.000496052 -0.489195 0.00976417 1.18903 -0.0119636 -0.00274979 -1.96036 -0.0392051 3.33354 0.0443462 1.87635 -6.51875 7.51909 -18.2758 30.1313 -51.2375 3.45041 15.8047 -0.355487 -3.63993 59.3158 1.12521 14.615 249.638 4.96764 4.98626 -0.105887 1.62751 0.0389637 104.423 -2.08425 33.9647 0.644305 -253.809 2.55374 -81.2481 -1.26379 22.6025 0.586967 7.73125 0.210054 418.455 8.36867 142.945 2.84451 -711.573 -9.46608 -255.65 -2.99261 -0.00274979 2.71178 -0.0541262 -6.59122 0.0663186 0.015243 10.8669 0.217327 -18.479 -0.245826 35.7183 -86.8164 143.134 -243.396 -14.5863 237.697 4.50907 58.5669 1000.38 19.9069