ITEM: TIMESTEP
0
ITEM: NUMBER OF ATOMS
96
ITEM: BOX BOUNDS xy xz yz pp pp pp
-1.9502768608408696e+00 1.1339214512371766e+01 0.0000000000000000e+00
0.0000000000000000e+00 1.1464909705241407e+01 -1.9502768608408696e+00
0.0000000000000000e+00 1.1581352099068955e+01 0.0000000000000000e+00
ITEM: ATOMS id type x y z fx fy fz
   1 1    3.77731347000000062    3.40853953000000054    1.17718622000000006    2.85986820970784805   -3.80365783221933773    0.43585567544459036
   2 1    1.25817770000000007    0.78603095000000012    0.81391066999999995   -2.24839040803585233    0.37557789248842355    3.35760888938640401
   3 1    0.98258716000000013    3.02408572999999992    4.19817522000000043   -2.31956498006850698   -1.59464853212053459   -2.67959428969441715
   4 1    3.15200227999999960    5.27979114000000038    4.83879208000000016    2.91302519396675841    3.09802245691053102    0.36348544939110045
   5 2    3.64817568999999997    1.68333588000000001    0.03972580000000001   -3.08687096584442688    2.50084756484333770    0.35619194196055692
   6 2    2.06048948999999970    4.72204012999999989    3.15051571000000097    3.69316947500250770    0.63428831067374492   -0.96964426726479902
   7 2    1.34270587000000008    4.60294208999999999    6.58057820999999965    1.09668793402839126   -3.12518771280022101   -2.56907071933160003
   8 2    1.69183801999999961    0.78151341000000019    2.89427893999999997    2.74271326739279564    2.13597392189997448   -2.02815407244139223
   9 2    5.06100439999999985    4.18632687000000026    3.75381520999999996   -0.59652989838414427   -1.78924496348330742   -0.40469646829344419
  10 2   -0.35336394000000043    1.07435202000000030    4.84349672000000009   -1.04392594894166635   -0.26560469402173670    1.62562886353412628
  11 2   -0.34491056000000031    1.30301635000000005    2.25774419999999987    1.12224548862849982    3.50844992765589225   -1.33045751103200427
  12 2    6.00203674000000031    3.62061686000000105    0.71863518999999998   -2.58913249106578247    2.28406825998448904   -0.40532160170256942
  13 1    2.82682535999999951    3.14885451000000050    7.18126061999999976    0.13740211833087607   -0.89502212302536654    2.72798910130789762
  14 1    0.57066070999999940   11.01080137524140667    7.07172608000000036   -1.60876568304702650    0.50898538489491074   -2.28747108919985376
  15 1   -0.66419903000000136    2.32597339000000014    9.29724309000000027    6.68617360314902243   -1.23314191619771374    1.98597834490772795
  16 1    1.67944085999999992    5.23346591000000050   10.40224161000000080   -1.29388279671354178   -2.41951600882999296   -4.30370289316592824
  17 2    2.42116155999999982    1.15031455000000027    6.79688506000000014   -1.56031346045333685   -0.94100461148114678    0.04288694581785016
  18 2    0.53989856000000014    4.39916506000000052    8.69588032000000055    2.14275858168974453   -1.37961548939529655    0.68865562014443404
  19 2   -0.37615463000000182    4.37656147000000040   10.55431295000000169    3.50023305819101616   -0.39577999481110443    2.32067639447518737
  20 2    1.37119110999999894    2.07180375999999988    8.63536861000000044   -0.77642631181313215   -1.89571260470284630    0.19410364604845839
  21 2    3.11983745999999940    4.11113541000000104    9.43065915999999937   -0.08816597726882706   -1.70449628824050370   -0.53034228620331081
  22 2    8.74677979237176473    0.93212991999999995   11.16838583999999912    5.06824182800603040    1.86577252391969983   -0.38282015209745324
  23 2   10.13947912237176574    1.65926499000000005    7.12343063000000054   -1.57722589286781645    1.65772041809056292    4.15322324301372259
  24 2    4.72979954999999919    4.17634949999999971    6.58497329000000065   -3.98222493507809761    2.26684954820715534   -0.49377716620044065
  25 1    3.56912436000000000    8.87559779999999954    1.96628102999999999    2.62702236843944403    1.81086048498640628    1.00824829197812438
  26 1    1.72963616000000009    6.07672247999999993    1.38833487000000022   -5.34116407899189571    0.98332938525375213    0.03627829116750925
  27 1    0.10673828999999979    8.69573405000000044    3.93928621000000012    1.17546735974736816   -1.69337213960953226   -2.80432342069731888
  28 1    3.82746455000000019   11.13585364000000055    4.53333404999999967   -1.55074987157403488    1.25412149202968415    1.34416451105059065
  29 2    2.61566197000000011    7.79620436999999988    0.26367868999999999   -0.36174009596467266   -1.14767380206274194    1.18988372270442677
  30 2    1.59862513999999978    9.90429815000000069    3.28654093000000058    1.13327082678769875   -4.56269977609453914   -2.65203475936684407
  31 2    1.63923653999999885   10.87062713999999986    5.22677011000000036    0.92128426923795281   -0.55081357478159976    2.60984498291610079
  32 2    2.95262714000000015    7.23842047000000033    4.39724986999999956   -0.05319580073999358   -1.16685404872154597   -3.96092492528147400
  33 2    4.84992718999999983    9.47255982000000074    3.56317354000000064   -3.24796115056076617    2.58380059682683294    3.46512710399907720
  34 2    0.46917133999999994    6.69926235999999964    4.83487325000000112   -2.13115967888939029    3.19006511304641371    1.52029651358234741
  35 2    0.05616085999999981    7.57916612999999995    2.07941237000000001    0.83676673472469210    1.33674893333621547    2.22545016670970108
  36 2    4.79956519999999909   10.24023030999999939    1.09107850000000006   -1.24655829889612613   -1.74352836393580568   -1.12992461650699427
  37 1    3.14864926999999994    8.99732881000000084    7.37576444000000109    2.42406437132946895   -1.54531619443614310   -0.31596984033343772
  38 1    0.61105779999999976    6.41062719000000047    7.01895677000000084   -0.77574822968666302   -1.38028321403286847   -1.47028130834950899
  39 1   -0.26342016000000101    7.90570036000000087    9.73004504000000026   -2.48590763428579731    2.39138277965736368    2.23382137302158990
  40 1    2.41073855000000004    0.09257107475859543    9.35327129000000035    0.43383129108239732   -0.68517609915520061    2.46485978482229529
  41 2    2.77429077999999985    6.70070697999999965    6.38867900999999971    0.57983969444629513    0.74383115813732092    4.51275435079710086
  42 2    1.43563753999999921    9.24675636999999995    8.38676652999999916   -0.48758425107169268    1.69073138979393245   -0.91667234147156973
  43 2    1.32087220999999877   10.50715656000000031   10.73579480999999980    0.38225761360768151    1.45406263340252817   -2.17988789725051113
  44 2    0.88921892999999996    6.55445946000000035    9.04366197000000049    0.98443389863598663    1.54837357928581731    1.09827396412656464
  45 2    4.18847225000000023    9.53931831000000052    9.30122202000000087   -1.03260041783088696   -1.79864904049191310    1.55513222928412276
  46 2    9.39967929237176492    6.92505333999999984   10.21044333000000037    1.21483943171162689    0.15784276574910816   -2.37391123950111416
  47 2   -1.03529637000000108    7.79555463000000159    7.11396464999999978   -0.23401130766884837   -2.90593918873021995    0.28092853775903570
  48 2    4.18019689000000039   10.58337422000000139    7.40364302999999957    0.59527766573897578    4.42414913302229262   -2.09483972640219074
  49 1    9.59796926999999656    3.52603987999999990    1.99931670000000028    1.06580626359799302   -1.72018225047799911    0.31211742506374840
  50 1    7.12220712999999961    0.47394402000000008    1.19572924000000014   -0.11540790442736702    1.27243905132386104    1.11044086348361071
  51 1    6.47130219999999934    2.66974548999999994    3.84316141999999994   -1.05064734151401451    0.46062911440820542    0.91023477970148792
  52 1    8.79330232000000045    5.26999179000000062    5.58532628000000031   -3.88216664786918297    1.78585208129525808   -2.08631976104034944
  53 2    8.98272957000000005    2.06657071000000014    0.09673597000000002   -2.01254682768880055    1.25757736148759869    3.33414191676167437
  54 2    7.93650787000000069    4.43889881000000130    3.43968381999999995    1.40197669627280641   -2.94961788714400086   -0.96797854967025454
  55 2    6.74029557999999973    4.68540766000000009    6.15951121999999973    4.39030623524083019   -1.18641072548898019   -1.87736034037586785
  56 2    8.42568272000000107    1.54322626999999990    3.40097855000000004   -0.19999521463975056    2.77712554615293739   -1.41220485685106567
  57 2    0.09067516762823435    4.48018147999999972    3.05963757000000003   -4.53725483489797199   -4.30319932683464579    0.68169745453430175
  58 2    4.97053447999999953    1.49904529000000020    5.23184101000000013    0.17290916574774196   -2.62782955655944139   -3.05280102672496412
  59 2    5.67486979000000069    2.00583900999999987    1.72264667000000005    1.42108184797482218   -4.56025287100529564    3.78308535266286006
  60 2   10.87437588999999960    5.76599058000000042    0.80728856999999998   -1.63457881666534366   -1.84867957725253840    0.29236033426953023
  61 1    8.98693867999999974    3.42343132000000061    7.66431796000000087   -2.85348327413396063    0.78962263712773639   -0.90149868708627356
  62 1    6.41298461999999869    0.29535252000000006    7.54220936000000020   -2.64823514547513517    2.94068993744682228   -0.53735479937213759
  63 1    4.82022070999999830    2.75502545000000065   10.04996623000000255    1.53053625904797008   -0.85856107345616517   -0.43570245577875200
  64 1    7.54940975999999875    5.47803690000000021   10.28611217999999994    2.89257482623886020    1.87972444058170196   -0.03501419150301621
  65 2    7.55104261000000054    1.35788228000000011    5.78615510000000022   -0.62383284149174911   -0.45426672453078853    3.09350379668728293
  66 2    6.97979113000000062    4.54869415000000021    8.14027581999999938    1.69237971328021031   -0.64302468090765419    4.02756442780577650
  67 2    5.65312797999999894    4.32743205999999958   11.46164968000000073    6.21647595565307842   -0.03455859881372118   -3.18501725956568382
  68 2    6.48955605999999996    2.10293104000000053    9.23251546000000012    0.62056689753462013   -0.71687132982796153   -3.35547432881375363
  69 2    9.19371266000000098    3.33078654000000096    9.65238729000000006   -3.86555982494277339    1.27679696366831630   -1.15139706293291955
  70 2    5.21019331000000019    0.28394754000000000   10.13749817000000064   -2.70632174459706709    1.65914506195862410    2.48537524202731719
  71 2    4.33874292999999955    2.12734550000000011    7.96696954000000002    0.29531437412691175   -0.77307460245769577    3.31902585088331303
  72 2   -1.10080187237176785    5.08922657000000012    7.64655395000000038   -3.02983184146644113   -0.57252027770784464   -4.72143858384376447
  73 1    8.52294483000000014    8.70798493999999934    1.80358258000000005    2.36775872819243416    1.65691460548639147   -0.77275126252938020
  74 1    7.19399456000000193    5.73069387000000052    1.12978036999999998   -1.66692804627499891    0.17847174471891664    2.22859475774163274
  75 1    6.58235846000000002    8.47535075000000226    4.60798576999999998   -3.15655509803149625   -2.99444190619957329   -1.81450468580884650
  76 1    9.08750163999999927   11.44196707000000046    5.07897932000000019   -0.47823954232182153    2.02391564079059494   -2.27245810021526484
  77 2    8.00825902000000056    7.37673620999999979    0.22990031000000000   -0.54977486514845375   -5.39869546785122623    3.25180827124907657
  78 2    7.69405505000000023   10.54910257999999956    3.14235941000000008   -1.42269932005873390   -0.17103498462453715   -5.13546309911073440
  79 2    7.48409361999999945   10.01997174000000079    5.39685719000000041    0.35830236392700376   -0.92186504695852411    4.35495437819465359
  80 2    7.67953971999999929    6.44831307000000020    3.11130016999999981    3.51741095010154048    3.80236014449853732   -3.45113006087121166
  81 2    9.53565234999999944    9.67108112000000020    4.11797636000000011    5.21346977807099776   -1.52672149802490109    0.50097913042880315
  82 2    6.01892310000000030    6.20908398999999989    4.76992675999999971   -1.87864808507102077    0.75054157045700820    0.85648744930355036
  83 2    5.51929915999999920    7.49895253000000217    2.96421128000000023   -1.85290696638986896    0.80386975450489040   -1.49983796892551258
  84 2   10.28144609000000109   10.20846803999999963    0.68530471000000004    1.30874061833609745   -0.60802819617245585    2.06810740230651868
  85 1    8.31233253000000083    8.31905328000000033    7.31941194000000017    1.02089376627957318    2.01929497465226593    2.18844105006434519
  86 1    5.68572141000000020    5.98399945000000066    7.68129163000000048    0.38967501224768425   -1.24509550968437477   -4.20761602733066464
  87 1    5.38607133000000005    8.20299415000000209    9.98987632999999953    1.45595755216489020   -0.09010603011133798   -0.63372573531725807
  88 1    7.94761350000000011   10.86522287000000020   10.30226601999999936    0.02642291233758876   -1.69210427570051714    2.95035124209797806
  89 2    7.19483706000000023    7.09998907000000212    6.26549772000000083    3.07937004267741177    0.99590794947229455   -2.21284437275462897
  90 2    7.43735564999999887    9.49868196999999981    8.93087874000000070   -1.58416090049371538    0.66523310950174275   -4.34624998490272585
  91 2    6.76850753999999988    9.21315034000000210   11.26103402999999936   -2.36438117334841014    2.36449474190676590    0.15063608711888621
  92 2    7.30353590999999902    6.98502984000000104    8.49954295999999943   -0.56571683495684622   -0.21120568385250166    4.12277089203092739
  93 2   -1.61449097237176908   10.38642341000000258    9.59431350000000016    1.36096390372645182    0.50585296844059546    1.63775305006719685
  94 2    4.41274376999999873    6.01973951999999990   10.26064543999999934   -0.84445699170604782    3.26999267158241569   -1.39990477879169717
  95 2    5.08120633999999960    8.39569957000000144    7.04613007000000025    0.09715147816225927   -3.43788948779742398    0.49122129213816079
  96 2   -1.21253849237176636    9.79770386000000038    7.41435405000000092    0.07721102483104936    2.62686805726344641   -2.19912981406838792
