(written by ASE)

96 atoms
2 atom types

0.0      11.339214512371766  xlo xhi
0.0      11.464909705241407  ylo yhi
0.0      11.581352099068955  zlo zhi
                      0     -1.9502768608408696                       0  xy xz yz

Masses

     1      178.48999995408445 # Hf
     2      15.998999995884349 # O

Atoms # atomic

     1   1      3.7773134700000002      3.4085395300000001      1.1771862200000001
     2   1      1.2581777000000001     0.78603095000000001     0.81391066999999995
     3   1     0.98258716000000002      3.0240857299999999      4.1981752200000004
     4   1              3.15200228      5.2797911400000004      4.8387920800000002
     5   2              3.64817569              1.68333588    0.039725799999999999
     6   2      2.0604894900000001      4.7220401299999999      3.1505157100000001
     7   2      1.3427058700000001              4.60294209      6.5805782099999997
     8   2      1.6918380200000001     0.78151340999999996              2.89427894
     9   2      5.0610043999999998      4.1863268700000003              3.75381521
    10   2    -0.35336393999999999      1.0743520200000001      4.8434967200000001
    11   2    -0.34491055999999998              1.30301635      2.2577441999999999
    12   2      6.0020367400000003      3.6206168600000002     0.71863518999999998
    13   1              2.82682536      3.1488545100000001      7.1812606199999998
    14   1     0.57066070999999996             -0.45410833      7.0717260800000004
    15   1    -0.66419903000000002      2.3259733900000001      9.2972430900000003
    16   1      1.6794408599999999      5.2334659099999996      10.402241610000001
    17   2      2.4211615599999998              1.15031455      6.7968850600000001
    18   2     0.53989856000000003      4.3991650599999996      8.6958803200000006
    19   2    -0.37615462999999999      4.3765614700000004             10.55431295
    20   2              1.37119111      2.0718037599999999      8.6353686100000004
    21   2      3.1198374599999998      4.1111354100000002      9.4306591599999994
    22   2             -2.59243472     0.93212991999999995      11.168385839999999
    23   2     -1.1997353900000001      1.6592649900000001      7.1234306299999997
    24   2      4.7297995500000001      4.1763494999999997      6.5849732899999998
    25   1              3.56912436      8.8755977999999995              1.96628103
    26   1      1.7296361600000001      6.0767224799999999              1.38833487
    27   1              0.10673829      8.6957340500000004      3.9392862100000001
    28   1      3.8274645500000002      11.135853640000001      4.5333340499999997
    29   2      2.6156619700000001      7.7962043699999999     0.26367868999999999
    30   2              1.59862514      9.9042981500000007      3.2865409300000001
    31   2              1.63923654             10.87062714      5.2267701100000004
    32   2      2.9526271400000001      7.2384204700000003      4.3972498699999996
    33   2      4.8499271899999998      9.4725598200000007      3.5631735400000002
    34   2     0.46917133999999999      6.6992623599999996      4.8348732500000002
    35   2              0.05616086      7.5791661299999999              2.07941237
    36   2               4.7995652      10.240230309999999      1.0910785000000001
    37   1      3.1486492699999999      8.9973288100000008      7.3757644400000002
    38   1     0.61105779999999998      6.4106271899999996              7.01895677
    39   1    -0.26342016000000001              7.90570036      9.7300450400000003
    40   1              2.41073855      11.557480780000001      9.3532712900000003
    41   2      2.7742907799999998      6.7007069799999996      6.3886790099999997
    42   2      1.4356375400000001      9.2467563699999999      8.3867665299999992
    43   2      1.3208722100000001             10.50715656             10.73579481
    44   2     0.88921892999999996      6.5544594600000003      9.0436619700000005
    45   2      4.1884722500000002      9.5393183100000005      9.3012220200000009
    46   2             -1.93953522      6.9250533399999998             10.21044333
    47   2             -1.03529637      7.7955546299999998      7.1139646499999998
    48   2      4.1801968900000004             10.58337422      7.4036430299999996
    49   1      9.5979692700000001      3.5260398799999999      1.9993167000000001
    50   1      7.1222071299999996     0.47394402000000002      1.1957292399999999
    51   1      6.4713022000000002      2.6697454899999999      3.8431614199999999
    52   1      8.7933023200000004      5.2699917899999997      5.5853262800000003
    53   2      8.9827295700000001      2.0665707100000001    0.096735970000000004
    54   2      7.9365078699999998      4.4388988100000004      3.4396838199999999
    55   2      6.7402955799999997      4.6854076600000001      6.1595112199999997
    56   2      8.4256827199999993      1.5432262699999999              3.40097855
    57   2             11.42988968      4.4801814799999997              3.05963757
    58   2      4.9705344800000004              1.49904529      5.2318410100000001
    59   2      5.6748697899999998      2.0058390099999999              1.72264667
    60   2             10.87437589      5.7659905800000004     0.80728856999999998
    61   1      8.9869386799999997      3.4234313200000002              7.66431796
    62   1      6.4129846199999996     0.29535252000000001      7.5422093600000002
    63   1      4.8202207100000001      2.7550254500000002      10.049966230000001
    64   1      7.5494097599999996      5.4780369000000002             10.28611218
    65   2      7.5510426099999997      1.3578822800000001      5.7861551000000002
    66   2      6.9797911299999997      4.5486941500000002      8.1402758199999994
    67   2      5.6531279799999998      4.3274320599999996      11.461649680000001
    68   2              6.48955606      2.1029310400000001      9.2325154600000001
    69   2      9.1937126599999992      3.3307865400000001      9.6523872900000001
    70   2      5.2101933100000002              0.28394754      10.137498170000001
    71   2      4.3387429300000004      2.1273455000000001              7.96696954
    72   2             10.23841264      5.0892265700000001      7.6465539500000004
    73   1      8.5229448300000001      8.7079849399999993              1.80358258
    74   1      7.1939945600000001      5.7306938699999996              1.12978037
    75   1              6.58235846      8.4753507500000005              4.60798577
    76   1      9.0875016399999993             11.44196707      5.0789793200000002
    77   2      8.0082590200000006      7.3767362099999998              0.22990031
    78   2      7.6940550500000002             10.54910258      3.1423594100000001
    79   2      7.4840936200000003      10.019971740000001      5.3968571900000004
    80   2      7.6795397200000002      6.4483130700000002      3.1113001699999998
    81   2      9.5356523499999994      9.6710811200000002      4.1179763600000001
    82   2      6.0189231000000003      6.2090839899999999      4.7699267599999997
    83   2      5.5192991600000001      7.4989525300000004      2.9642112799999998
    84   2      10.281446089999999             10.20846804     0.68530471000000004
    85   1      8.3123325300000008      8.3190532800000003      7.3194119400000002
    86   1      5.6857214100000002      5.9839994499999998      7.6812916299999996
    87   1              5.38607133      8.2029941500000003      9.9898763299999995
    88   1      7.9476135000000001             10.86522287      10.302266019999999
    89   2      7.1948370600000002      7.0999890700000003      6.2654977199999999
    90   2      7.4373556499999998      9.4986819699999998      8.9308787400000007
    91   2      6.7685075399999999      9.2131503400000003      11.261034029999999
    92   2      7.3035359099999999      6.9850298400000002      8.4995429599999994
    93   2      9.7247235399999994      10.386423410000001      9.5943135000000002
    94   2      4.4127437699999996      6.0197395199999999      10.260645439999999
    95   2      5.0812063399999996      8.3956995699999997      7.0461300700000002
    96   2             10.12667602      9.7977038600000004              7.41435405
