(written by ASE)

97 atoms
2 atom types

0.0      12.880619210125166  xlo xhi
0.0      11.154943116692575  ylo yhi
0.0      15.046356078130312  zlo zhi
    -6.4403077717034334                       0                       0  xy xz yz

Masses

     1      178.48999995408445 # Hf
     2      15.998999995884349 # O

Atoms # atomic

     1   1                       0                       0    0.043218985470968918
     2   1   3.342346675577427e-07      2.0336270192838115      2.4992021375689486
     3   1                       0                       0      5.1067219730902593
     4   1  3.0441513282574774e-07        1.85219218568203      7.5240593053510487
     5   1                       0                       0      10.056398745257766
     6   1  3.0353909673601925e-07      1.8468620055651115      12.531481643440156
     7   1     -1.6164779102855964      2.8011237632298003      15.025949619673098
     8   1     -1.6399019212106551      4.6766165547630081       2.504866547045975
     9   1     -1.6083836306918191      2.7937414648760432      5.0233014849986919
    10   1     -1.6060910053505102      4.6500627806692094      7.5256180364680354
    11   1     -1.6084504747938002      2.7876189195735872      10.027035458615325
    12   1     -1.6040905478271761      4.6520352110580907      12.526567739646913
    13   1      -3.217761084135728      5.5788530481220411      15.028609990741645
    14   1     -3.2101908728202719      7.3964374965636939       2.504866547045975
    15   1       9.659993362608752      5.5771990668954823      5.0265317057866543
    16   1        -3.2162816570641      7.4389954919308172      7.5256180364680354
    17   1      9.6585429025541831      5.5763616493640438      10.027236430183908
    18   1     -3.2135732472381093      7.4397417268185304      12.526567739646913
    19   1     -4.8227030086163714      8.3544699401384612      15.025949619673098
    20   1     -4.6791352205134471      10.138129609441988      2.4992021375689486
    21   1     -4.8250491239598841      8.3651709502416427      5.0233014849986919
    22   1     -4.8362623892014893       10.22884702120572      7.5240593053510487
    23   1     -4.8303848244695331       8.368174325792717      10.027035458615325
    24   1     -4.8408784611287246      10.231512111264179      12.531481643440156
    25   1      -3.206224167718708      11.154292527371046      15.025949619673098
    26   1      3.2239468497978132       1.861346344846285      2.4960753218163219
    27   1     -3.2166645762478203      11.150973825695941      5.0233014849986919
    28   1      3.2245415569569333      1.8616897077946997      7.5195503830991237
    29   1     -3.2219334235684065      11.154092985373005      10.027035458615325
    30   1      3.2289312699018518      1.8642241037379172      12.522526354315854
    31   1      1.6164788310372002      2.8011237632298003      15.025949619673098
    32   1      1.6399034584516181      4.6766165547630081       2.504866547045975
    33   1      1.6083845490168027      2.7937414648760432      5.0233014849986919
    34   1      1.6060925338630381      4.6500627806692094      7.5256180364680354
    35   1      1.6084513911062546      2.7876189195735872      10.027035458615325
    36   1      1.6040920769880576      4.6520352110580907      12.526567739646913
    37   1  9.1747077004562613e-07       5.582285529134043   0.0058875137346599583
    38   1  1.2222394338526078e-06      7.4366287426978239      2.5034826631795428
    39   1  9.1693030734307311e-07      5.5789971209303397      5.0082473144628299
    40   1  1.2222394338526078e-06      7.4366287426978239      7.5144619299380881
    41   1  9.1691424462472297e-07       5.578899389980525      10.025834901728674
    42   1  1.2222394338526078e-06      7.4366287426978239      12.538050514340634
    43   1     -1.6059070021096979      8.3638003494797122   0.0058875137346599583
    44   1      -1.570287716159001      10.236832186841085       2.504866547045975
    45   1     -1.6087548501694582      8.3654445586187229      5.0082473144628299
    46   1     -1.6101894201778069      10.220827965567759      7.5256180364680354
    47   1     -1.6088394945759261      8.3654934291307903      10.025834901728674
    48   1     -1.6094814781947626      10.218109290216848      12.526567739646913
    49   1  1.8329050434446972e-06      11.152180144569545      15.028609990741645
    50   1      6.4403099108892405      1.8607805006798792      2.5024840012980292
    51   1      6.4403096051521533  0.00054498025577075053      5.0265317057866543
    52   1      6.4403099109040314      1.8608705046285083       7.520623515670577
    53   1      6.4403096054274185    0.002219815318647852      10.027236430183908
    54   1      6.4403099108635296      1.8606240666845446      12.533056142484556
    55   1      4.8319426870028321      2.7897230615837323       15.03741727185205
    56   1      4.8316387982541942      4.6470813066834271      2.5024840012980292
    57   1      4.8295278225297222      2.7883288365482923      5.0130218885599076
    58   1      4.8317167432402499       4.647036304709113       7.520623515670577
    59   1      4.8306343352824976      2.7889676892904443      10.024138211176219
    60   1      4.8315033289214426      4.6471595236810952      12.533056142484556
    61   1      3.2177629179489844      5.5788530481220411      15.028609990741645
    62   1       3.210193304087956      7.3964374965636939       2.504866547045975
    63   1      3.2206276807859946      5.5771990668954823      5.0265317057866543
    64   1      3.2162841023209356      7.4389954919308172      7.5256180364680354
    65   1      3.2220781405652956      5.5763616493640438      10.027236430183908
    66   1      3.2135756927402381      7.4397417268185304      12.526567739646913
    67   1      1.6059097513572262      8.3638003494797122   0.0058875137346599583
    68   1      1.5702910810869541      10.236832186841085       2.504866547045975
    69   1      1.6087575999574519      8.3654445586187229      5.0082473144628299
    70   1      1.6101927798450464      10.220827965567759      7.5256180364680354
    71   1      1.6088422443799844      8.3654934291307903      10.025834901728674
    72   1      1.6094848369683517      10.218109290216848      12.526567739646913
    73   1      3.2062278342231521      11.154292527371046      15.025949619673098
    74   1       9.656672972166664      1.8613463448462848      2.4960753218163219
    75   1      3.2166682416613797      11.150973825695941      5.0233014849986919
    76   1        9.65607826512041      1.8616897077946994      7.5195503830991237
    77   1      3.2219370900072621      11.154092985373005      10.027035458615325
    78   1      9.6516885530085688       1.864224103737917      12.522526354315854
    79   1       8.048677440126438      2.7897230615837323       15.03741727185205
    80   1      8.0489819394034665      4.6470813066834271      2.5024840012980292
    81   1      8.0510923041412532      2.7883288365482923      5.0130218885599076
    82   1      8.0489039944026182       4.647036304709113       7.520623515670577
    83   1      8.0499857915984734      2.7889676892904443      10.024138211176219
    84   1      8.0491174087619282      4.6471595236810952      12.533056142484556
    85   1      6.4403105214176311      5.5754969908792695       15.03741727185205
    86   1      6.4403108265824223      7.4322504243541658      2.4960753218163219
    87   1      6.4403105218759222      5.5782854409501494      5.0130218885599076
    88   1      6.4403108264695579      7.4315637085316526      7.5195503830991237
    89   1      6.4403105216659293      5.5770077455401621      10.024138211176219
    90   1      6.4403108256364812      7.4264949065709009      12.522526354315854
    91   1      4.8227057547969219      8.3544699401384612      15.025949619673098
    92   1       4.679138552997081      10.138129609441988      2.4992021375689486
    93   1        4.82505187365794      8.3651709502416427      5.0233014849986919
    94   1      4.8362657515046577       10.22884702120572      7.5240593053510487
    95   1      4.8303875751548224       8.368174325792717      10.027035458615325
    96   1      4.8408818243079272      10.231512111264179      12.531481643440156
    97   2                       0                       0      2.2335411474161457
