LAMMPS (27 Jun 2024)
OMP_NUM_THREADS environment is not set. Defaulting to 1 thread. (src/comm.cpp:98)
  using 1 OpenMP thread(s) per MPI task
Reading data file ...
  orthogonal box = (0 0 0) to (48.302314 50.197237 45.139088)
  2 by 2 by 2 MPI processor grid
  reading atoms ...
  4861 atoms
  read_data CPU = 0.027 seconds
**************** Begin of POD Potentials ****************
species: Hf O 
periodic boundary conditions: 1 1 1
number of environment clusters: 1
number of principal compoments: 2
inner cut-off radius: 1
outer cut-off radius: 5.5
cut-off function type: 1
gaussian_exponents: 
polynomial_degrees: 
bessel polynomial degree: 4
inverse polynomial degree: 8
one-body potential: 1
two-body radial basis functions: 8
three-body radial basis functions: 6
three-body angular degree: 4
four-body radial basis functions: 4
four-body angular degree: 2
five-body radial basis functions: 4
five-body angular degree: 2
six-body radial basis functions: 3
six-body angular degree: 2
seven-body radial basis functions: 0
seven-body angular degree: 0
number of local descriptors per element for one-body potential: 1
number of local descriptors per element for two-body potential: 16
number of local descriptors per element for three-body potential: 90
number of local descriptors per element for four-body potential: 64
number of local descriptors per element for five-body potential: 192
number of local descriptors per element for six-body potential: 198
number of local descriptors per element for seven-body potential: 0
number of local descriptors per element for all potentials: 561
number of global descriptors: 1122
**************** End of POD Potentials ****************

**************** Begin of Model Coefficients ****************
total number of coefficients for POD potential: 1122
total number of elements for PCA projection matrix: 0
total number of elements for PCA centroids: 0
**************** End of Model Coefficients ****************

19 atoms in group core
54 atoms in group shell1
108 atoms in group shell2
186 atoms in group shell3
263 atoms in group shell4
630 atoms in group mobile
4231 atoms in group frozen

CITE-CITE-CITE-CITE-CITE-CITE-CITE-CITE-CITE-CITE-CITE-CITE-CITE

Your simulation uses code contributions which should be cited:
- Type Label Framework: https://doi.org/10.1021/acs.jpcb.3c08419
The log file lists these citations in BibTeX format.

CITE-CITE-CITE-CITE-CITE-CITE-CITE-CITE-CITE-CITE-CITE-CITE-CITE

Neighbor list info ...
  update: every = 1 steps, delay = 0 steps, check = yes
  max neighbors/atom: 2000, page size: 100000
  master list distance cutoff = 7.5
  ghost atom cutoff = 7.5
  binsize = 3.75, bins = 13 14 13
  1 neighbor lists, perpetual/occasional/extra = 1 0 0
  (1) pair pod, perpetual
      attributes: full, newton on
      pair build: full/bin/atomonly
      stencil: full/bin/3d
      bin: standard
Setting up Verlet run ...
  Unit style    : metal
  Current step  : 0
  Time step     : 0.001
Per MPI rank memory allocation (min/avg/max) = 3.158 | 3.158 | 3.158 Mbytes
   Step          Temp       c_temp_core   c_temp_shell1  c_temp_shell2  c_temp_shell3  c_temp_shell4      TotEng         PotEng         KinEng         Press     
         0   32.067901      500            450            350            250            150           -27072.574     -27092.719      20.145194     -3204.1681    
       100   21.291603      310.24823      330.77795      213.70531      156.68301      108.8117      -27063.025     -27076.4        13.375477     -2734.4867    
       200   28.56565       464.02519      480.3607       288.79763      209.77327      134.76368     -27056.531     -27074.476      17.945064     -2671.9725    
       300   30.040512      502.02502      413.09465      316.07228      232.24372      146.11298     -27055.178     -27074.049      18.871579     -2635.4027    
       400   31.680517      456.17265      453.28644      303.61973      255.96478      159.89018     -27053.22      -27073.122      19.901837     -2604.4307    
       500   32.655884      592.17176      497.97998      320.10611      256.14748      152.73637     -27051.86      -27072.375      20.514567     -2563.4244    
       600   31.186136      368.45696      390.23828      286.01659      268.46472      167.86267     -27053.109     -27072.701      19.591265     -2569.5088    
       700   31.44516       454.31817      375.93217      321.04637      260.04246      161.30354     -27051.959     -27071.713      19.753985     -2562.865     
       800   31.384365      466.77952      405.74192      341.23965      242.25269      157.60409     -27052.781     -27072.497      19.715793     -2579.3594    
       900   33.610983      569.69533      472.90711      381.36156      246.60785      158.78871     -27051.489     -27072.603      21.114564     -2542.5612    
      1000   31.458848      398.83369      432.57076      320.76241      243.07904      166.0059      -27051.819     -27071.581      19.762584     -2575.5364    
      1100   33.048933      586.68886      433.08431      352.20578      264.53678      154.49856     -27050.352     -27071.114      20.761482     -2507.6821    
      1200   33.605064      451.56626      442.46974      373.55906      265.27036      162.96063     -27051.274     -27072.384      21.110846     -2590.5871    
      1300   29.808468      415.19867      350.4106       305.7314       234.72172      162.92762     -27052.595     -27071.321      18.725808     -2563.369     
      1400   31.964387      516.24112      396.36084      348.43756      247.47764      160.23387     -27052.171     -27072.251      20.080165     -2562.376     
      1500   30.602833      471.89725      441.7759       331.61316      239.5402       141.31279     -27052.869     -27072.094      19.224832     -2588.5322    
      1600   31.030805      413.57995      388.48883      328.10383      247.36381      159.94637     -27053.132     -27072.625      19.493685     -2576.3699    
      1700   33.082174      670.21463      451.22349      318.79641      253.81929      166.91935     -27051.756     -27072.538      20.782364     -2566.6519    
      1800   32.176805      667.95872      431.01213      343.87219      232.39239      159.25747     -27051.167     -27071.38       20.213608     -2514.5711    
      1900   32.664308      502.327        438.99388      377.16589      231.33706      165.21324     -27051.059     -27071.579      20.519859     -2517.719     
      2000   32.612381      555.0328       425.7878       343.85977      247.17918      165.71636     -27051.361     -27071.848      20.487238     -2517.2927    
      2100   32.800386      591.00955      437.44695      381.10167      241.61776      153.09103     -27051.154     -27071.759      20.605344     -2548.3909    
      2200   32.363573      415.86572      420.78544      355.60147      265.35915      154.04181     -27053.167     -27073.498      20.330936     -2578.9033    
      2300   32.907836      579.23709      407.38294      325.5204       277.25628      159.50926     -27051.318     -27071.991      20.672844     -2556.4802    
      2400   31.81254       521.34837      470.58812      313.15385      236.79835      164.00133     -27051.888     -27071.873      19.984775     -2533.7748    
      2500   32.640512      375.29663      413.89485      343.29148      262.65489      170.29687     -27052.772     -27073.277      20.50491      -2602.2323    
      2600   32.156518      387.248        484.05904      355.10326      232.04411      163.09494     -27053.238     -27073.439      20.200863     -2587.358     
      2700   32.875843      385.70817      455.83653      396.6715       243.38919      157.2659      -27052.622     -27073.275      20.652746     -2563.8433    
      2800   30.559241      401.71952      375.5356       340.28742      238.59625      155.84929     -27053.013     -27072.211      19.197447     -2555.0596    
      2900   32.654564      487.55797      531.37696      333.97969      258.36373      145.91238     -27050.844     -27071.357      20.513738     -2510.0917    
      3000   34.163667      539.09193      491.01139      357.97588      259.83703      167.69043     -27051.08      -27072.542      21.461763     -2578.141     
      3100   30.97288       489.23825      444.33226      314.62415      245.61185      149.11955     -27051.717     -27071.174      19.457297     -2494.4422    
      3200   34.954892      523.98492      584.79134      369.85278      256.63869      161.84237     -27049.64      -27071.599      21.958814     -2508.4859    
      3300   33.664285      660.97481      435.65308      357.79977      257.63855      162.87618     -27050.731     -27071.879      21.148049     -2545.985     
      3400   31.924731      526.78094      403.80831      330.16488      242.63212      168.15156     -27052.89      -27072.945      20.055253     -2555.7397    
      3500   32.133659      449.32011      423.28655      327.49948      255.93475      165.10404     -27052.483     -27072.67       20.186503     -2585.5246    
      3600   31.076806      435.88993      441.5881       324.43083      251.5191       147.09143     -27051.869     -27071.391      19.522583     -2535.0819    
      3700   31.151953      549.25426      359.92719      305.56139      259.11742      159.55719     -27051.57      -27071.14       19.569791     -2546.7283    
      3800   30.336292      491.79868      321.4548       346.61543      228.80157      160.79677     -27052.499     -27071.556      19.057389     -2512.8603    
      3900   33.554613      551.33525      456.22181      369.97291      224.44336      182.68133     -27051.407     -27072.486      21.079153     -2565.2361    
      4000   32.375568      575.75421      446.48646      349.28302      244.72954      155.22769     -27052.211     -27072.549      20.338471     -2542.1842    
      4100   32.737332      449.97387      400.10631      317.90617      272.33014      173.28714     -27050.623     -27071.189      20.565733     -2464.9885    
      4200   32.989837      507.25491      468.02132      358.22427      248.8865       160.38508     -27052.147     -27072.872      20.724358     -2604.6479    
      4300   31.936074      535.50721      364.20991      358.85231      241.9182       164.56106     -27052.134     -27072.197      20.062379     -2541.2466    
      4400   31.458415      416.44421      424.69464      331.71508      238.38194      165.22487     -27051.929     -27071.691      19.762312     -2506.7632    
      4500   33.380452      499.10523      449.02087      379.76269      252.54715      160.6533      -27052.024     -27072.993      20.969744     -2573.0947    
      4600   32.727011      368.86076      460.39983      361.61219      269.23877      150.805       -27052.065     -27072.624      20.559249     -2555.7573    
      4700   33.99395       557.29979      528.40502      359.50873      259.85615      155.08744     -27050.369     -27071.724      21.355145     -2534.8794    
      4800   32.293201      604.28457      478.8561       317.43028      263.27688      145.10382     -27051.702     -27071.988      20.286728     -2556.253     
      4900   34.15765       662.62675      503.1458       322.64195      279.00849      157.53019     -27050.23      -27071.688      21.457983     -2483.7534    
      5000   33.526721      616.49691      471.23659      304.5108       257.86411      177.78574     -27050.85      -27071.912      21.06163      -2579.5714    
Loop time of 280.531 on 8 procs for 5000 steps with 4861 atoms

Performance: 1.540 ns/day, 15.585 hours/ns, 17.823 timesteps/s, 86.639 katom-step/s
99.9% CPU use with 8 MPI tasks x 1 OpenMP threads

MPI task timing breakdown:
Section |  min time  |  avg time  |  max time  |%varavg| %total
---------------------------------------------------------------
Pair    | 275.64     | 276.78     | 277.99     |   4.5 | 98.66
Neigh   | 0          | 0          | 0          |   0.0 |  0.00
Comm    | 2.3346     | 3.5469     | 4.6864     |  40.1 |  1.26
Output  | 0.012289   | 0.014264   | 0.016159   |   0.8 |  0.01
Modify  | 0.081165   | 0.088667   | 0.10072    |   2.3 |  0.03
Other   |            | 0.1031     |            |       |  0.04

Nlocal:        607.625 ave         609 max         607 min
Histogram: 4 0 0 0 0 3 0 0 0 1
Nghost:        2093.38 ave        2094 max        2092 min
Histogram: 1 0 0 0 0 3 0 0 0 4
Neighs:              0 ave           0 max           0 min
Histogram: 8 0 0 0 0 0 0 0 0 0
FullNghs:        41561 ave       41679 max       41509 min
Histogram: 2 2 0 2 0 1 0 0 0 1

Total # of neighbors = 332488
Ave neighs/atom = 68.399095
Neighbor list builds = 0
Dangerous builds = 0
Total wall time: 0:04:40
