(written by ASE)

2 atoms
2 atom types

0.0      19.9999996430165  xlo xhi
0.0      19.9999996430165  ylo yhi
0.0      19.9999996430165  zlo zhi

Masses

     1      178.48999995408445 # Hf
     2      15.998999995884349 # O

Atoms # atomic

     1   2     9.99999982 9.99999982 9.99999982 
     2   2     9.99999982 9.99999982 15.50733448196393
