ITEM: TIMESTEP
0
ITEM: NUMBER OF ATOMS
12
ITEM: BOX BOUNDS xy xz yz pp pp pp
-8.8344296827430302e-01 5.1364755065543157e+00 0.0000000000000000e+00
0.0000000000000000e+00 5.1934133375444702e+00 -8.8344296827430302e-01
0.0000000000000000e+00 5.2461598045212767e+00 0.0000000000000000e+00
ITEM: ATOMS id type x y z fx fy fz
1 1 0.792968 2.37892 3.71379 -0.0274638 -0.133949 0.0865766
4 1 1.23469 0.217788 1.09071 -0.0274626 0.13395 0.0865264
5 2 1.43661 3.85624 5.13377 0.0924191 0.289295 0.273978
8 2 1.87833 3.93388 2.5107 0.0924106 -0.289301 0.273966
9 2 0.0452385 1.71777 1.8165 -0.284223 0.185036 -0.0115092
12 2 -0.396484 0.878939 4.43957 -0.284209 -0.185022 -0.0114853
2 1 3.01834 4.97563 4.15544 0.0274641 -0.133951 -0.0865275
3 1 3.46006 2.81449 1.53236 0.0274573 0.13395 -0.0865751
6 2 2.3747 1.25954 2.73546 -0.09241 0.289301 -0.273966
7 2 2.81642 1.33717 0.112383 -0.0924182 -0.289295 -0.273978
10 2 4.64952 4.31448 0.806582 0.28421 0.185024 0.0114848
11 2 4.20779 3.47565 3.42966 0.284225 -0.185038 0.0115095
