2
Lattice="19.9999996430165 0.0 0.0 0.0 19.9999996430165 0.0 0.0 0.0 19.9999996430165" Properties=species:S:1:pos:R:3:forces:R:3 energy=-0.009528133723064158 stress="3.672630460797807e-06 -0.0 -0.0 -0.0 3.672630460797807e-06 -0.0 -0.0 -0.0 -0.04405136606203929" free_energy=-1048.7797770573184 pbc="T T T"
O 9.99999982 9.99999982 9.99999982 0.00000000 0.00000000 0.01130338304418409
O 9.99999982 9.99999982 15.50733448196393 0.00000000 0.00000000 -0.01130338304418409
