ITEM: TIMESTEP
0
ITEM: NUMBER OF ATOMS
19
ITEM: BOX BOUNDS pp pp pp
0.0000000000000000e+00 3.0000000000000000e+01
0.0000000000000000e+00 3.0000000000000000e+01
0.0000000000000000e+00 3.0000000000000000e+01
ITEM: ATOMS id type xs ys zs
1 2    0.8943991216666667   0.06543348866666666    0.1005146183333333
2 1    0.9260965856666666   0.06159559033333333           0.064782587
3 1    0.9745150696666666   0.04664664633333333   0.07037160966666667
4 1    0.9755625916666666   0.04148545133333333   0.01530039766666667
5 2    0.9969570033333334           0.001792421 0.0009244746666666666
6 1    0.9929408673333333   0.08508495766666666    0.9932166650000001
7 1           0.964432373            0.12215252   0.01311542466666667
8 1    0.9232269993333334   0.09874180033333334   0.02992992666666667
9 1           0.924975643   0.05010794833333333   0.01701073366666667
10 3    0.8875358123333333   0.03822844433333333           0.119479335
11 3    0.9953791656666666   0.07379033133333333   0.08650800099999999
12 3    0.9810493436666667   0.01565166766666667           0.088970701
13 3    0.9936818953333333    0.9997117316666666           0.967826508
14 3   0.02912441466666667   0.08754462366666667    0.9985230366666666
15 3    0.9879520256666667   0.07651047700000001    0.9586222823333334
16 3    0.9865674206666667           0.138782322   0.03796597166666667
17 3    0.9529738013333334           0.145600999    0.9875988773333333
18 3    0.8906501433333334    0.1132530726666667           0.030985498
19 3           0.899819897   0.02832195133333333  0.001243393333333333
ITEM: TIMESTEP
100
ITEM: NUMBER OF ATOMS
19
ITEM: BOX BOUNDS pp pp pp
0.0000000000000000e+00 3.0000000000000000e+01
0.0000000000000000e+00 3.0000000000000000e+01
0.0000000000000000e+00 3.0000000000000000e+01
ITEM: ATOMS id type xs ys zs
1 2     0.897140885695587   0.06466984482973699    0.1094193918651805
2 1    0.9321155267813085   0.07322143473790427   0.07514260000495103
3 1    0.9715687956871788   0.04588249683208215   0.06916395026759946
4 1    0.9725124274764194   0.04070553082409734   0.01446945835001195
5 2    0.9942497932794192  0.003008793082026776 0.0003954949200068027
6 1    0.9977845008590385   0.08409305364338034 0.0005762231315402191
7 1    0.9589569129428179    0.1191508909648238   0.01258235317193821
8 1    0.9190882384114064   0.08801488842276566   0.02620882343085813
9 1    0.9274084545913155   0.04944407072736767    0.9972154306507522
10 3    0.8995707012799777   0.09249542116722813    0.1258433800582892
11 3  0.004167306457040712   0.06147705630871048   0.07923436105450704
12 3    0.9706196533845554   0.01224064414699908    0.0798090794342789
13 3    0.9935115966934889  0.001222896366699244    0.9677141143471603
14 3   0.02839348492504361   0.09821944922981034   0.01965360018067615
15 3  0.006119271679778199   0.08311994763420404    0.9641187346474982
16 3     0.977871351296107    0.1377077301455601   0.03591588877141531
17 3    0.9492803107431037    0.1382742875916557    0.9823244397989068
18 3    0.8875865967685318    0.1056800905611208   0.02677913258175135
19 3    0.9146532436237037   0.04295582272065698     0.963106461452457
ITEM: TIMESTEP
200
ITEM: NUMBER OF ATOMS
19
ITEM: BOX BOUNDS pp pp pp
0.0000000000000000e+00 3.0000000000000000e+01
0.0000000000000000e+00 3.0000000000000000e+01
0.0000000000000000e+00 3.0000000000000000e+01
ITEM: ATOMS id type xs ys zs
1 2    0.9183720973895674   0.09577222834892912    0.1034830318842082
2 1    0.9259815273720438    0.0612790513140668   0.07108903759682132
3 1    0.9563728066277076   0.02471658752902268   0.06343336706063478
4 1    0.9744092194625776   0.03765701160986762   0.01634359567452786
5 2  0.003611140619467967  0.007430404555053794    0.9914426709072591
6 1    0.9913233496436469   0.08612984469243573   0.02058353051117982
7 1    0.9519307504614295    0.1173853396346969   0.01807956075117802
8 1    0.9130811542632545   0.08328826449388432   0.02588239231865143
9 1    0.9324495589813322   0.04726774286608768    0.9942462512284255
10 3    0.9146208969922708   0.08607202615487192    0.1339348564904816
11 3    0.9799420958359273   0.02876634797867241   0.09063274950172329
12 3    0.9373876483377477    0.9931080781103163    0.0689370886397118
13 3  0.007152874767267874   0.01784095975380924    0.9609722340935113
14 3  0.008822646360022798   0.09532198822488629   0.04861576077529656
15 3   0.01224085707468725   0.09078719580070248    0.9901490978054489
16 3    0.9497207150119574    0.1435312768678971   0.04615916046259884
17 3    0.9413307406311926    0.1337650335329875    0.9880056703019918
18 3    0.8788834086199893   0.09513113732988929   0.01936101058724588
19 3    0.9198861953768136   0.03508573667410778    0.9636720530070663
ITEM: TIMESTEP
300
ITEM: NUMBER OF ATOMS
19
ITEM: BOX BOUNDS pp pp pp
0.0000000000000000e+00 3.0000000000000000e+01
0.0000000000000000e+00 3.0000000000000000e+01
0.0000000000000000e+00 3.0000000000000000e+01
ITEM: ATOMS id type xs ys zs
1 2    0.9118331866959778   0.08237884891383802    0.1088388423897292
2 1    0.9281358258732977   0.06783944488355219   0.07019865100173669
3 1    0.9599071991301114   0.02609330269468225   0.06298340300037458
4 1    0.9753135462108519   0.03861650305193712    0.0167500705588835
5 2  0.001681727963766269  0.006243895849627147 0.0003763760658940359
6 1    0.9943299762052574   0.08957255455046545  0.008589302278663974
7 1    0.9508894128363187    0.1223300226145387   0.01474716852398446
8 1    0.9152639315673674   0.08599444279105821   0.02675237755421411
9 1    0.9305960201079341   0.04679354830769411    0.9957590862726827
10 3     0.930993052475197    0.1062446925667837    0.1158743328429044
11 3    0.9859915942409404   0.02462781651265385   0.08845285268739869
12 3    0.9412638451868256    0.9929744662035344   0.05793382269595462
13 3    0.9942646119040176  0.003071609621472393    0.9695996040830003
14 3   0.02688006059415162   0.09400071498247174   0.02878734331199694
15 3  0.008728119385591985   0.09017266479508099    0.9733921334647495
16 3    0.9553923475578229    0.1473520940247423   0.04066935667464079
17 3     0.945630280877065    0.1335617167645446    0.9792383716474492
18 3    0.8789756373734551    0.0932828190764306   0.02646073436164726
19 3    0.9103768635787213   0.03298748902472848    0.9685894679262574
ITEM: TIMESTEP
400
ITEM: NUMBER OF ATOMS
19
ITEM: BOX BOUNDS pp pp pp
0.0000000000000000e+00 3.0000000000000000e+01
0.0000000000000000e+00 3.0000000000000000e+01
0.0000000000000000e+00 3.0000000000000000e+01
ITEM: ATOMS id type xs ys zs
1 2    0.9046848571408702   0.06995836604323824     0.107175038386103
2 1    0.9295170708915501   0.07184439057938508   0.07217670660212332
3 1     0.965455794035386   0.03601290729883561   0.06735328356101833
4 1    0.9748045010115518   0.04055798589021933   0.01608294139573557
5 2    0.9983363039710448   0.00309329502149168  0.003102737413298688
6 1    0.9918334301559472   0.08724844593004309  0.002070681076570709
7 1    0.9576464970621684     0.122152109266441   0.01471172134567174
8 1    0.9185767699521558   0.09113933777514843   0.02539102856877317
9 1    0.9286688111192586   0.04745037495341081    0.9961796244920621
10 3    0.9177205527921776   0.09108954606470766    0.1300909779417874
11 3    0.9923969115950291    0.0457984665177001   0.09156137070921222
12 3    0.9538838217181118 0.0005638154860397715    0.0695100347490413
13 3    0.9948809480097731   0.00314267188341211    0.9711821838711876
14 3   0.02599188896524488   0.09608826163233719  0.007163271564155619
15 3    0.9885089822058813   0.08040723548994298    0.9677100075335184
16 3    0.9700298252415972    0.1375865046226182   0.04510500967926064
17 3    0.9569201335996912    0.1425837414399622    0.9840853125413386
18 3    0.8847746065312908      0.10619143021339   0.02202676820155355
19 3     0.916159852499015    0.0335963858578494    0.9653140408747295
ITEM: TIMESTEP
500
ITEM: NUMBER OF ATOMS
19
ITEM: BOX BOUNDS pp pp pp
0.0000000000000000e+00 3.0000000000000000e+01
0.0000000000000000e+00 3.0000000000000000e+01
0.0000000000000000e+00 3.0000000000000000e+01
ITEM: ATOMS id type xs ys zs
1 2    0.9120224621655345   0.08497670363249442    0.1078850880164273
2 1    0.9299271492224135    0.0694796795585851   0.07035572655037914
3 1    0.9635136193029762   0.02885857133844831   0.06726066496902089
4 1    0.9727554592534324   0.03748889727088268   0.01541281488739957
5 2  0.002458739229942283   0.00586486795184275     0.994224405559391
6 1    0.9933037192531549   0.08603896603005179   0.01275859070093752
7 1    0.9513612803731084    0.1196565220924551    0.0202211077771759
8 1    0.9138004882383891   0.08583535827275462   0.02444317630926588
9 1    0.9288905209834055    0.0445145804476379    0.9951302446512057
10 3    0.9005283549080164    0.1154526122726569   0.09901010617335025
11 3    0.9914795779121225    0.0382229520826085   0.08898189614893276
12 3     0.953007122099971    0.9960448229027363   0.06880298253008045
13 3   0.00143843876669575   0.00909267320656061    0.9621896763677796
14 3    0.0221694297420226   0.08719805393827826    0.0361585020519836
15 3  0.002781551594597721   0.08702732412406951    0.9745190121935382
16 3    0.9528570379257599    0.1429009667896352   0.04891746083445311
17 3    0.9526621323065324    0.1400940893381321    0.9885505152969845
18 3    0.8789506291741848   0.09365593866436116   0.01552139487357279
19 3    0.9178148000479032   0.03732370975034743    0.9623280878688296
