ITEM: TIMESTEP
0
ITEM: NUMBER OF ATOMS
19
ITEM: BOX BOUNDS pp pp pp
0.0000000000000000e+00 3.0000000000000000e+01
0.0000000000000000e+00 3.0000000000000000e+01
0.0000000000000000e+00 3.0000000000000000e+01
ITEM: ATOMS id type x y z fx fy fz
   1 2   26.83197365000000190    1.96300465999999996    3.01543854999999983    0.02062311342548439   -0.98665719730235735    0.03586917957402405
   2 1   27.78289756999999938    1.84786771000000005    1.94347760999999997    0.64875300903090050   -0.03449799958206870    1.45726509076808242
   3 1   29.23545208999999900    1.39939938999999991    2.11114829000000004    0.38298275520077740    0.93348329591523038   -0.04055910384008579
   4 1   29.26687774999999903    1.24456353999999991    0.45901193000000001    0.43195554146774873    0.25397005801307826    1.60855903663334532
   5 2   29.90871010000000041    0.05377263000000000    0.02773424000000000   -0.66126068169717589    0.28748185577942820   -0.58665990077480434
   6 1   29.78822601999999975    2.55254872999999982   29.79649995000000118    0.27855089091886409   -1.97289191487458249    0.57337262605255401
   7 1   28.93297118999999995    3.66457560000000004    0.39346273999999998    0.73582373804125178    0.09275825832679363   -0.22400676877560305
   8 1   27.69680998000000116    2.96225401000000010    0.89789779999999997   -0.15808099996838690   -0.72997558165187226    0.52092752288833233
   9 1   27.74926929000000086    1.50323845000000000    0.51032200999999999   -0.80382641435592694   -1.29558266355143847   -1.06038240721583343
  10 3   26.62607437000000132    1.14685332999999989    3.58438005000000004    0.71155398798748037    0.98159694995801561   -1.20551147615863719
  11 3   29.86137496999999996    2.21370994000000021    2.59524002999999981   -0.27947492928303796   -0.61975379073002601   -0.77328689437459874
  12 3   29.43148031000000131    0.46955003000000001    2.66912102999999989   -0.30404411787502411   -0.18282512328879072   -0.33313800206092148
  13 3   29.81045685999999861   29.99135194999999854   29.03479524000000112    0.05455442515101100    0.16347124689667550    0.93669839735806226
  14 3    0.87373244000000005    2.62633871000000019   29.95569109999999924   -0.15286504121833833    0.55112112863118257    0.16435367593163663
  15 3   29.63856077000000155    2.29531431000000019   28.75866846999999993   -0.28055168742963454    0.81899959079839568   -0.84877672232486123
  16 3   29.59702262000000061    4.16346965999999963    1.13897914999999994   -0.92706307838750512    0.19292066859197199   -0.08408523996038908
  17 3   28.58921404000000166    4.36802997000000026   29.62796631999999875    0.40709984677894212    0.35187181388104288   -0.15085284613227584
  18 3   26.71950430000000054    3.39759218000000018    0.92956494000000001   -0.39521214220730666    0.80447224988180732   -0.09581443916940639
  19 3   26.99459690999999850    0.84965853999999996    0.03730180000000000    0.29048178441987926    0.39003715430751035    0.10602827158138381
ITEM: TIMESTEP
100
ITEM: NUMBER OF ATOMS
19
ITEM: BOX BOUNDS pp pp pp
0.0000000000000000e+00 3.0000000000000000e+01
0.0000000000000000e+00 3.0000000000000000e+01
0.0000000000000000e+00 3.0000000000000000e+01
ITEM: ATOMS id type x y z fx fy fz
   1 2   26.91422657086761205    1.94009534489210989    3.28258175595541601    2.32123728144767894    0.58866287033469067   -2.01638037555275540
   2 1   27.96346580343925581    2.19664304213712791    2.25427800014853075   -1.92852524348959986   -0.82162914557387134   -0.65308461779239191
   3 1   29.14706387061536574    1.37647490496246450    2.07491850802798394    1.25908681601193884    0.60017820090918672   -1.49200325592394711
   4 1   29.17537282429258383    1.22116592472292029    0.43408375050035847    1.47483259052390658    0.92546747835542653    1.09845317158703715
   5 2   29.82749379838257653    0.09026379246080329    0.01186484760020408    0.42255184983187949   -1.30088341017131359    0.01989086963962367
   6 1   29.93353502577115322    2.52279160930141000    0.01728669394620657    0.46281880843710521    0.80597048862377174   -0.11449810918280656
   7 1   28.76870738828453966    3.57452672894471535    0.37747059515814629    0.43886970296391303   -1.08551038533103772   -1.56864380427385464
   8 1   27.57264715234219210    2.64044665268296974    0.78626470292574402    0.57478141088427204    1.22508398689124220    2.23513529285127843
   9 1   27.82225363773946469    1.48332212182102996   29.91646291952256931   -0.88535335523357706   -0.37630167660199032   -0.77669106780181096
  10 3   26.98712103839933363    2.77486263501684371    3.77530140174867546   -0.28338263184177021    0.16932303729049708    0.34712613061230946
  11 3    0.12501919371122136    1.84431168926131428    2.37703083163521134   -1.17469117557790081   -0.13507618705215529    0.08197047623530707
  12 3   29.11858960153666231    0.36721932440997229    2.39427238302836676   -0.39034207536176074   -1.17396183589351133    0.73091950277809803
  13 3   29.80534790080466578    0.03668689100097731   29.03142343041480800   -0.08436676811570218    0.19950075131145359    0.19629173546771106
  14 3    0.85180454775130843    2.94658347689431022    0.58960800542028446   -1.13253142560302766   -1.17146023670394084   -0.91587296429380816
  15 3    0.18357815039334596    2.49359842902612128   28.92356203942494730   -0.22871554588905696    0.20013876199468394    0.63746493159234685
  16 3   29.33614053888321038    4.13123190436680332    1.07747666314245927   -0.47554141925554227    1.32230035481370378    1.15585545696673364
  17 3   28.47840932229311051    4.14822862774967227   29.46973319396720470    0.14279413441839767    0.13349862397786139    0.46515084310729438
  18 3   26.62759790305595331    3.17040271683362418    0.80337397745254058   -0.57469398999350951   -0.03289060591770929   -0.20670720184605301
  19 3   27.43959730871111091    1.28867468161970922   28.89319384357371234    0.06117103584234990   -0.07241107125698321    0.77562298582968514
ITEM: TIMESTEP
200
ITEM: NUMBER OF ATOMS
19
ITEM: BOX BOUNDS pp pp pp
0.0000000000000000e+00 3.0000000000000000e+01
0.0000000000000000e+00 3.0000000000000000e+01
0.0000000000000000e+00 3.0000000000000000e+01
ITEM: ATOMS id type x y z fx fy fz
   1 2   27.55116292168702330    2.87316685046787379    3.10449095652624463    0.41145534163424125   -0.75552049338558303   -0.35644328517887103
   2 1   27.77944582116131400    1.83837153942200415    2.13267112790463953   -1.92521477093326965    3.23246511747392518   -0.49161417980540201
   3 1   28.69118419883123039    0.74149762587068047    1.90300101181904324   -0.26850505432427463   -0.58892233751701251    0.83795596235287417
   4 1   29.23227658387732930    1.12971034829602868    0.49030787023583566    0.74971564996319984   -0.57489971232882908    0.37613052552047854
   5 2    0.10833421858403901    0.22291213665161380   29.74328012721777270   -0.32454761068961346    0.02585803304360113    1.35922652818179301
   6 1   29.73970048930940635    2.58389534077307204    0.61750591533539456    0.40959326929121076    0.38447801694579864   -2.66407999443283838
   7 1   28.55792251384288605    3.52156018904090651    0.54238682253534065   -2.52651790766229567    0.87259551003422464    1.75880261931534787
   8 1   27.39243462789763583    2.49864793481652958    0.77647176955954278    0.96457880698102494   -1.22456096190530794   -0.38973177623024147
   9 1   27.97348676943996537    1.41803228598263020   29.82738753685276478   -1.63722327684614344    0.35823611245760351    0.18615551022880791
  10 3   27.43862690976812502    2.58216078464615739    4.01804569471444673    0.12342840415310222   -0.77322704875044768    0.01449361176585195
  11 3   29.39826287507781899    0.86299043936017228    2.71898248505169882    0.92935540785672499   -0.48616180147849597   -0.03826265508841276
  12 3   28.12162945013243132   29.79324234330949039    2.06811265919135412    0.53184219574078218    0.29005085610893128   -0.48225278782958664
  13 3    0.21458624301803622    0.53522879261427714   28.82916702280533983   -0.13818275261139612    0.27291687028391154   -0.22991976294035044
  14 3    0.26467939080068392    2.85965964674658846    1.45847282325889682    1.55357511413496052   -0.17933582959464056    2.05062624765204582
  15 3    0.36722571224061756    2.72361587402107430   29.70447293416346923    0.02419107184635871    0.14027302745691173    0.36062259537596475
  16 3   28.49162145035872484    4.30593830603691430    1.38477481387796519    0.48854507226868144   -1.02189690096732555   -1.16006082152246726
  17 3   28.23992221893577792    4.01295100598962495   29.64017010905975624    0.68021759046665453    0.67811944824379178   -0.86177976058291539
  18 3   26.36650225859967733    2.85393411989667856    0.58083031761737647    0.28446504885425505   -0.41655235818107583    0.34868946856650929
  19 3   27.59658586130440838    1.05257210022323333   28.91016159021198817   -0.33077160012420059   -0.23391554793998065   -0.61855804534860270
ITEM: TIMESTEP
300
ITEM: NUMBER OF ATOMS
19
ITEM: BOX BOUNDS pp pp pp
0.0000000000000000e+00 3.0000000000000000e+01
0.0000000000000000e+00 3.0000000000000000e+01
0.0000000000000000e+00 3.0000000000000000e+01
ITEM: ATOMS id type x y z fx fy fz
   1 2   27.35499560087933446    2.47136546741514085    3.26516527169187487   -0.94521665385447351   -1.19903985356180565    0.35413363197277770
   2 1   27.84407477619893001    2.03518334650656563    2.10595953005210079    1.25652376612397543   -1.91320317343374335   -0.27043554096336048
   3 1   28.79721597390334153    0.78279908084046768    1.88950209001123737   -1.71009165834070487    0.46683122186639764    0.36485247199230852
   4 1   29.25940638632555491    1.15849509155811359    0.50250211676650491   -0.43431466830722343    1.98035052952310053    0.05112800750501378
   5 2    0.05045183891298808    0.18731687548881440    0.01129128197682108    1.23730833207214452   -1.01019035720960559   -0.21066780351031866
   6 1   29.82989928615772257    2.68717663651396332    0.25767906835991922    1.29724640277260317   -1.07467370633871884    0.48849321909356558
   7 1   28.52668238508956122    3.66990067843615986    0.44241505571953377    0.77421268306832158   -1.99334478234210777   -1.45833563554135903
   8 1   27.45791794702102351    2.57983328373174636    0.80257132662642316   -0.15341958487931306   -0.07982317635684907   -1.10221370169867106
   9 1   27.91788060323802156    1.40380644923082332   29.87277258818048153   -1.24372648089232918    0.69422356169454702   -0.05925850548443734
  10 3   27.92979157425591197    3.18734077700351071    3.47622998528713145    0.98767027383985750    1.41080857299160378    0.68538356224146213
  11 3   29.57974782722821416    0.73883449537961554    2.65358558062196082    0.14407470293655014   -0.11634743157106209    0.02335544583137095
  12 3   28.23791535560476973   29.78923398610603002    1.73801468087863875    0.48350701301286225    1.10490807140249081    0.79144211347328675
  13 3   29.82793835712053010    0.09214828864417179   29.08798812249001031    0.04569212529209743   -0.14063043691364341   -0.89642585554078380
  14 3    0.80640181782454867    2.82002144947415223    0.86362029935990825   -1.43257307445093396    0.27682546401251068   -0.07367933092070489
  15 3    0.26184358156775955    2.70517994385242977   29.20176400394248617   -0.92023451332143980    0.30212331652740199    0.65084063168535167
  16 3   28.66177042673468733    4.42056282074226736    1.22008070023922377    0.00373058036293744    0.38535902966020497   -0.16939621144841363
  17 3   28.36890842631195042    4.00685150293633985   29.37715114942347583   -0.22462013936837377    0.62423604915028941    0.98108871688769450
  18 3   26.36926912120365429    2.79848457229291814    0.79382203084941794    0.40859562421543988    0.21832637726934237   -0.41761292608253242
  19 3   27.31130590736163910    0.98962467074185445   29.05768403778772324    0.42563526971799620    0.06326072362962945    0.26730771050773972
ITEM: TIMESTEP
400
ITEM: NUMBER OF ATOMS
19
ITEM: BOX BOUNDS pp pp pp
0.0000000000000000e+00 3.0000000000000000e+01
0.0000000000000000e+00 3.0000000000000000e+01
0.0000000000000000e+00 3.0000000000000000e+01
ITEM: ATOMS id type x y z fx fy fz
   1 2   27.14054571422610707    2.09875098129714743    3.21525115158308994   -0.36774336977821731    1.33705217822611622    2.02736419501567022
   2 1   27.88551212674650515    2.15533171738155227    2.16530119806369958    0.62374801031503491   -1.21517322926553240   -1.63570227914857869
   3 1   28.96367382106157962    1.08038721896506829    2.02059850683055009   -0.32779118538947427    0.88386653945925930   -0.56059612871548103
   4 1   29.24413503034655548    1.21673957670657984    0.48248824187206696   -0.48053851452778562    0.45040153096753477    1.75175039853328940
   5 2   29.95008911913134497    0.09279885064475039    0.09308212239896063    0.28541679229800876   -0.20224677172749506   -0.33206747722566299
   6 1   29.75500290467841680    2.61745337790129273    0.06212043229712125    0.67659201174422012   -1.77514781055550719    0.53882356446136459
   7 1   28.72939491186505379    3.66456327799323134    0.44135164037015212    0.90408157444817694   -0.66573158885273698   -0.48728232944075123
   8 1   27.55730309856467386    2.73418013325445308    0.76173085706319510   -0.79933397101111769   -0.82146844059853008   -0.23112511759593854
   9 1   27.86006433357775691    1.42351124860232425   29.88538873476186453   -0.53576916977059108    0.89897864115400250    0.93236479239954362
  10 3   27.53161658376532728    2.73268638194122993    3.90272933825362145   -0.47856080414084096   -0.86254714571926994   -1.08928733997930616
  11 3   29.77190734785087400    1.37395399553100295    2.74684112127636659   -0.05073890247293217   -0.49339120837299871   -0.64528248581875247
  12 3   28.61651465154335483    0.01691446458119315    2.08530104247123882    0.05575688080642763    0.48088187558762319    0.62278704945392327
  13 3   29.84642844029319519    0.09428015650236331   29.13546551613562841    0.40750806899905290   -0.26461869268985339   -0.70562606204868128
  14 3    0.77975666895734641    2.88264784897011594    0.21489814692466858    0.76485308298917509    0.17121912455068289    0.39330202604454811
  15 3   29.65526946617644199    2.41221706469828945   29.03130022600555193    0.13046236916199305    0.68781386209434825   -1.48782022612014808
  16 3   29.10089475724791797    4.12759513867854722    1.35315029037781920   -0.31615156078180129    0.89936360561664774    0.10706593522654473
  17 3   28.70760400799073508    4.27751224319886703   29.52255937624015658   -0.81905941476635524    0.68412344319719653    0.47424009164141390
  18 3   26.54323819593872358    3.18574290640170021    0.66080304604660645    0.45371549131036293   -0.33607014839823218   -0.02317544936377182
  19 3   27.48479557497045178    1.00789157573548205   28.95942122624188642   -0.12644738943333783    0.14269423532674291    0.35026684268076985
ITEM: TIMESTEP
500
ITEM: NUMBER OF ATOMS
19
ITEM: BOX BOUNDS pp pp pp
0.0000000000000000e+00 3.0000000000000000e+01
0.0000000000000000e+00 3.0000000000000000e+01
0.0000000000000000e+00 3.0000000000000000e+01
ITEM: ATOMS id type x y z fx fy fz
   1 2   27.36067386496603504    2.54930110897483253    3.23655264049281755   -0.63314102535106331    1.66431221178771582   -0.16029812049697001
   2 1   27.89781447667240499    2.08439038675755306    2.11067179651137415   -0.15199175924718003   -1.79262598494400982   -0.78270991050243155
   3 1   28.90540857908928629    0.86575714015344918    2.01781994907062678    0.09576102700450939    3.64288698375264230   -1.98887284687134880
   4 1   29.18266377760297203    1.12466691812648034    0.46238444662198719    1.34506670765278358    0.22162326666309795    0.82175636031645105
   5 2    0.07376217689826849    0.17594603855528249   29.82673216678172778   -0.47974319599090265    0.06139885249719157    1.18365551410302317
   6 1   29.79911157759464757    2.58116898090155367    0.38275772102812555   -0.20205495719250610   -0.80751208390212736   -1.22611702388387189
   7 1   28.54083841119325271    3.58969566277365359    0.60663323331527685    1.48915182926938505    0.09448544865659617   -1.68666309111618018
   8 1   27.41401464715167435    2.57506074818263864    0.73329528927797649    0.63305220718590582   -1.58954836367274543   -0.67589568647730847
   9 1   27.86671562950216696    1.33543741342913713   29.85390733953617115   -0.36833866472010823    1.49032519205013347    1.09730991478645779
  10 3   27.01585064724049445    3.46357836817970544    2.97030318520050773    0.36562206190487023   -1.40934736821596651    0.89196507484811849
  11 3   29.74438733736367624    1.14668856247825501    2.66945688446798268    0.18654467790096529   -0.52381958095546222   -0.03312080596106237
  12 3   28.59021366299912970   29.88134468708209113    2.06408947590241354   -1.06350472897286452   -2.06461414437068358    0.86314695408842990
  13 3    0.04315316300087250    0.27278019619681831   28.86569029103338835   -0.20843758214002528    0.29581282955874943   -0.41478106591628805
  14 3    0.66508289226067796    2.61594161814834791    1.08475506155950807   -0.31565335165643127    0.57481816836667177   -0.43139320880768128
  15 3    0.08344654783793165    2.61081972372208515   29.23557036580614721   -0.26572707015018615    0.51885658566616333    2.04923458225668220
  16 3   28.58571113777279749    4.28702900368905659    1.46752382503359313    0.09591617888008952   -0.20717398910563151   -0.33618758125632875
  17 3   28.57986396919597283    4.20282268014396188   29.65651545890953500   -0.53378213193645663   -0.05088495194778575    0.68545685341226736
  18 3   26.36851887522554350    2.80967815993083470    0.46564184620718385    0.29915624531536511    0.21939914970794883    0.66272658128553918
  19 3   27.53444400143709458    1.11971129251042312   28.86984263606488810   -0.28789646775616073   -0.33839222159250171   -0.51921249380748802
