128
Lattice="14.2121085805106 0.0 0.0 0.0 14.2121085805106 0.0 0.0 0.0 14.2121085805106" Properties=species:S:1:pos:R:3:forces:R:3 energy=-910.5505164918723 stress="-0.0012385946229040603 -0.0005196772102028897 0.0001772044197334942 -0.0005196772102028897 -0.000741871353081157 0.0005564035148108677 0.0001772044197334942 0.0005564035148108677 -0.0014396711406327403" free_energy=-196470.4067773678 pbc="T T T"
Hf       0.11348227      -0.00397371       0.04902040      -0.59853919       0.57227588       0.44606043
Hf       1.82531227       1.79446915       1.81292073       0.06697210       0.04856120       0.31933950
Hf      -0.02614744       0.00671096       3.46632049       0.20201517      -0.07760258       0.20755282
Hf       1.70951059       1.83843289       5.25293177      -0.19557070      -0.66585221       0.15461612
Hf      -0.11094825       0.01135405       7.06707332       0.46938908      -0.55770904       0.55162401
Hf       1.80426840       1.84651389       8.85146893      -0.26822597       0.01903156       0.11618867
Hf      -0.04369797       0.06404260      10.65282527      -0.10085615      -0.07145841      -0.35280292
Hf       1.69047489       1.87914063      12.40726743       0.66300420      -0.15139992      -0.43293495
Hf       0.09042170       3.57438794      -0.11285409      -0.75097450       0.19810401       0.79658638
Hf       1.83533607       5.29059670       1.80155104      -0.56318961      -0.15576026       0.10516866
Hf      -0.04725952       3.49929969       3.63534510       0.03136977       0.16899733      -0.43428298
Hf       1.80242367       5.43923688       5.25603996      -0.09145285      -0.00930945      -0.01552484
Hf       0.07074930       3.52126308       7.10680043      -0.07755964       0.28043768      -0.09123611
Hf       1.72792095       5.29190279       8.95636992      -0.15411064      -0.04133691      -0.57287598
Hf      -0.08618791       3.62712766      10.69633706       0.16578833      -0.56231543       0.12985562
Hf       1.80555033       5.25847449      12.56901402       0.26961590       0.54222817      -0.75455450
Hf      -0.04397653       7.09160626      -0.00030556      -0.18786871      -0.35700384       0.43766706
Hf       1.84447445       8.93489685       1.73838675      -0.21136242      -0.04185216      -0.49391406
Hf       0.03641569       7.17362292       3.45429989      -0.08202668      -0.22902281      -0.01270176
Hf       1.69796041       8.65073995       5.42099279       0.87887557       1.13752340      -0.73213628
Hf      -0.03043665       7.13846358       7.03124886      -0.24775407      -1.13634275       0.74424952
Hf       1.63913933       8.94644418       8.97688794       1.10171873       0.18644715      -1.04220181
Hf       0.15413884       7.21666571      10.65536071      -0.74492006      -0.79872271       0.55282472
Hf       1.71340328       8.86753856      12.49876641       0.65389813      -0.19617543       0.12877267
Hf       0.06775054      10.66780199      -0.05448496      -0.52546664      -0.31414201       0.83226584
Hf       1.83651283      12.47027966       1.68833739       0.20000740      -0.27856334       0.67409697
Hf      -0.07965745      10.61190434       3.42957651       0.79385407       0.00318585       0.85783314
Hf       1.80552333      12.28998059       5.33047161      -0.27987641       0.41450091      -0.47372113
Hf       0.03406927      10.68544063       7.02858551       0.52261451      -0.14406688       0.26734691
Hf       1.79961251      12.41840404       8.97362626      -0.20100010       0.16505274      -0.51198737
Hf       0.01529365      10.59629376      10.72130063      -0.52789093      -0.07002528       0.38780386
Hf       1.62351596      12.46083003      12.54386143       0.52644546       0.27133520      -1.04815340
Hf       3.55794596      -0.06411509       0.01220536       0.22048032       0.25911501      -0.23328673
Hf       5.36192159       1.89066523       1.80550485      -0.23783758      -0.59506023      -0.33307150
Hf       3.52067754       0.04714725       3.65283026      -0.06763467      -0.53083947      -0.08667009
Hf       5.27717478       1.78756207       5.24124515       0.53162289       0.00137940       0.11773801
Hf       3.51016200       0.02227322       7.10687717       0.12141340      -0.34997625      -0.30622430
Hf       5.44528129       1.61908036       8.87980361      -0.60657363       0.40775356       0.07892438
Hf       3.54635882       0.10746486      10.63463661      -0.03286076      -0.05882298       0.17229811
Hf       5.28504971       1.76451855      12.50368664      -0.05903998       0.18870560      -0.20427003
Hf       3.51632864       3.57323676       0.04292767       0.41646600      -0.02886218      -0.24002611
Hf       5.37914950       5.34374004       1.69761932      -0.36210697      -0.03775151       0.10005062
Hf       3.57726021       3.56502074       3.61794379       0.08929750       0.11487175      -0.31547796
Hf       5.32090828       5.26170632       5.37711433       0.65966897       0.20238439       0.06566238
Hf       3.52791009       3.51422240       6.94803554      -0.03690022       0.32706155       0.82067865
Hf       5.48107022       5.33199089       8.86693454      -0.65606505      -0.07359346      -0.06777171
Hf       3.48735299       3.58189194      10.56226002       0.77310038      -0.21280507       0.52656244
Hf       5.49647330       5.47277177      12.46900199      -1.12106577      -0.18814150      -0.22975532
Hf       3.53401561       7.06728508       0.11851477       0.21758012      -0.00750454      -0.34896349
Hf       5.37751938       8.83808965       1.80646701      -0.28761131       0.31221163      -0.04850926
Hf       3.62716603       7.12560447       3.52239863      -0.11825969       0.26892376       0.09692288
Hf       5.39879348       8.90161635       5.36615253       0.18973919      -0.18646437      -0.43914493
Hf       3.65087609       7.00857912       7.07950607      -0.41192621       0.11894772       0.47881551
Hf       5.28160185       8.81115912       8.92637669       0.70432234       0.06983373      -0.35582217
Hf       3.55467006       7.12834172      10.66285191      -0.37145190      -0.28305532       0.08983126
Hf       5.31358194       8.95494018      12.49736367       0.10452897      -0.51132608      -0.40004051
Hf       3.53314441      10.75815404      -0.09831937      -0.30328193      -0.13883854       0.45183050
Hf       5.28290368      12.37260126       1.81275303       0.29818780       0.41325804      -0.36608550
Hf       3.62368975      10.62147620       3.41623418      -0.13629161      -0.22301672       1.04921398
Hf       5.46867300      12.40237705       5.40535521      -0.81646512       0.11247779      -0.52756029
Hf       3.64235593      10.69127470       7.05933767      -0.45243805      -0.28686338       0.59678184
Hf       5.36729661      12.47317324       8.90515801      -0.02082311       0.04771505      -0.23665590
Hf       3.55718703      10.64346517      10.65170535      -0.23102416      -0.23334561       0.25969016
Hf       5.30135953      12.34327315      12.43780641       0.61548944       0.41647012      -0.02665128
Hf       7.10846609       0.03985644      -0.05697919      -0.37404974      -0.19873676       0.05601508
Hf       8.95597767       1.66556817       1.77368821      -0.39076320       0.51661176      -0.23703874
Hf       7.16187519      -0.02413216       3.58271908      -0.24249462       0.04568542      -0.31776084
Hf       8.81564162       1.83880098       5.32027584      -0.09119497       0.10247234      -0.08735117
Hf       7.10008236       0.01425190       7.02321333       0.28265345       0.53336609       0.12717653
Hf       8.97525213       1.74540042       8.86016105      -0.23889379      -0.29837935       0.12709889
Hf       7.04843698       0.00627891      10.68364280       0.34904525      -0.29550357       0.92694825
Hf       8.85724331       1.87606087      12.50845196       0.09196245      -0.31711961       0.01956224
Hf       7.04207422       3.67697663      -0.07790509       0.40654900      -0.64462441       0.40456128
Hf       8.88176346       5.48067512       1.74319328       0.11122515      -0.80474063      -0.14490557
Hf       7.01600921       3.60613922       3.47203234       0.44748842       0.30860360       0.07447843
Hf       8.79283261       5.22464399       5.38335629       0.01591899      -0.17734518      -0.22361604
Hf       7.04526200       3.48530076       7.17774727       0.25770681      -0.44078581       0.02737582
Hf       8.86459949       5.29505077       8.92449643       0.40083318      -0.05479021      -0.69652599
Hf       7.24056337       3.53810301      10.72712901      -0.74859211      -0.14041977      -0.27954653
Hf       8.88969097       5.27605771      12.40935377       0.39508805       0.09982719       0.31724739
Hf       7.10266470       7.14194271       0.06756010       0.19002484       0.44034333       0.11688955
Hf       9.00231767       8.88706742       1.71175184      -0.27894155      -0.24227094       0.31024473
Hf       7.14590789       7.02314085       3.51648497       0.08793121       0.14480967       0.37175426
Hf       8.89177305       9.07978361       5.24300319      -0.27212530      -1.21244098      -0.41910344
Hf       7.23073001       7.10004825       7.14790184      -0.31053424       0.48488794      -0.29052540
Hf       8.88800542       8.78603638       8.92288761       0.02497930       0.38374666       0.30468035
Hf       7.16594554       6.91711426      10.58014170       0.01712252       0.80179929      -0.03342177
Hf       8.80146504       8.77023109      12.43647332       0.63199104       0.47911967      -0.29980965
Hf       7.15263448      10.50888645       0.02604511       0.11222762       0.34302681      -0.14045705
Hf       8.88300275      12.47280373       1.74682164       0.02070047       0.59169980      -0.34967929
Hf       7.15868599      10.77184173       3.54363010      -0.18954970      -0.06489233      -0.09714733
Hf       8.88393365      12.53332457       5.32580293      -0.02110979      -0.33109227       0.07901360
Hf       7.16859183      10.59438650       6.98673227      -0.02570255       0.03877686       1.04835703
Hf       8.77859776      12.46146389       8.91600185       0.13736839      -0.07763626      -0.01547110
Hf       7.17356181      10.70159980      10.78047416      -0.46602530      -0.15756723      -0.42028589
Hf       8.86835291      12.31076437      12.45243351       0.27614291       0.54253953       0.05836301
Hf      10.78646172       0.09206320      -0.00260082      -0.79583125      -0.70480365      -0.24624226
Hf      12.40385653       1.82912680       1.69041946       0.37027099       0.34200531       0.17641187
Hf      10.64787661       0.09817156       3.54196870       0.36639094      -0.12551457       0.25293819
Hf      12.51865057       1.80081628       5.36475548      -0.18140238      -0.09529717       0.42662546
Hf      10.63578210      -0.07119982       7.14744990       0.39861175      -0.10061524      -0.14712624
Hf      12.29390313       1.73287671       8.82663185       0.11653936       0.34009164      -0.21286214
Hf      10.72617396      -0.00399218      10.70309065      -0.11925985      -0.52010769       0.10845813
Hf      12.45341983       1.77388860      12.49746032       0.76849451      -0.00946912      -0.09268467
Hf      10.70119191       3.48509469      -0.08088822      -0.42045893       0.26646733       0.53104979
Hf      12.37301199       5.24391987       1.93153215       0.38149206      -0.03605098      -0.51871955
Hf      10.72099507       3.56325844       3.68346019      -0.49993661      -0.47587674      -0.18348318
Hf      12.44100272       5.24925510       5.28547181       0.01792805       0.62340047       0.05677587
Hf      10.59854354       3.52594171       7.07118346       0.14999970       0.27372041      -0.18773013
Hf      12.46869785       5.27409928       8.95357440       0.27634500       0.65844101      -0.37461616
Hf      10.72494035       3.51829844      10.63194626      -0.34901903      -0.23301085       0.09946878
Hf      12.28378695       5.27631779      12.38475545       0.60962656       0.47462693      -0.25172026
Hf      10.68151099       7.05674254      -0.05354128       0.44792808      -0.07563311       0.31448731
Hf      12.48962944       8.92754208       1.81799303      -0.79900193       0.00967275      -0.87320474
Hf      10.57857837       7.08938917       3.40152607       0.15073966       0.04340588       1.01194584
Hf      12.46038945       8.83171694       5.38191802      -0.27178463       0.54749225      -0.85223817
Hf      10.71875239       7.17563820       7.07207314      -0.42539930      -0.58014449       0.04902965
Hf      12.54418689       8.82773613       8.72566192      -0.30288135       0.63368925       0.55531740
Hf      10.63412639       7.06336538      10.67428981      -0.04718566       0.34133657      -0.06223767
Hf      12.38529836       8.87920244      12.49838695       0.09769909       0.10787655       0.09923353
Hf      10.62413244      10.75680674       0.06263418       0.20379155      -0.19039456      -0.25842981
Hf      12.39079702      12.43346746       1.85413442      -0.14754378       0.04840205      -0.27613057
Hf      10.58162544      10.74737416       3.55868072       0.53940305      -0.17794039      -0.08138570
Hf      12.46624484      12.33546786       5.36220299      -0.07620467       0.42379982      -0.63038153
Hf      10.57776117      10.60848207       6.97258554       0.14037966       0.20739598       1.00682549
Hf      12.46737755      12.25557165       8.95181778       0.36275103       0.68945263      -0.77536321
Hf      10.78990674      10.69694107      10.57291200      -0.68755438      -0.57298037       0.49633835
Hf      12.58343505      12.45147846      12.50113557      -0.23107301       0.00373041      -0.35730878
128
Lattice="15.390456045920681 0.0 0.0 0.0 15.390456045920681 0.0 0.0 0.0 15.390456045920681" Properties=species:S:1:pos:R:3:forces:R:3 energy=-703.9776084359037 stress="-0.02323122397977653 -0.01299560288553304 0.006616243775127249 -0.01299560288553304 -0.04155122287585119 0.0006675005862500014 0.006616243775127249 0.0006675005862500014 -0.02050245954740376" free_energy=-196263.83386931184 pbc="T T T"
Hf      -0.11259812      -0.19789664      -0.32745966       0.48357077       0.34758358       0.49525258
Hf       2.15420059       2.63207118       3.48480248      -9.23499144      -4.11766696      -9.63861169
Hf       0.69591333      -0.05734946       3.50887931      -0.66192177       2.37430270      -1.34766918
Hf       2.45847914       0.89372686       5.04609191       1.37201264      -1.42771147       3.38032703
Hf       0.65218135       1.14425886       7.23925036      -2.01735233      -1.42905153      -0.86770489
Hf       2.42937117       1.62748224       9.49649468       0.51537969      -1.60577682       5.68457719
Hf       0.19784277      -0.76038395      11.83085595       0.54774190       2.92238399       0.36511670
Hf       2.31238832       1.23206449      14.02475623       0.40739104       0.10582943       0.06127659
Hf      -0.52963638       3.90903424       0.17470938       2.83656725      -1.77756328      -1.07422053
Hf       1.12475300       6.13317061       2.01208820       1.29481115      -0.74815065       0.55508549
Hf      -0.95180429       4.52557130       5.03757791       8.45001204      -5.32723576      -3.13335843
Hf       2.00939179       6.03435926       4.90587100      -0.35023799       1.65714541       1.54108247
Hf       0.86833261       3.38229127       8.77408206      -3.39935191       3.74719542       1.10121788
Hf       1.54370276       6.35099943      10.38411615       2.66285349      -1.05872526      -0.52511414
Hf      -0.04218370       4.01459430      12.16051798       4.84526782       2.46628417      -3.58875942
Hf       1.99616985       5.50946468      13.85091333      -2.26092039      -0.03111883      -2.31753814
Hf      -0.19803208       7.41804129      -0.06761643      -1.75601178      -5.74509967       5.00967650
Hf       2.28894250      10.22730741       2.03815809      -2.22095491      -6.71315652       0.73321949
Hf       0.41707982       8.25632250       4.04181079      -1.39293833      -1.69935855      -2.13362636
Hf       0.86642265       9.67665228       6.14449798       0.77395630       2.09406068       1.95018252
Hf      -0.52549327       7.77184633       8.08503595       3.03735421       1.61037061      -2.81309462
Hf       2.68941602      10.52492035       9.88200406      -9.38124992      -5.18024862      -3.90960404
Hf      -0.57784698       7.88300390      11.04796808      -1.28909585      -0.39023921       2.24819626
Hf       0.92930652       9.08730862      14.86210477       6.85277797       7.21936071      -3.01920196
Hf       0.53840432      11.47122255       0.56245037      -2.37476704       4.36322506      -2.26514111
Hf       2.52214177      12.42435349       2.50080598       3.01016531       6.30983220       2.17380165
Hf      -0.04766116      13.12700168       3.06330560      -2.75914928      -4.57310626      -2.49757192
Hf       2.49536391      13.09600838       6.61974449      -0.17671912      -0.11789691      -0.31412839
Hf      -0.83498611      12.05394985       8.51538850       3.81999878       3.45178210      -5.65798401
Hf       1.71891079      13.49806866       9.87461356       0.42624494       0.06073486      -1.63546792
Hf      -0.41222105      11.91205754      12.18434548       3.27944697      -3.00215066      -2.18731331
Hf       2.59257157      12.98483696      13.37022475      -3.70230371       5.11369973      -4.30210634
Hf       3.99147014      -0.63537035       1.07334118      -0.81654071      -0.41919677      -0.73242373
Hf       5.26899035       1.53764969       2.32539633       0.83593789       2.83115251      -2.13277378
Hf       4.64637714      -0.22555483       4.15133543      -5.43253169       0.40016213       0.78487295
Hf       5.77046373       1.58348555       6.24006810       0.26430401      -0.31820693       0.57157706
Hf       3.36405512       0.71775700       7.44351865       3.67455096      -5.94874827       0.03795051
Hf       6.96837988       1.37374749      10.16225195      -0.30235530       0.90409397      -2.40646643
Hf       4.96455635      -0.11188246      11.25070501      -7.43759852       3.56307307       3.61625300
Hf       5.42641470       1.24156964      14.22552165      -0.24902960       0.05822340      -0.22621903
Hf       3.73515749       3.61422390       0.17287330       0.26018536      -6.12354986       0.05365147
Hf       5.55710122       5.20769939       2.16963106       0.83896433      -0.40494361       1.13757688
Hf       3.46570446       3.87130608       4.42456373       9.07677577       5.15378246       3.28545846
Hf       5.03589727       5.17800043       6.13815558       1.78759650       1.51532927       0.15405330
Hf       3.24535930       3.21506627       7.31977631       0.44443729       3.40008544      -0.72350303
Hf       5.30860076       6.33475018       9.24281995       0.35330094       0.96981317      -0.19432758
Hf       5.32072690       4.17260965      10.72325716      -5.66961414      -1.72280804       1.35452014
Hf       5.15499324       6.08900769      13.05837718       0.34305304      -1.08998370      -0.90673655
Hf       3.70027656       5.85015243       0.16214307       0.93031691       7.43575478       2.50693923
Hf       4.78354458       9.83039370       1.95648556       4.67144042       3.09936047      -2.21747338
Hf       3.99843279       7.86679929       3.12850265      -2.42069157      -4.12617860       2.03150291
Hf       5.59774126      11.48559262       5.97510139       5.74578796      -0.95944417       3.17761174
Hf       3.63269399       8.39907359       8.01241301       0.62030795       0.10125493      -0.90058159
Hf       6.21384122       9.43462505      10.20917283      -0.91485610       4.77717575      -6.20009315
Hf       4.04387465       8.68388014      10.97854789      -2.22778170      -3.99416814       3.15559127
Hf       6.04223148       8.79559946      13.54935889      -2.29363871       2.09706116       4.33764592
Hf       3.37721703      11.93048761      -0.26507598       3.64698796      -4.28341184       5.04006951
Hf       5.77470226      13.07231785       3.62976672      -7.00262212      -1.23408941      -4.85162539
Hf       4.02091209      10.20677192       5.15887779      -5.63946873      -4.15598309      -3.16921863
Hf       5.50257130      13.79917677       6.52052222      -0.51160839       3.83033256       1.24804150
Hf       4.50917738      11.77012983       9.00402471       4.43027146      -1.11713507      -9.05447737
Hf       5.36365550      14.06065908       9.37611515       1.85513115       0.11594647      -2.68818194
Hf       3.65226449      11.99316678      11.14750893       2.90329175       4.11171846       9.95377135
Hf       5.91549723      13.30395345      12.77636554       0.10443204      -2.79356349       2.31033802
Hf       8.02941946      -0.06969722      -0.51857988      -0.18538014      -0.37971517       0.41335883
Hf       9.53793194       1.18230868       2.87539736      -5.20346466      -1.19470062      -1.87668059
Hf       7.12101319      -0.13920975       4.32149077       5.45285523       1.97698576      -0.25767904
Hf      10.07271797       2.13786978       5.64521004      -1.68528562      -0.21276187       2.95326242
Hf       8.26315894      -0.90712579       7.06850249      -1.76449205       4.25287665       6.22082112
Hf       9.20674934       1.85521328       8.70291967       1.57144437       0.45560951      -0.33464810
Hf       7.33060349      -0.06205586      11.96078064       3.07094850      -0.49824945       4.41273730
Hf      10.15189571       2.45824059      12.35645849      -3.05389694      -3.57925534       1.41451143
Hf       8.46498938       3.48644772      -0.18039615      -0.48855177      -0.53063404      -0.08737997
Hf       9.71738620       6.85986485       1.93657801       0.76901233      -7.52163297       4.13080684
Hf       6.97897159       3.03070707       4.14792029       0.60791266       1.28843842      -0.23064441
Hf      10.29576723       6.09514695       5.10317203      -6.58652944      -4.57795125       2.09602552
Hf       6.45131134       3.29155837       8.44174055       0.42384070       2.35532179      -2.16361211
Hf       9.33643547       5.28304183       9.54660446       0.96752823       0.64333346      -0.41421295
Hf       7.56186818       4.06910268      11.32982735       3.61608433       0.39426864       2.18530039
Hf       9.81454307       5.62490695      13.22362297      -3.16991412      -2.72897481       2.12251379
Hf       9.04696716       8.09266039      -0.09086064      -4.99347932      -2.64247133      -8.29530671
Hf      10.05051108       9.15046952       1.46752154       4.39013037      10.22078453       5.70947833
Hf       6.90891116       7.35248411       4.51780527      -0.19191948       0.23908148      -0.17482576
Hf       9.11849738       9.23184501       5.80960936       0.14336728      -4.46040170      -3.55492319
Hf       7.26569271       7.82057713       7.73826128      -0.22709911       0.05107754      -0.81976488
Hf       9.22014057       8.89099412       9.97905319       1.69285366      -0.97014921      -1.88148470
Hf       7.24660085       8.21956547      11.70808320       3.45406164      -9.35048488       0.00274542
Hf       9.38274228       9.58623027      13.01920539       6.23396640      -5.35552715       5.42907253
Hf       6.67538869      11.04600272      -0.44389769       1.47245638       1.30599828       0.68797296
Hf       9.30604548      13.09299801       1.70008826       0.79728701       0.84550162      -1.34828341
Hf       7.70036074      12.12098913       3.80564885       5.18659102      -5.72228319       0.16683477
Hf       9.22723865      13.32808415       5.50858589       4.88825718      -0.93606924      -4.24753467
Hf       9.43249193      11.03935404       7.09644694      -2.65223869       3.17173651       4.31697143
Hf       9.66016294      14.74779831      11.09001172       1.92522791      -0.33290181      -1.20278263
Hf       8.11615238      10.81391464      11.85709052      -5.92707490       7.83212042      -5.09823892
Hf       9.49958662      12.32552983      13.69442779       0.26541009       2.89952997       1.16675093
Hf      10.45963557       1.24949264       0.17175903       1.29794455       0.91208728      -0.52294670
Hf      13.04762233       1.61869429       1.65271797       3.40168621      -0.89479507      -2.26904636
Hf      11.60999829       1.71090005       3.65680622       3.93822042      -5.05091545       1.17669133
Hf      12.88621184       0.05576886       5.82672662       0.36161229       4.69634592      -6.77954035
Hf      11.95712849      -0.24084217       7.71445686      -3.71467045      -1.52235738       6.99873821
Hf      13.13633138       1.71429827      10.72676618      -0.31978456      -0.51349584      -0.57129552
Hf      11.68063125      -0.12626792      13.21224788      -0.35001893       0.86331062       0.87747174
Hf      13.58683773       3.08338399      13.12842376      -4.35257118      -3.98073644       4.98841244
Hf      12.12697140       4.04607548       1.60523688      -5.22860953      -3.75181698      -4.64967012
Hf      13.41409063       5.73840849       1.12465604       1.06058417       7.07984212       2.67668474
Hf      11.94890229       3.90071108       3.88613478      -1.17102153       4.42528969       4.84309164
Hf      12.91560146       5.71861944       5.82293287      -1.30693699       8.42344021      -0.03627312
Hf      12.03801303       4.72088388       7.54662855      -3.29324659      -3.75875536       5.30043818
Hf      14.42299351       5.63600501       9.34863703      -2.35305536      -3.33709470       0.92125763
Hf      11.72172069       4.13078455      11.73900571       2.39057315       4.72913160      -3.88479289
Hf      13.83193074       6.37000356      13.83663714      -2.82030245      -3.82112518      -6.58957414
Hf      12.43396945       8.34737859      -0.16197993      -3.95224887      -1.52717691       0.42635472
Hf      13.85054396       9.82992275       1.61963619       1.43281537      -0.18859196       1.36459423
Hf      11.74908646       7.68597220       4.55121487       1.90609376       3.17649614      -2.82413571
Hf      12.99562875       9.75353222       4.35256718       1.96096650       3.84814799       1.10971384
Hf      12.29726988       7.92667124       8.63968952      -2.10314696       0.00287167       0.72012177
Hf      14.60541197      10.16491450       9.97959186      -0.15635033      -2.38717107       0.89807682
Hf      11.24808094       7.35826938      12.33587376       2.74001718       2.87814147      -2.25438773
Hf      13.62033506       9.66031839      13.30890610       0.23978777      -0.03678169      -1.21935005
Hf      11.99282357      11.29955894      -0.04286704      -0.87043515       0.92621215       0.12147357
Hf      12.56947472      14.31540961       1.23548271      -0.38779615      -1.06072044      -0.09926412
Hf      11.61972967      12.41827580       3.53641591       0.15130582      -0.29830556       0.23204669
Hf      14.19351412      13.61633969       5.32995964       1.57228872      -3.55773237       1.59420969
Hf      11.92902244      11.36186258       7.18499747       2.57946850      -0.10143233      -1.02694874
Hf      12.63694186      12.21735032       9.84858060       1.71385546       8.33932991       0.21143287
Hf      11.35105387      10.77356548      10.70556891      -5.26684672      -6.16084731       3.44114210
Hf      13.78865432      13.52002622      13.39391528      -3.40641138       0.13826184       2.95999177
128
Lattice="12.734661690103763 0.0 0.0 -6.367330845051882 11.028535390172113 0.0 0.0 0.0 20.206673498125387" Properties=species:S:1:pos:R:3:forces:R:3 energy=-929.6395991497848 stress="-0.018011497937367643 -0.0004875416936709088 0.00018546783827028926 -0.0004875416936709088 -0.01580883781850416 0.0005371222048916793 0.00018546783827028926 0.0005371222048916793 -0.018001398203600447" free_energy=-196489.49586002572 pbc="T T T"
Hf       1.70531510       0.91507204       1.31193758      -0.70787149       0.54840705      -0.38678725
Hf       0.04879922       1.85604638       3.82515872      -0.08964614       0.08566710      -0.67581010
Hf       1.56568590       0.92575642       6.22787993       0.14733192      -0.24264709       0.66595686
Hf      -0.06700342       1.90001025       8.76381080       0.44670629      -0.90085361       0.80967638
Hf       1.48088452       0.93039820      11.32727400       0.65944065      -0.39788310      -0.28952858
Hf       0.02775520       1.90809039      13.86098903      -0.13767795      -0.45237069       0.44369116
Hf       1.54813499       0.98308787      16.41166663       0.45349580      -0.12600000       0.22988542
Hf      -0.08603792       1.94071660      18.91542974       1.13698681      -0.52335499       0.32282797
Hf       0.09042119       3.69754086       1.15006348      -0.02553954      -0.11592718       1.09741445
Hf      -1.53301004       4.55628112       3.81378794      -0.44235470       0.05056511      -0.18548967
Hf      -0.04725960       3.62245220       6.39690328       0.84989923       0.92208527      -0.99804954
Hf      -1.56592277       4.70492137       8.76691933       0.28671194      -0.50696986       0.89586619
Hf       0.07074869       3.64441567      11.36699978      -0.96698187       0.42493985       0.13151347
Hf      -1.64042436       4.55758770      13.96589081       0.12780800       0.27697003      -0.76228092
Hf      -0.08618819       3.75028146      16.45517843       1.03199633      -0.04945208      -0.29543595
Hf      -1.56279641       4.52415921      19.07717523      -0.39243056       1.31329198      -0.97488853
Hf      -1.63580932       6.41886675       1.26261114       0.49148514      -0.05397980      -0.12283522