LAMMPS DATA file

81 atoms
2 atom types

0.0000000000000000e+00  9.31284498 xlo xhi
0.0000000000000000e+00  9.31284498 ylo yhi
0.0000000000000000e+00  9.31284498 zlo zhi

Masses

1 1.00784 # element 1
2 15.999 # element 8

Atoms 

1     2     8.79132032      9.19484386      0.46916611
2     1     1.53065811      0.19062150      1.71843086
3     1     1.11118361      8.44958838      0.84218004
4     2     1.12863120      6.22615906      4.37109437
5     1     7.87328184      8.01527367      8.63013413
6     1     0.87621183      0.36287354      3.82263893
7     2     0.91241073      7.79382386      5.59434387
8     1     8.35980948      8.08296611      7.86530761
9     1     7.11913602      8.29128726      8.22123757
10    2     7.30360841      1.45418926      0.62710502
11    1     2.29037175      6.58193316      0.01792591
12    1     2.99802251      6.60547707      4.27229610
13    2     2.31728736      4.26743463      3.98695266
14    1     1.03067760      0.07899747      6.68733535
15    1     0.66552826      3.90685689      3.22922042
16    2     8.82976943      3.55624565      5.15721261
17    1     8.30105943      2.73283615      5.57704246
18    1     0.45187314      4.22636012      5.00767437
19    2     1.51497878      0.53954722      0.58441120
20    1     0.23820111      5.77558623      3.23130932
21    1     0.60729479      8.00864832      9.00094108
22    2     0.79506994      8.53057621      3.45406008
23    1     1.51125204      1.82412744      0.38181515
24    1     9.25687827      8.16233856      3.90846999
25    2     8.61792023      5.33862463      4.01269038
26    1     0.69319196      8.31290263      6.66189089
27    1     8.90164106      6.45408091      4.03298881
28    2     1.72735076      7.86104702      9.16643667
29    1     4.10831365      5.88617482      8.33095797
30    1     2.21415011      1.22053163      3.59688055
31    2     3.27494344      0.45506059      5.28016610
32    1     4.14046463      9.02946370      5.90421769
33    1     1.93167395      2.45313502      5.38897948
34    2     2.62199868      9.08089270      5.11414393
35    1     2.72713219      0.66481845      0.29905087
36    1     0.81557695      3.10040090      3.68768647
37    2     2.98396049      3.64819066      0.58337329
38    1     3.26518089      2.85983049      8.94363615
39    1     2.28952628      2.75611126      1.11506340
40    2     1.35435511      2.70385256      2.77037244
41    1     3.27580803      5.41670110      3.15311681
42    1     3.00715575      4.27551046      2.69281414
43    2     3.11242635      2.77364868      5.20876048
44    1     2.88353425      3.65685888      6.14942616
45    1     4.13705209      2.83405053      5.70520823
46    2     3.15283610      7.25317240      8.06614344
47    1     4.65312753      5.40723663      7.35746269
48    1     2.14924143      5.54402832      6.74978638
49    2     1.99889425      5.41960671      4.16148343
50    1     1.79382033      7.82359762      4.78835828
51    1     2.38745039      6.09642139      5.20323826
52    2     3.06833643      6.29515007      7.09980023
53    1     5.82500595      8.12555015      6.64266512
54    1     3.73045761      1.89249184      4.59103862
55    2     6.31863499      1.00093907      7.55209561
56    1     4.76864432      1.00899570      6.49191057
57    1     6.05011082      1.50137802      5.33290364
58    2     5.50167650      8.39213985      3.71527595
59    1     5.94853086      6.95073243      4.08843497
60    1     8.98467332      7.96596219      0.30283612
61    2     6.26088468      0.69505232      6.18141947
62    1     0.22177077      1.32747229      1.39589177
63    1     5.44612088      0.60588895      5.28405241
64    2     8.12885869      1.99927906      0.67745494
65    1     5.98138894      2.40727206      1.25079385
66    1     6.53022945      0.44364877      8.68189474
67    2     6.08617360      2.53360966      2.48129341
68    1     7.06011439      2.48768005      2.07135379
69    1     5.51802945      2.61159207      3.62528493
70    2     6.04921640      1.75665892      7.22327840
71    1     7.39770456      7.91304098      6.86548907
72    1     6.15060783      8.12098032      5.45373277
73    2     5.53154623      6.29255678      7.91100315
74    1     1.36946727      9.22091297      5.94452551
75    1     5.29032231      4.89344735      6.60395397
76    2     5.70189398      7.03697936      3.01318608
77    1     5.08331325      8.58768575      2.51362454
78    1     6.70429697      6.39903281      3.24314128
79    2     6.21159190      6.94856085      7.31643329
80    1     0.03406310      7.95601254      7.39287661
81    1     6.66655172      7.76791179      6.22778640
