LAMMPS (27 Jun 2024)
OMP_NUM_THREADS environment is not set. Defaulting to 1 thread. (src/comm.cpp:98)
  using 1 OpenMP thread(s) per MPI task
Reading data file ...
  orthogonal box = (0 0 0) to (22.422218 22.19224 20.321894)
  5 by 2 by 2 MPI processor grid
  reading atoms ...
  448 atoms
  read_data CPU = 0.004 seconds
**************** Begin of POD Potentials ****************
species: Hf 
periodic boundary conditions: 1 1 1
number of environment clusters: 8
number of principal compoments: 2
inner cut-off radius: 1
outer cut-off radius: 5
cut-off function type: 1
gaussian_exponents: 
polynomial_degrees: 
bessel polynomial degree: 4
inverse polynomial degree: 10
one-body potential: 1
two-body radial basis functions: 8
three-body radial basis functions: 8
three-body angular degree: 6
four-body radial basis functions: 7
four-body angular degree: 5
five-body radial basis functions: 0
five-body angular degree: 0
six-body radial basis functions: 0
six-body angular degree: 0
seven-body radial basis functions: 0
seven-body angular degree: 0
number of local descriptors per element for one-body potential: 1
number of local descriptors per element for two-body potential: 8
number of local descriptors per element for three-body potential: 56
number of local descriptors per element for four-body potential: 112
number of local descriptors per element for five-body potential: 0
number of local descriptors per element for six-body potential: 0
number of local descriptors per element for seven-body potential: 0
number of local descriptors per element for all potentials: 177
number of global descriptors: 1409
**************** End of POD Potentials ****************

**************** Begin of Model Coefficients ****************
total number of coefficients for POD potential: 1409
total number of elements for PCA projection matrix: 352
total number of elements for PCA centroids: 16
**************** End of Model Coefficients ****************


CITE-CITE-CITE-CITE-CITE-CITE-CITE-CITE-CITE-CITE-CITE-CITE-CITE

Your simulation uses code contributions which should be cited:
- Type Label Framework: https://doi.org/10.1021/acs.jpcb.3c08419
The log file lists these citations in BibTeX format.

CITE-CITE-CITE-CITE-CITE-CITE-CITE-CITE-CITE-CITE-CITE-CITE-CITE

Neighbor list info ...
  update: every = 1 steps, delay = 0 steps, check = no
  max neighbors/atom: 2000, page size: 100000
  master list distance cutoff = 7
  ghost atom cutoff = 7
  binsize = 3.5, bins = 7 7 6
  1 neighbor lists, perpetual/occasional/extra = 1 0 0
  (1) pair pod, perpetual
      attributes: full, newton on
      pair build: full/bin/atomonly
      stencil: full/bin/3d
      bin: standard
Setting up Verlet run ...
  Unit style    : metal
  Current step  : 0
  Time step     : 0.001
Per MPI rank memory allocation (min/avg/max) = 2.586 | 2.586 | 2.586 Mbytes
   Step          Temp          TotEng         PotEng         KinEng         Press          Volume    
         0   300           -3231.7429     -3249.0767      17.333785      27701.818      10112.159    
       100   324.11637     -3235.698      -3254.4252      18.727212      9594.5299      10112.159    
       200   233.57828     -3236.6233     -3250.1193      13.495986      10617.68       10112.159    
       300   348.00053     -3235.1186     -3255.2258      20.107222      8945.3138      10112.159    
       400   336.53834     -3237.556      -3257.001       19.444945      9149.9199      10112.159    
       500   315.95866     -3240.245      -3258.5009      18.255865      8282.6741      10112.159    
       600   281.59647     -3241.319      -3257.5894      16.270442      8249.976       10112.159    
       700   276.64232     -3240.8192     -3256.8034      15.984195      9088.3248      10112.159    
       800   294.26533     -3239.683      -3256.6855      17.002441      8831.3618      10112.159    
       900   292.82369     -3238.7125     -3255.6316      16.919143      8509.3013      10112.159    
      1000   329.90319     -3238.2407     -3257.3023      19.06157       8417.8972      10112.159    
      1100   304.71106     -3239.2559     -3256.8618      17.605987      8368.5949      10112.159    
      1200   295.39693     -3240.2865     -3257.3543      17.067824      8539.9677      10112.159    
      1300   287.04553     -3240.7838     -3257.3691      16.585285      8500.7794      10112.159    
      1400   297.82593     -3240.4091     -3257.6173      17.208169      8526.5153      10112.159    
      1500   312.3176      -3239.0318     -3257.0773      18.045488      8931.8603      10112.159    
      1600   320.34737     -3238.3003     -3256.8098      18.509442      8836.9979      10112.159    
      1700   302.27325     -3238.8034     -3256.2686      17.465132      8868.1137      10112.159    
      1800   279.55442     -3240.0121     -3256.1645      16.152455      9101.2678      10112.159    
      1900   288.16822     -3240.3061     -3256.9562      16.650154      9021.905       10112.159    
      2000   303.48786     -3240.1046     -3257.6399      17.535312      8392.973       10112.159    
      2100   311.13317     -3239.6053     -3257.5823      17.977052      8868.4267      10112.159    
      2200   302.69231     -3238.8442     -3256.3336      17.489345      8892.5743      10112.159    
      2300   309.89027     -3237.486      -3255.3912      17.905238      9333.0921      10112.159    
      2400   311.86887     -3237.3202     -3255.3397      18.01956       9439.4531      10112.159    
      2500   316.30328     -3238.7534     -3257.0292      18.275777      8871.2153      10112.159    
      2600   305.71773     -3239.7475     -3257.4116      17.664152      8805.8793      10112.159    
      2700   304.101       -3240.2023     -3257.773       17.570738      8656.3086      10112.159    
      2800   281.25337     -3240.5149     -3256.7655      16.250619      8895.3939      10112.159    
      2900   318.43265     -3239.5865     -3257.9853      18.398811      8521.2106      10112.159    
      3000   301.83658     -3238.7421     -3256.182       17.439902      8962.0049      10112.159    
      3100   334.68577     -3237.4394     -3256.7773      19.337904      9167.4738      10112.159    
      3200   309.00856     -3238.4574     -3256.3117      17.854294      8824.1302      10112.159    
      3300   300.63313     -3239.67       -3257.0404      17.370367      9176.4832      10112.159    
      3400   297.13079     -3239.9428     -3257.1108      17.168005      8867.3794      10112.159    
      3500   298.58984     -3240.1447     -3257.397       17.252307      8417.2032      10112.159    
      3600   288.77691     -3240.6053     -3257.2906      16.685323      8700.0471      10112.159    
      3700   300.30964     -3240.5954     -3257.9471      17.351676      8777.9782      10112.159    
      3800   294.48357     -3239.8857     -3256.9008      17.01505       8788.1425      10112.159    
      3900   299.61164     -3238.7052     -3256.0166      17.311346      9135.5222      10112.159    
      4000   317.39907     -3238.6134     -3256.9525      18.339091      8990.037       10112.159    
      4100   304.99458     -3240.026      -3257.6484      17.622368      8663.2722      10112.159    
      4200   290.0367      -3240.6192     -3257.3773      16.758113      8571.6464      10112.159    
      4300   278.97013     -3240.4105     -3256.5292      16.118694      9022.8173      10112.159    
      4400   320.04503     -3239.2578     -3257.7498      18.491973      8956.5978      10112.159    
      4500   307.12082     -3239.5839     -3257.3291      17.745221      8820.2919      10112.159    
      4600   298.95634     -3239.9593     -3257.2328      17.273484      8471.913       10112.159    
      4700   317.86063     -3239.7329     -3258.0987      18.36576       9026.1076      10112.159    
      4800   275.08406     -3241.1031     -3256.9973      15.89416       8597.9897      10112.159    
      4900   282.0403      -3241.7473     -3258.0434      16.296087      7975.562       10112.159    
      5000   314.32732     -3240.5967     -3258.7583      18.161608      8394.0407      10112.159    
      5100   286.78878     -3239.9104     -3256.4808      16.57045       8718.246       10112.159    
      5200   305.18115     -3239.2894     -3256.9225      17.633149      8743.8283      10112.159    
      5300   302.26734     -3239.3876     -3256.8524      17.464791      9051.6118      10112.159    
      5400   312.26073     -3239.5552     -3257.5974      18.042201      8538.6579      10112.159    
      5500   276.18706     -3241.1141     -3257.072       15.957891      8540.359       10112.159    
      5600   277.15264     -3242.4075     -3258.4212      16.013681      8712.9643      10112.159    
      5700   300.75787     -3241.6619     -3259.0395      17.377575      8081.873       10112.159    
      5800   297.93122     -3240.4415     -3257.6557      17.214253      8534.0482      10112.159    
      5900   293.88129     -3239.7563     -3256.7365      16.980251      9131.4318      10112.159    
      6000   291.00435     -3239.6107     -3256.4247      16.814023      8654.247       10112.159    
      6100   319.95348     -3239.5168     -3258.0035      18.486683      8685.1224      10112.159    
      6200   280.19129     -3240.4954     -3256.6846      16.189252      8837.4903      10112.159    
      6300   302.96688     -3241.0207     -3258.5259      17.505209      8443.6358      10112.159    
      6400   287.29553     -3241.4801     -3258.0799      16.59973       8585.7395      10112.159    
      6500   292.36999     -3240.1956     -3257.0885      16.892929      8972.5143      10112.159    
      6600   315.10988     -3239.0114     -3257.2182      18.206824      8972.0837      10112.159    
      6700   302.7236      -3239.2647     -3256.7558      17.491153      8906.609       10112.159    
      6800   298.7959      -3239.8697     -3257.1339      17.264213      9039.3211      10112.159    
      6900   283.2729      -3241.3108     -3257.6781      16.367306      8765.9187      10112.159    
      7000   280.10747     -3242.0768     -3258.2612      16.184409      8430.4653      10112.159    
      7100   305.13025     -3240.5143     -3258.1445      17.630208      8580.2737      10112.159    
      7200   293.81652     -3239.706      -3256.6826      16.976509      9150.5115      10112.159    
      7300   303.49464     -3239.1764     -3256.7121      17.535703      9340.9798      10112.159    
      7400   306.47699     -3239.384      -3257.092       17.708021      9134.7665      10112.159    
      7500   309.39473     -3239.8036     -3257.6802      17.876606      8903.6901      10112.159    
      7600   281.17164     -3240.9357     -3257.1816      16.245896      8700.6293      10112.159    
      7700   298.24014     -3241.0442     -3258.2763      17.232102      8346.98        10112.159    
      7800   296.79838     -3240.481      -3257.6298      17.148798      8798.7722      10112.159    
      7900   290.61763     -3239.8633     -3256.6549      16.791679      8805.4571      10112.159    
      8000   308.64025     -3239.6618     -3257.4948      17.833013      8919.98        10112.159    
      8100   291.76133     -3239.9456     -3256.8033      16.857761      9132.7391      10112.159    
      8200   320.48595     -3239.321      -3257.8385      18.517449      8861.5416      10112.159    
      8300   283.662       -3240.0625     -3256.4523      16.389787      8779.0298      10112.159    
      8400   298.05618     -3241.5847     -3258.8062      17.221473      8847.2645      10112.159    
      8500   280.2697      -3242.0983     -3258.2921      16.193783      8515.3372      10112.159    
      8600   289.45442     -3241.1659     -3257.8903      16.724469      8773.9103      10112.159    
      8700   296.75086     -3240.5453     -3257.6914      17.146052      8925.8553      10112.159    
      8800   293.26972     -3239.6877     -3256.6326      16.944915      8876.6436      10112.159    
      8900   311.56968     -3238.8392     -3256.8415      18.002273      9215.2407      10112.159    
      9000   310.85546     -3238.9559     -3256.917       17.961006      8953.8063      10112.159    
      9100   288.2352      -3240.5481     -3257.2021      16.654024      8913.1491      10112.159    
      9200   293.88031     -3241.1847     -3258.1649      16.980194      8170.4815      10112.159    
      9300   289.9963      -3240.7154     -3257.4712      16.755779      8596.0126      10112.159    
      9400   310.37692     -3239.4645     -3257.3979      17.933357      8656.5891      10112.159    
      9500   301.17241     -3239.2039     -3256.6054      17.401526      8958.4927      10112.159    
      9600   300.09394     -3239.4248     -3256.764       17.339213      9071.8391      10112.159    
      9700   299.96676     -3240.0146     -3257.3465      17.331865      8727.6283      10112.159    
      9800   292.15082     -3240.9972     -3257.8775      16.880266      8832.3144      10112.159    
      9900   278.30991     -3242.4139     -3258.4944      16.080548      8027.2871      10112.159    
     10000   285.36275     -3241.9704     -3258.4585      16.488056      8259.7331      10112.159    
     10100   304.0632      -3240.0624     -3257.631       17.568555      8723.0925      10112.159    
     10200   298.72389     -3239.6512     -3256.9112      17.260053      8828.0056      10112.159    
     10300   302.30269     -3239.2383     -3256.7051      17.466833      9167.4187      10112.159    
     10400   313.47588     -3238.9899     -3257.1024      18.112412      8892.1414      10112.159    
     10500   295.12654     -3239.8639     -3256.9161      17.0522        9248.1098      10112.159    
     10600   298.22442     -3241.1084     -3258.3396      17.231194      8601.0943      10112.159    
     10700   284.06182     -3241.5078     -3257.9207      16.412889      8565.299       10112.159    
     10800   281.10927     -3240.6285     -3256.8708      16.242292      8761.1441      10112.159    
     10900   307.23914     -3239.2475     -3256.9995      17.752058      8931.8569      10112.159    
     11000   306.2564      -3239.2288     -3256.924       17.695276      9011.4521      10112.159    
     11100   293.79023     -3239.74       -3256.715       16.97499       9119.0977      10112.159    
     11200   300.78543     -3240.3124     -3257.6916      17.379167      8986.6027      10112.159    
     11300   275.70304     -3241.3443     -3257.2742      15.929924      8929.4297      10112.159    
     11400   305.48248     -3240.6899     -3258.3405      17.650559      8742.1593      10112.159    
     11500   297.64329     -3239.3179     -3256.5155      17.197617      8946.9325      10112.159    
     11600   325.51395     -3238.6613     -3257.4693      18.807963      8775.6106      10112.159    
     11700   280.92524     -3239.5938     -3255.8254      16.231659      9013.6214      10112.159    
     11800   312.5138      -3239.5755     -3257.6323      18.056824      8809.8474      10112.159    
     11900   306.49556     -3239.973      -3257.6821      17.709095      9132.4665      10112.159    
     12000   272.41238     -3241.1353     -3256.8751      15.739793      8648.513       10112.159    
     12100   294.46785     -3241.2573     -3258.2715      17.014142      8782.0794      10112.159    
     12200   307.8987      -3239.8303     -3257.6205      17.790167      9044.644       10112.159    
     12300   292.10179     -3238.7445     -3255.6219      16.877432      9344.9947      10112.159    
     12400   309.19522     -3238.5852     -3256.4503      17.865079      9337.3841      10112.159    
     12500   313.38664     -3239.462      -3257.5692      18.107256      8908.8447      10112.159    
     12600   303.06514     -3240.0133     -3257.5242      17.510887      8778.0222      10112.159    
     12700   284.35084     -3240.1666     -3256.5962      16.429588      9316.6572      10112.159    
     12800   297.75795     -3239.9749     -3257.1791      17.204241      8834.1332      10112.159    
     12900   305.866       -3239.9255     -3257.5982      17.672719      8965.2037      10112.159    
     13000   315.15794     -3239.3589     -3257.5685      18.2096        8821.9099      10112.159    
     13100   294.53037     -3238.9958     -3256.0136      17.017754      8951.2816      10112.159    
     13200   303.27152     -3239.1935     -3256.7163      17.522812      9188.4544      10112.159    
     13300   300.12496     -3240.2769     -3257.6179      17.341006      8560.9124      10112.159    
     13400   298.21263     -3241.0263     -3258.2569      17.230512      8522.5811      10112.159    
     13500   280.59407     -3241.7328     -3257.9454      16.212525      8650.5252      10112.159    
     13600   295.1152      -3241.3223     -3258.3738      17.051545      8688.6853      10112.159    
     13700   287.45122     -3239.7782     -3256.3869      16.608726      9108.0835      10112.159    
     13800   329.88463     -3238.8123     -3257.8728      19.060498      9049.2185      10112.159    
     13900   285.7096      -3239.6551     -3256.1632      16.508097      8768.646       10112.159    
     14000   309.26108     -3239.8508     -3257.7196      17.868884      8909.772       10112.159    
     14100   288.96949     -3241.0468     -3257.7432      16.696451      8622.0465      10112.159    
     14200   299.97776     -3241.7596     -3259.0921      17.332501      8290.1769      10112.159    
     14300   287.97097     -3241.3245     -3257.9633      16.638757      8691.6678      10112.159    
     14400   279.59483     -3239.6287     -3255.7835      16.154789      9156.9176      10112.159    
     14500   320.027       -3238.7451     -3257.236       18.490931      8992.9982      10112.159    
     14600   315.12884     -3239.4081     -3257.616       18.207919      8910.6395      10112.159    
     14700   295.11296     -3240.3782     -3257.4296      17.051416      8601.1721      10112.159    
     14800   284.04479     -3240.9217     -3257.3336      16.411905      8832.465       10112.159    
     14900   297.91391     -3240.5835     -3257.7968      17.213253      8919.8334      10112.159    
     15000   308.41422     -3239.0809     -3256.9008      17.819953      9060.9918      10112.159    
     15100   307.63876     -3238.7388     -3256.5139      17.775147      8896.1655      10112.159    
     15200   302.13354     -3239.351      -3256.808       17.45706       8846.3226      10112.159    
     15300   299.48854     -3240.6026     -3257.9068      17.304233      8304.4849      10112.159    
     15400   293.15199     -3241.1531     -3258.0912      16.938113      8493.9321      10112.159    
     15500   294.03258     -3240.5884     -3257.5774      16.988992      8645.9737      10112.159    
     15600   306.50219     -3238.5957     -3256.3052      17.709477      9339.0481      10112.159    
     15700   312.58528     -3238.2525     -3256.3135      18.060954      8999.8501      10112.159    
     15800   303.81195     -3239.3593     -3256.9133      17.554037      8854.1771      10112.159    
     15900   305.08752     -3240.3016     -3257.9293      17.627739      8706.6023      10112.159    
     16000   279.8995      -3240.6544     -3256.8268      16.172393      8691.4841      10112.159    
     16100   300.27233     -3240.1041     -3257.4536      17.349521      9083.5453      10112.159    
     16200   306.03303     -3239.6894     -3257.3718      17.68237       8680.9873      10112.159    
     16300   305.24513     -3238.2639     -3255.9007      17.636845      8994.9517      10112.159    
     16400   320.60583     -3237.4823     -3256.0066      18.524376      9008.3797      10112.159    
     16500   308.46842     -3238.8591     -3256.6822      17.823084      9158.0647      10112.159    
     16600   309.50973     -3240.0109     -3257.8941      17.883251      8476.8144      10112.159    
     16700   288.07001     -3240.5918     -3257.2363      16.644479      8828.0813      10112.159    
     16800   297.44159     -3240.2876     -3257.4735      17.185962      8859.3053      10112.159    
     16900   307.86327     -3239.2359     -3257.024       17.78812       9115.1654      10112.159    
     17000   305.59873     -3237.8761     -3255.5334      17.657276      9408.1099      10112.159    
     17100   316.94107     -3238.0909     -3256.4035      18.312629      9240.1373      10112.159    
     17200   309.76108     -3239.5816     -3257.4793      17.897774      8807.0868      10112.159    
     17300   285.83264     -3239.9543     -3256.4695      16.515205      9032.3821      10112.159    
     17400   300.09243     -3239.8149     -3257.1541      17.339126      8571.8805      10112.159    
     17500   308.5504      -3240.1748     -3258.0026      17.827822      8664.3621      10112.159    
     17600   284.19672     -3241.0695     -3257.4901      16.420683      8600.8369      10112.159    
     17700   301.28634     -3240.8211     -3258.2292      17.408109      8798.1922      10112.159    
     17800   289.37077     -3239.4446     -3256.1642      16.719636      9479.0289      10112.159    
     17900   319.66431     -3238.335      -3256.805       18.469975      9201.3397      10112.159    
     18000   303.41582     -3238.8968     -3256.428       17.531149      9176.212       10112.159    
     18100   309.43418     -3239.9385     -3257.8174      17.878886      8972.5861      10112.159    
     18200   302.21199     -3240.4123     -3257.8739      17.461593      8402.4785      10112.159    
     18300   275.165       -3240.4681     -3256.367       15.898837      9476.2581      10112.159    
     18400   299.46518     -3239.5933     -3256.8962      17.302884      8894.3858      10112.159    
     18500   321.11589     -3239.0377     -3257.5916      18.553846      8418.9175      10112.159    
     18600   302.04966     -3239.9907     -3257.4429      17.452213      8994.2004      10112.159    
     18700   266.35415     -3241.9372     -3257.327       15.389752      8526.2333      10112.159    
     18800   302.5883      -3241.1431     -3258.6264      17.483336      8469.6424      10112.159    
     18900   292.51846     -3240.012      -3256.9135      16.901507      8766.763       10112.159    
     19000   306.95056     -3239.0707     -3256.8061      17.735384      8854.1076      10112.159    
     19100   298.71759     -3239.2074     -3256.4671      17.259689      9257.8119      10112.159    
     19200   304.97252     -3239.901      -3257.5221      17.621094      8628.7467      10112.159    
     19300   281.26186     -3241.683      -3257.9341      16.251109      8378.3936      10112.159    
     19400   297.94565     -3241.2356     -3258.4507      17.215086      8659.9087      10112.159    
     19500   283.85012     -3240.5214     -3256.9221      16.400657      8447.9872      10112.159    
     19600   316.36127     -3239.4829     -3257.7621      18.279128      8750.9656      10112.159    
     19700   294.82868     -3239.5183     -3256.5533      17.03499       9224.9903      10112.159    
     19800   304.99516     -3239.267      -3256.8894      17.622402      8815.5582      10112.159    
     19900   289.36376     -3240.332      -3257.0512      16.719231      8729.2773      10112.159    
     20000   298.40634     -3241.2577     -3258.4994      17.241705      8359.566       10112.159    
     20100   292.42846     -3240.9279     -3257.8242      16.896307      8415.1262      10112.159    
     20200   300.34046     -3239.3472     -3256.7007      17.353457      9030.2987      10112.159    
     20300   313.20096     -3238.9035     -3257           18.096527      8809.3306      10112.159    
     20400   293.9508      -3239.7941     -3256.7783      16.984267      8512.2394      10112.159    
     20500   312.08671     -3240.3112     -3258.3433      18.032147      8158.3683      10112.159    
     20600   279.14063     -3240.8593     -3256.9879      16.128546      8751.976       10112.159    
     20700   315.83467     -3238.976      -3257.2247      18.248702      8734.6208      10112.159    
     20800   297.36436     -3238.3863     -3255.5678      17.1815        9090.7608      10112.159    
     20900   309.43772     -3238.9448     -3256.8239      17.87909       9152.5665      10112.159    
     21000   310.63277     -3239.7701     -3257.7182      17.948139      8658.5088      10112.159    
     21100   302.55254     -3240.031      -3257.5122      17.48127       8610.0784      10112.159    
     21200   290.59956     -3239.9802     -3256.7708      16.790635      8773.4262      10112.159    
     21300   315.09239     -3239.0407     -3257.2465      18.205813      8697.8214      10112.159    
     21400   319.10527     -3237.7125     -3256.1502      18.437674      9291.2638      10112.159    
     21500   319.5386      -3237.6996     -3256.1623      18.462712      9215.4314      10112.159    
     21600   300.52034     -3239.2938     -3256.6577      17.36385       8945.1715      10112.159    
     21700   285.27544     -3239.8566     -3256.3396      16.483011      8990.1979      10112.159    
     21800   307.26431     -3240.2336     -3257.9872      17.753512      8252.9333      10112.159    
     21900   293.59062     -3240.7624     -3257.7259      16.963456      8428.2656      10112.159    
     22000   295.09446     -3240.1228     -3257.1731      17.050347      8710.4392      10112.159    
     22100   315.54565     -3238.3706     -3256.6026      18.232002      9301.8042      10112.159    
     22200   312.44743     -3237.9981     -3256.0511      18.052989      9397.8663      10112.159    
     22300   311.74695     -3239.1287     -3257.1413      18.012516      8737.0075      10112.159    
     22400   290.84344     -3240.2518     -3257.0565      16.804726      8901.3756      10112.159    
     22500   295.83339     -3240.2641     -3257.3571      17.093042      8432.2251      10112.159    
     22600   311.20204     -3239.8417     -3257.8227      17.981031      8592.6713      10112.159    
     22700   305.17336     -3239.2322     -3256.8649      17.632698      8844.1823      10112.159    
     22800   304.96309     -3238.1515     -3255.772       17.62055       9560.4645      10112.159    
     22900   308.91407     -3238.1153     -3255.9641      17.848834      9288.6621      10112.159    
     23000   312.91782     -3239.489      -3257.5692      18.080168      8796.7356      10112.159    
     23100   289.49476     -3240.4473     -3257.1741      16.7268        8895.15        10112.159    
     23200   285.58266     -3240.3468     -3256.8476      16.500762      8994.1117      10112.159    
     23300   308.51487     -3239.7567     -3257.5825      17.825768      8839.5274      10112.159    
     23400   307.61761     -3239.5272     -3257.3011      17.773926      8753.5129      10112.159    
     23500   320.59278     -3238.6077     -3257.1314      18.523622      9336.064       10112.159    
     23600   300.28814     -3238.5131     -3255.8635      17.350434      9410.3179      10112.159    
     23700   303.44234     -3239.174      -3256.7067      17.532681      9043.99        10112.159    
     23800   301.4753      -3240.5297     -3257.9487      17.419027      8918.8004      10112.159    
     23900   293.67974     -3241.1653     -3258.1339      16.968606      8697.652       10112.159    
     24000   293.4933      -3240.5989     -3257.5568      16.957833      8761.5447      10112.159    
     24100   300.01227     -3240.0358     -3257.3703      17.334494      9047.7803      10112.159    
     24200   298.79424     -3239.5819     -3256.8461      17.264117      8872.701       10112.159    
     24300   305.72751     -3239.5693     -3257.234       17.664717      8951.2835      10112.159    
     24400   288.15012     -3240.0623     -3256.7114      16.649108      9390.49        10112.159    
     24500   312.92377     -3239.3976     -3257.4781      18.080512      9071.1441      10112.159    
     24600   302.43141     -3238.7508     -3256.2251      17.47427       9525.5938      10112.159    
     24700   303.61802     -3238.395      -3255.9378      17.542832      9496.7874      10112.159    
     24800   299.89389     -3239.3724     -3256.7         17.327654      9167.683       10112.159    
     24900   290.89387     -3240.6812     -3257.4888      16.80764       8729.844       10112.159    
     25000   299.15408     -3240.7018     -3257.9867      17.284909      9134.0273      10112.159    
     25100   295.52006     -3240.0347     -3257.1096      17.074938      8880.0674      10112.159    
     25200   300.82377     -3238.7921     -3256.1735      17.381382      9083.7737      10112.159    
     25300   312.41669     -3238.5924     -3256.6436      18.051213      9542.0896      10112.159    
     25400   290.09618     -3240.9412     -3257.7027      16.76155       8847.1665      10112.159    
     25500   297.37394     -3241.371      -3258.553       17.182053      8287.1101      10112.159    
     25600   281.15823     -3240.8863     -3257.1315      16.245122      9061.8482      10112.159    
     25700   301.11149     -3239.5451     -3256.9431      17.398007      9295.6036      10112.159    
     25800   287.57526     -3239.2592     -3255.8751      16.615893      9387.0317      10112.159    
     25900   328.20044     -3238.6433     -3257.6065      18.963187      9279.6676      10112.159    
     26000   287.95181     -3240.1153     -3256.7529      16.63765       9311.8977      10112.159    
     26100   295.57939     -3241.0284     -3258.1067      17.078366      8875.05        10112.159    
     26200   295.34821     -3240.8102     -3257.8752      17.065008      8733.8596      10112.159    
     26300   297.47998     -3240.1061     -3257.2943      17.188181      9100.3969      10112.159    
     26400   290.94694     -3239.8608     -3256.6715      16.810706      8886.7125      10112.159    
     26500   309.5696      -3239.6353     -3257.522       17.88671       8801.8233      10112.159    
     26600   298.45229     -3240.0436     -3257.288       17.24436       8829.7963      10112.159    
     26700   304.27545     -3240.3647     -3257.9455      17.580818      9020.3103      10112.159    
     26800   284.65363     -3240.6705     -3257.1176      16.447083      9064.0271      10112.159    
     26900   309.63237     -3240.0071     -3257.8974      17.890337      8825.8388      10112.159    
     27000   309.82063     -3239.4115     -3257.3127      17.901215      9089.2694      10112.159    
     27100   312.99102     -3238.8168     -3256.9012      18.084397      9192.1643      10112.159    
     27200   302.33854     -3238.7071     -3256.176       17.468904      9396.3111      10112.159    
     27300   281.69338     -3240.0593     -3256.3353      16.276042      9425.4204      10112.159    
     27400   298.82891     -3241.0152     -3258.2813      17.26612       8615.1814      10112.159    
     27500   295.90841     -3241.1684     -3258.2658      17.097376      8556.0497      10112.159    
     27600   293.8954      -3240.2997     -3257.2807      16.981066      9034.8455      10112.159    
     27700   303.9971      -3239.0102     -3256.5749      17.564735      9406.2358      10112.159    
     27800   312.88871     -3239.0838     -3257.1623      18.078486      9286.8515      10112.159    
     27900   298.31884     -3239.7701     -3257.0067      17.236649      9101.2434      10112.159    
     28000   303.15371     -3240.2735     -3257.7895      17.516005      8746.9934      10112.159    
     28100   272.52294     -3241.1609     -3256.907       15.746181      8943.0692      10112.159    
     28200   293.74619     -3240.9271     -3257.8996      16.972445      8656.9707      10112.159    
     28300   308.79477     -3239.4611     -3257.3031      17.841941      8857.7627      10112.159    
     28400   332.18106     -3238.4218     -3257.615       19.193184      9225.5709      10112.159    
     28500   284.79391     -3239.3638     -3255.819       16.455188      9437.1708      10112.159    
     28600   299.45272     -3239.8764     -3257.1786      17.302164      9220.0359      10112.159    
     28700   297.3319      -3240.722      -3257.9016      17.179624      8933.8404      10112.159    
     28800   296.38149     -3241.6764     -3258.8011      17.12471       8234.2913      10112.159    
     28900   273.55015     -3242.923      -3258.7285      15.805532      8279.4386      10112.159    
     29000   274.1597      -3241.955      -3257.7958      15.840752      8668.0559      10112.159    
     29100   291.9131      -3240.4691     -3257.3356      16.86653       8863.2863      10112.159    
     29200   312.33755     -3239.4884     -3257.5351      18.04664       9014.058       10112.159    
     29300   302.89343     -3239.2102     -3256.7112      17.500966      9321.5259      10112.159    
     29400   306.66419     -3239.2989     -3257.0178      17.718837      9096.0846      10112.159    
     29500   291.86905     -3240.5331     -3257.3971      16.863985      8908.0145      10112.159    
     29600   286.82417     -3241.3461     -3257.9186      16.572495      8551.7577      10112.159    
     29700   299.1692      -3240.4326     -3257.7184      17.285783      9016.2276      10112.159    
     29800   305.51136     -3239.4865     -3257.1387      17.652228      9066.1437      10112.159    
     29900   291.45208     -3239.5863     -3256.4262      16.839893      8960.5386      10112.159    
     30000   317.83999     -3239.3046     -3257.6692      18.364567      9252.1296      10112.159    
     30100   302.92735     -3240.1126     -3257.6155      17.502926      8870.0026      10112.159    
     30200   277.62676     -3241.5232     -3257.5643      16.041076      8857.5186      10112.159    
     30300   287.49687     -3241.4976     -3258.1089      16.611363      8459.66        10112.159    
     30400   304.02305     -3239.7221     -3257.2883      17.566234      8804.3365      10112.159    
     30500   313.2061      -3238.6944     -3256.7913      18.096824      9305.7425      10112.159    
     30600   289.69631     -3239.3615     -3256.1         16.738446      9126.9308      10112.159    
     30700   295.87996     -3240.1687     -3257.2644      17.095732      8860.0731      10112.159    
     30800   286.08162     -3241.0705     -3257.6001      16.529592      8865.4133      10112.159    
     30900   308.64823     -3240.7909     -3258.6244      17.833474      8573.6847      10112.159    
     31000   308.17885     -3238.8572     -3256.6636      17.806354      8926.8309      10112.159    
     31100   305.89323     -3238.4267     -3256.101       17.674292      9175.2567      10112.159    
     31200   297.10489     -3239.1884     -3256.3549      17.166508      9285.6867      10112.159    
     31300   302.63158     -3240.1431     -3257.629       17.485836      8870.0126      10112.159    
     31400   296.85874     -3240.7948     -3257.9471      17.152286      8943.5004      10112.159    
     31500   298.38709     -3240.5599     -3257.8005      17.240593      9036.229       10112.159    
     31600   291.18111     -3240.4079     -3257.2321      16.824236      8932.2238      10112.159    
     31700   303.89273     -3239.991      -3257.5497      17.558705      9108.3907      10112.159    
     31800   288.31409     -3239.5653     -3256.2239      16.658582      9187.6386      10112.159    
     31900   302.23015     -3238.3866     -3255.8492      17.462642      9855.7551      10112.159    
     32000   314.1956      -3238.1851     -3256.339       18.153997      9472.6985      10112.159    
     32100   301.66907     -3239.9852     -3257.4154      17.430223      8723.3947      10112.159    
     32200   304.39557     -3240.6406     -3258.2283      17.587758      8855.469       10112.159    
     32300   277.89413     -3240.9774     -3257.0339      16.056524      8872.3465      10112.159    
     32400   293.5143      -3239.7822     -3256.7412      16.959046      9201.9311      10112.159    
     32500   318.47526     -3238.6213     -3257.0226      18.401273      9193.9555      10112.159    
     32600   309.17808     -3238.9148     -3256.7789      17.864088      9154.2139      10112.159    
     32700   309.11976     -3239.736      -3257.5968      17.860719      8947.0058      10112.159    
     32800   272.29813     -3240.6235     -3256.3566      15.733191      8843.3188      10112.159    
     32900   307.72743     -3240.3183     -3258.0985      17.780271      8609.7751      10112.159    
     33000   297.61614     -3240.2959     -3257.4919      17.196048      8714.2165      10112.159    
     33100   299.30419     -3239.9954     -3257.289       17.293582      9089.002       10112.159    
     33200   293.90592     -3239.8978     -3256.8795      16.981674      8807.2431      10112.159    
     33300   299.73192     -3239.6228     -3256.9411      17.318296      8971.3519      10112.159    
     33400   312.75605     -3239.3297     -3257.4005      18.070821      8807.0417      10112.159    
     33500   304.44233     -3239.7822     -3257.3726      17.59046       8612.1352      10112.159    
     33600   281.55453     -3240.9185     -3257.1865      16.268019      9011.1116      10112.159    
     33700   296.26807     -3240.7839     -3257.902       17.118157      8598.8475      10112.159    
     33800   305.92521     -3239.6319     -3257.308       17.67614       8902.4102      10112.159    
     33900   308.78934     -3238.6421     -3256.4838      17.841627      9096.3346      10112.159    
     34000   288.97439     -3239.1717     -3255.8685      16.696734      9201.4603      10112.159    
     34100   308.82749     -3239.519      -3257.3628      17.843831      8925.0781      10112.159    
     34200   302.38563     -3239.8785     -3257.3501      17.471625      8761.4613      10112.159    
     34300   299.28829     -3240.0692     -3257.3619      17.292663      8568.4544      10112.159    
     34400   298.87934     -3240.026      -3257.295       17.269034      8818.9427      10112.159    
     34500   306.52216     -3239.7817     -3257.4923      17.710631      8632.8959      10112.159    
     34600   295.73829     -3239.6367     -3256.7242      17.087547      9114.3367      10112.159    
     34700   312.57787     -3239.2685     -3257.329       18.060526      8829.3224      10112.159    
     34800   313.44083     -3238.8641     -3256.9745      18.110387      9007.718       10112.159    
     34900   287.65215     -3239.3658     -3255.9862      16.620336      9164.3457      10112.159    
     35000   296.73664     -3240.7936     -3257.9388      17.145231      8222.566       10112.159    
     35100   304.16266     -3240.9209     -3258.4952      17.574301      8818.0463      10112.159    
     35200   287.81942     -3240.5237     -3257.1537      16.63          8746.6725      10112.159    
     35300   302.90932     -3239.4604     -3256.9623      17.501884      9159.723       10112.159    
     35400   300.03313     -3239.2695     -3256.6052      17.3357        9255.1221      10112.159    
     35500   293.28359     -3239.7407     -3256.6864      16.945716      9184.4855      10112.159    
     35600   314.00248     -3239.8445     -3257.9873      18.142838      8698.9639      10112.159    
     35700   286.45148     -3240.5839     -3257.1349      16.550962      8729.5419      10112.159    
     35800   280.14303     -3242.0866     -3258.2731      16.186464      8674.2778      10112.159    
     35900   281.2999      -3242.1419     -3258.3952      16.253307      8669.289       10112.159    
     36000   280.5765      -3240.6451     -3256.8566      16.21151       8946.7343      10112.159    
     36100   306.85663     -3239.7443     -3257.4742      17.729957      9135.5784      10112.159    
     36200   307.64315     -3239.6253     -3257.4007      17.775401      9072.9399      10112.159    
     36300   303.19379     -3239.5999     -3257.1182      17.518321      9148.7218      10112.159    
     36400   305.32272     -3238.9824     -3256.6237      17.641328      9204.1467      10112.159    
     36500   300.33387     -3238.4184     -3255.7715      17.353076      9569.543       10112.159    
     36600   314.924       -3238.5079     -3256.704       18.196083      9356.1312      10112.159    
     36700   298.49646     -3240.1588     -3257.4058      17.246912      9090.2852      10112.159    
     36800   300.42214     -3240.5886     -3257.9468      17.358176      9043.2398      10112.159    
     36900   282.47235     -3240.7565     -3257.0776      16.321051      8930.3625      10112.159    
     37000   312.26499     -3239.6073     -3257.6498      18.042448      8663.9593      10112.159    
     37100   303.81039     -3238.506      -3256.0599      17.553947      9282.9989      10112.159    
     37200   314.91141     -3238.5797     -3256.7751      18.195356      9312.3807      10112.159    
     37300   312.20969     -3239.3916     -3257.4308      18.039253      9093.1107      10112.159    
     37400   306.83794     -3239.7328     -3257.4617      17.728877      8698.5416      10112.159    
     37500   289.35644     -3240.1554     -3256.8742      16.718808      9022.5166      10112.159    
     37600   277.763       -3240.5809     -3256.6299      16.048947      9235.4001      10112.159    
     37700   312.13625     -3240.0123     -3258.0473      18.03501       8691.7749      10112.159    
     37800   305.59105     -3238.9917     -3256.6486      17.656832      9154.6483      10112.159    
     37900   316.88682     -3238.132      -3256.4415      18.309494      9540.7907      10112.159    
     38000   307.77212     -3238.7207     -3256.5036      17.782853      9155.1746      10112.159    
     38100   303.42615     -3240.4516     -3257.9833      17.531746      8643.308       10112.159    
     38200   290.19193     -3240.6145     -3257.3816      16.767082      8863.0063      10112.159    
     38300   289.63991     -3240.0303     -3256.7655      16.735187      8865.0009      10112.159    
     38400   320.47617     -3238.8116     -3257.3285      18.516884      9108.0301      10112.159    
     38500   309.65895     -3238.5979     -3256.4898      17.891873      9415.8916      10112.159    
     38600   296.78007     -3240.2858     -3257.4336      17.14774       8832.7722      10112.159    
     38700   287.71134     -3241.3645     -3257.9883      16.623755      8713.2883      10112.159    
     38800   289.22915     -3240.9595     -3257.6709      16.711453      8906.3956      10112.159    
     38900   286.98153     -3239.7681     -3256.3497      16.581588      9099.2045      10112.159    
     39000   317.78969     -3238.7953     -3257.1569      18.361661      9031.1595      10112.159    
     39100   306.13214     -3239.1821     -3256.8702      17.688096      8894.6214      10112.159    
     39200   294.3507      -3239.687      -3256.6943      17.007373      9204.2205      10112.159    
     39300   298.13128     -3240.4159     -3257.6417      17.225812      8634.8778      10112.159    
     39400   291.25054     -3241.3439     -3258.1722      16.828248      8350.5545      10112.159    
     39500   289.12736     -3241.1522     -3257.8578      16.705572      8835.3022      10112.159    
     39600   299.92006     -3239.3843     -3256.7135      17.329167      9121.4264      10112.159    
     39700   315.54206     -3238.6192     -3256.851       18.231794      8724.2224      10112.159    
     39800   291.08862     -3239.282      -3256.1009      16.818893      9099.1234      10112.159    
     39900   304.90701     -3240.1769     -3257.7942      17.617309      8867.152       10112.159    
     40000   286.55581     -3241.2055     -3257.7625      16.55699       8348.7237      10112.159    
     40100   298.4864      -3240.6371     -3257.8834      17.246331      8563.8231      10112.159    
     40200   298.2873      -3240.1411     -3257.3759      17.234827      8652.5319      10112.159    
     40300   292.23495     -3239.9259     -3256.811       16.885127      9102.8536      10112.159    
     40400   289.9682      -3239.7201     -3256.4742      16.754155      8828.5393      10112.159    
     40500   329.60414     -3239.0589     -3258.1032      19.044292      8870.7386      10112.159    
     40600   291.24699     -3239.6449     -3256.473       16.828043      8933.0719      10112.159    
     40700   286.85866     -3241.2469     -3257.8214      16.574488      8838.254       10112.159    
     40800   290.39142     -3241.5635     -3258.3421      16.778609      8540.6114      10112.159    
     40900   295.14713     -3240.5516     -3257.605       17.05339       8744.4392      10112.159    
     41000   302.23852     -3239.4389     -3256.9021      17.463125      9000.9299      10112.159    
     41100   299.11152     -3239.0533     -3256.3358      17.28245       9092.2038      10112.159    
     41200   306.30947     -3239.1901     -3256.8885      17.698342      9024.1402      10112.159    
     41300   293.49816     -3240.1829     -3257.141       16.958114      9038.5418      10112.159    
     41400   288.22043     -3240.8816     -3257.5348      16.653171      8561.6546      10112.159    
     41500   292.60159     -3241.2471     -3258.1534      16.90631       8412.9417      10112.159    
     41600   292.1523      -3240.9498     -3257.8302      16.880351      8574.8791      10112.159    
     41700   287.18979     -3239.7009     -3256.2946      16.59362       9166.1404      10112.159    
     41800   324.29148     -3238.7163     -3257.4537      18.73733       9046.4047      10112.159    
     41900   292.46087     -3239.5963     -3256.4945      16.89818       9246.9256      10112.159    
     42000   303.98612     -3240.3188     -3257.8829      17.5641        8481.8317      10112.159    
     42100   286.24273     -3241.2393     -3257.7782      16.5389        8428.4735      10112.159    
     42200   288.46764     -3240.9195     -3257.587       16.667454      8609.2147      10112.159    
     42300   301.85033     -3239.3527     -3256.7934      17.440696      9156.6549      10112.159    
     42400   315.25606     -3238.5461     -3256.7614      18.21527       9152.9012      10112.159    
     42500   310.44613     -3238.9406     -3256.878       17.937356      9043.1721      10112.159    
     42600   283.99584     -3240.282      -3256.691       16.409076      8731.8396      10112.159    
     42700   290.15499     -3240.4435     -3257.2085      16.764948      8692.0755      10112.159    
     42800   303.87027     -3240.2004     -3257.7578      17.557407      8685.2535      10112.159    
     42900   305.45648     -3239.9957     -3257.6448      17.649057      8825.1238      10112.159    
     43000   298.11036     -3239.9737     -3257.1983      17.224604      9326.7528      10112.159    
     43100   293.23492     -3240.0032     -3256.9461      16.942904      8931.6577      10112.159    
     43200   293.75923     -3239.8509     -3256.8241      16.973198      8836.1294      10112.159    
     43300   308.6857      -3239.1059     -3256.9415      17.835639      9294.8889      10112.159    
     43400   308.85401     -3239.2474     -3257.0928      17.845364      8957.0791      10112.159    
     43500   303.01445     -3240.3804     -3257.8883      17.507958      8574.379       10112.159    
     43600   291.23317     -3241.1253     -3257.9526      16.827244      8310.1457      10112.159    
     43700   309.00828     -3240.4886     -3258.3429      17.854277      8460.7862      10112.159    
     43800   294.5663      -3238.5799     -3255.5998      17.01983       9497.7516      10112.159    
     43900   316.1111      -3237.8599     -3256.1246      18.264673      9557.6433      10112.159    
     44000   311.43798     -3238.9304     -3256.9251      17.994664      8911.1219      10112.159    
     44100   296.86551     -3240.22       -3257.3727      17.152677      8998.9959      10112.159    
     44200   296.12804     -3240.4372     -3257.5472      17.110066      9071.5086      10112.159    
     44300   300.97345     -3240.3699     -3257.7599      17.390031      8821.5849      10112.159    
     44400   304.26459     -3240.3272     -3257.9074      17.58019       8774.5986      10112.159    
     44500   306.7117      -3239.1551     -3256.8767      17.721583      9254.2126      10112.159    
     44600   315.34264     -3238.4846     -3256.7049      18.220272      9145.4943      10112.159    
     44700   296.58062     -3239.2229     -3256.3591      17.136216      8750.2421      10112.159    
     44800   284.50335     -3240.9717     -3257.4101      16.4384        8865.4465      10112.159    
     44900   295.44117     -3241.136      -3258.2063      17.07038       8539.5671      10112.159    
     45000   294.73717     -3240.6546     -3257.6843      17.029703      8646.0141      10112.159    
     45100   300.34795     -3239.6291     -3256.9829      17.35389       8773.3909      10112.159    
     45200   300.27608     -3238.7428     -3256.0925      17.349737      9127.751       10112.159    
     45300   305.67382     -3238.6931     -3256.3547      17.661615      9339.898       10112.159    
     45400   323.1799      -3239.2076     -3257.8807      18.673104      9066.9683      10112.159    
     45500   289.73548     -3240.1343     -3256.875       16.740709      9002.6929      10112.159    
     45600   284.78902     -3240.3033     -3256.7582      16.454906      8923.4419      10112.159    
     45700   306.61563     -3239.6317     -3257.3477      17.716032      8870.8866      10112.159    
     45800   307.76663     -3238.2525     -3256.0351      17.782536      9397.6964      10112.159    
     45900   325.23617     -3237.5594     -3256.3513      18.791913      9270.0843      10112.159    
     46000   286.92988     -3239.427      -3256.0056      16.578603      9028.4981      10112.159    
     46100   303.35299     -3240.0265     -3257.554       17.527519      8894.6137      10112.159    
     46200   298.86389     -3240.5617     -3257.8298      17.268142      9086.0482      10112.159    
     46300   286.86475     -3240.7648     -3257.3396      16.57484       8598.9982      10112.159    
     46400   306.78673     -3239.4803     -3257.2062      17.725918      9213.0419      10112.159    
     46500   318.07983     -3238.2516     -3256.63        18.378425      9083.3514      10112.159    
     46600   311.6784      -3238.6875     -3256.696       18.008555      8842.6953      10112.159    
     46700   301.79102     -3239.7802     -3257.2175      17.437269      8771.1466      10112.159    
     46800   308.37105     -3240.0146     -3257.8321      17.817459      9048.1326      10112.159    
     46900   281.91056     -3240.2194     -3256.508       16.288591      8910.2784      10112.159    
     47000   318.83608     -3239.2643     -3257.6864      18.422121      8996.3691      10112.159    
     47100   320.73859     -3238.1086     -3256.6406      18.532046      9421.3239      10112.159    
     47200   314.19775     -3237.4903     -3255.6444      18.154122      9639.3858      10112.159    
     47300   312.16995     -3239.0046     -3257.0415      18.036957      8897.286       10112.159    
     47400   303.34441     -3240.3772     -3257.9042      17.527023      8604.9339      10112.159    
     47500   305.19846     -3240.4426     -3258.0768      17.634149      8590.0405      10112.159    
     47600   283.85526     -3240.2662     -3256.6671      16.400954      8772.1693      10112.159    
     47700   295.64581     -3239.0071     -3256.0893      17.082203      9519.184       10112.159    
     47800   328.29649     -3238.1755     -3257.1443      18.968736      9065.6833      10112.159    
     47900   306.72216     -3238.977      -3256.6992      17.722187      9067.5999      10112.159    
     48000   304.20986     -3239.7732     -3257.3502      17.577028      8553.8712      10112.159    
     48100   297.08896     -3240.0449     -3257.2105      17.165588      8927.4935      10112.159    
     48200   301.15624     -3239.8293     -3257.2299      17.400592      8832.9766      10112.159    
     48300   307.27472     -3240.1376     -3257.8917      17.754114      8637.9678      10112.159    
     48400   284.85036     -3241.143      -3257.6014      16.45845       8528.6194      10112.159    
     48500   292.73282     -3240.7764     -3257.6903      16.913893      8803.5221      10112.159    
     48600   316.48391     -3239.5874     -3257.8736      18.286214      8883.7246      10112.159    
     48700   289.44957     -3238.9039     -3255.6281      16.724189      9212.8223      10112.159    
     48800   327.64249     -3238.09       -3257.0209      18.930949      9335.813       10112.159    
     48900   284.24544     -3240.0428     -3256.4663      16.423498      9050.8813      10112.159    
     49000   295.71978     -3240.6834     -3257.7699      17.086477      8872.478       10112.159    
     49100   306.26507     -3240.7871     -3258.4829      17.695776      8514.8106      10112.159    
     49200   295.6932      -3240.4201     -3257.5051      17.084942      8779.68        10112.159    
     49300   296.74149     -3238.9229     -3256.0684      17.145511      9575.8206      10112.159    
     49400   304.67757     -3238.3374     -3255.9415      17.604052      9150.4342      10112.159    
     49500   315.45326     -3238.8819     -3257.1085      18.226664      9221.2259      10112.159    
     49600   308.10273     -3239.5936     -3257.3956      17.801955      9122.8514      10112.159    
     49700   295.03663     -3239.9028     -3256.9498      17.047005      8978.2649      10112.159    
     49800   285.18764     -3240.2458     -3256.7237      16.477938      8932.0036      10112.159    
     49900   291.19727     -3240.8064     -3257.6315      16.82517       8625.0735      10112.159    
     50000   287.48838     -3241.3186     -3257.9295      16.610873      8403.8332      10112.159    
     50100   306.59401     -3240.1754     -3257.8902      17.714783      8911.2795      10112.159    
     50200   308.22985     -3239.1143     -3256.9236      17.8093        9138.0631      10112.159    
     50300   289.29012     -3239.3531     -3256.0681      16.714976      9314.0432      10112.159    
     50400   305.99074     -3239.9589     -3257.6388      17.679926      9026.9986      10112.159    
     50500   277.89698     -3241.6324     -3257.6891      16.056689      8842.4351      10112.159    
     50600   284.46064     -3241.4098     -3257.8458      16.435932      9046.8666      10112.159    
     50700   295.67673     -3240.5084     -3257.5923      17.08399       8995.0339      10112.159    
     50800   303.75958     -3239.8358     -3257.3868      17.551011      9095.2853      10112.159    
     50900   282.74434     -3239.7723     -3256.1091      16.336766      8959.326       10112.159    
     51000   310.62032     -3239.3915     -3257.3389      17.94742       8699.5932      10112.159    
     51100   306.22432     -3240.232      -3257.9254      17.693422      8957.4946      10112.159    
     51200   275.4509      -3241.8745     -3257.7898      15.915356      8608.5823      10112.159    
     51300   283.57655     -3241.2644     -3257.6492      16.38485       8648.8467      10112.159    
     51400   307.19381     -3239.9518     -3257.7013      17.749439      9000.4583      10112.159    
     51500   304.96718     -3239.5479     -3257.1686      17.620785      9230.9025      10112.159    
     51600   289.41686     -3239.6725     -3256.3948      16.722299      9374.5708      10112.159    
     51700   303.20818     -3239.6235     -3257.1427      17.519152      9092.6989      10112.159    
     51800   285.11264     -3240.5413     -3257.0149      16.473604      8865.2727      10112.159    
     51900   303.55944     -3240.9962     -3258.5356      17.539447      8522.4789      10112.159    
     52000   290.42188     -3240.9754     -3257.7558      16.780368      8653.2974      10112.159    
     52100   306.90618     -3239.4968     -3257.2297      17.73282       9264.7503      10112.159    
     52200   309.10372     -3238.7142     -3256.574       17.859792      9059.7635      10112.159    
     52300   305.47979     -3238.9739     -3256.6243      17.650404      8962.249       10112.159    
     52400   302.63929     -3239.774      -3257.2603      17.486282      9009.1346      10112.159    
     52500   298.76759     -3240.1515     -3257.4141      17.262578      8793.6136      10112.159    
     52600   302.86237     -3240.1145     -3257.6137      17.499171      8915.4985      10112.159    
     52700   304.26162     -3239.8145     -3257.3945      17.580019      8779.5596      10112.159    
     52800   310.69623     -3238.915      -3256.8668      17.951806      9252.691       10112.159    
     52900   302.18488     -3238.2299     -3255.6899      17.460026      9671.5361      10112.159    
     53000   313.56412     -3238.6704     -3256.7879      18.117511      9483.7924      10112.159    
     53100   307.90898     -3240.3099     -3258.1007      17.790761      8694.0582      10112.159    
     53200   289.01079     -3240.9561     -3257.6549      16.698837      8485.6569      10112.159    
     53300   290.23177     -3240.4053     -3257.1747      16.769384      8776.2107      10112.159    
     53400   302.32852     -3239.2679     -3256.7362      17.468326      9386.4404      10112.159    
     53500   309.95165     -3238.4723     -3256.3811      17.908785      9605.5153      10112.159    
     53600   342.56239     -3236.9015     -3256.6945      19.79301       9368.224       10112.159    
     53700   312.88047     -3237.7232     -3255.8012      18.07801       9423.4359      10112.159    
     53800   314.42872     -3239.2761     -3257.4435      18.167466      9031.2781      10112.159    
     53900   283.55339     -3240.3554     -3256.7389      16.383512      9365.2967      10112.159    
     54000   305.35632     -3240.2556     -3257.8988      17.64327       8651.5752      10112.159    
     54100   292.84548     -3239.9772     -3256.8976      16.920402      8790.5888      10112.159    
     54200   322.54031     -3238.5212     -3257.1573      18.636148      9322.0855      10112.159    
     54300   314.09687     -3238.6009     -3256.7492      18.148292      9174.808       10112.159    
     54400   293.69344     -3240.1869     -3257.1563      16.969397      9176.5368      10112.159    
     54500   281.73002     -3241.1786     -3257.4567      16.278159      8540.6418      10112.159    
     54600   300.34744     -3240.6304     -3257.9843      17.35386       8795.5051      10112.159    
     54700   301.81993     -3239.9982     -3257.4372      17.43894       8768.1924      10112.159    
     54800   313.13872     -3239.1529     -3257.2458      18.092931      9126.7649      10112.159    
     54900   303.33302     -3238.7964     -3256.3228      17.526365      9725.9858      10112.159    
     55000   291.33905     -3240.1083     -3256.9417      16.833362      8815.3422      10112.159    
     55100   300.88711     -3241.1034     -3258.4884      17.385042      8474.1244      10112.159    
     55200   286.27211     -3240.8221     -3257.3627      16.540598      8894.5596      10112.159    
     55300   304.81227     -3239.6209     -3257.2327      17.611835      8988.9483      10112.159    
     55400   293.07547     -3239.3091     -3256.2428      16.933691      9332.4672      10112.159    
     55500   308.06094     -3239.2679     -3257.0675      17.799541      8952.1053      10112.159    
     55600   296.50347     -3240.3561     -3257.4878      17.131758      8377.6615      10112.159    
     55700   305.19855     -3240.7723     -3258.4065      17.634154      8471.2979      10112.159    
     55800   274.64943     -3240.6758     -3256.5449      15.869048      8960.6216      10112.159    
     55900   308.15394     -3238.7589     -3256.5638      17.804915      9188.8122      10112.159    
     56000   314.40326     -3238.3334     -3256.4994      18.165996      9089.8437      10112.159    
     56100   305.455       -3239.248      -3256.897       17.648972      9093.2569      10112.159    
     56200   287.3297      -3240.6892     -3257.2909      16.601704      8925.4348      10112.159    
     56300   303.9616      -3240.5381     -3258.1008      17.562684      8732.1319      10112.159    
     56400   301.28481     -3239.9198     -3257.3278      17.408021      9368.3163      10112.159    
     56500   301.36147     -3238.9259     -3256.3384      17.41245       9305.4334      10112.159    
     56600   311.49064     -3237.6866     -3255.6843      17.997706      9512.9931      10112.159    
     56700   323.52835     -3238.3989     -3257.0922      18.693237      9125.4203      10112.159    
     56800   308.09916     -3240.1971     -3257.9988      17.801749      8737.78        10112.159    
     56900   278.11656     -3240.8063     -3256.8757      16.069376      8867.3997      10112.159    
     57000   295.6387      -3240.3957     -3257.4775      17.081793      9306.2156      10112.159    
     57100   290.40542     -3239.8132     -3256.5926      16.779417      8821.1534      10112.159    
     57200   321.09114     -3238.2085     -3256.7609      18.552417      9022.8397      10112.159    
     57300   318.50459     -3238.3127     -3256.7157      18.402967      9354.1847      10112.159    
     57400   297.09778     -3239.29       -3256.4561      17.166097      9184.1648      10112.159    
     57500   300.7454      -3240.0463     -3257.4232      17.376854      8886.7199      10112.159    
     57600   290.63798     -3240.1663     -3256.9592      16.792855      9078.7345      10112.159    
     57700   307.34601     -3239.7735     -3257.5317      17.758233      8858.378       10112.159    
     57800   308.80755     -3239.9657     -3257.8084      17.84268       8843.5658      10112.159    
     57900   282.45233     -3240.8724     -3257.1923      16.319894      8900.0488      10112.159    
     58000   291.87384     -3240.9429     -3257.8071      16.864262      8958.7408      10112.159    
     58100   297.81651     -3240.0487     -3257.2564      17.207625      9205.6902      10112.159    
     58200   306.79396     -3238.8899     -3256.6163      17.726335      9679.3021      10112.159    
     58300   291.68818     -3238.9306     -3255.7841      16.853534      9301.0847      10112.159    
     58400   308.43124     -3239.8748     -3257.6957      17.820937      9157.329       10112.159    
     58500   288.07204     -3241.5586     -3258.2032      16.644596      8397.342       10112.159    
     58600   276.29909     -3241.4325     -3257.3969      15.964364      8949.1559      10112.159    
     58700   292.33906     -3240.013      -3256.9042      16.891142      9014.77        10112.159    
     58800   303.69727     -3239.5203     -3257.0678      17.547411      9044.7527      10112.159    
     58900   322.91661     -3239.3757     -3258.0336      18.657891      9085.9025      10112.159    
     59000   285.43225     -3240.0608     -3256.5529      16.492071      9068.3257      10112.159    
     59100   281.95199     -3241.0127     -3257.3037      16.290984      8938.7285      10112.159    
     59200   289.68049     -3241.8034     -3258.5409      16.737532      8468.3486      10112.159    
     59300   288.70621     -3241.3358     -3258.017       16.681238      8712.6187      10112.159    
     59400   307.62524     -3239.5134     -3257.2878      17.774366      8917.3889      10112.159    
     59500   303.6504      -3239.2925     -3256.8372      17.544703      8674.6431      10112.159    
     59600   298.92834     -3239.4031     -3256.675       17.271866      9071.6913      10112.159    
     59700   292.9856      -3239.8726     -3256.8011      16.928499      9129.9353      10112.159    
     59800   295.11542     -3241.0965     -3258.148       17.051558      8501.5582      10112.159    
     59900   277.45779     -3241.7069     -3257.7382      16.031313      8723.2946      10112.159    
     60000   317.64598     -3240.0725     -3258.4259      18.353358      8368.545       10112.159    
     60100   293.87328     -3239.2712     -3256.251       16.979788      9142.124       10112.159    
     60200   315.89733     -3239.0409     -3257.2932      18.252322      9024.3869      10112.159    
     60300   287.86007     -3240.1316     -3256.7639      16.632349      9157.2811      10112.159    
     60400   296.31455     -3240.6591     -3257.78        17.120843      8952.952       10112.159    
     60500   301.02535     -3240.7849     -3258.1779      17.393029      8589.8571      10112.159    
     60600   306.23896     -3239.723      -3257.4173      17.694268      8874.145       10112.159    
     60700   301.57255     -3238.4902     -3255.9148      17.424646      9227.2462      10112.159    
     60800   314.97397     -3238.3653     -3256.5642      18.198971      9065.0036      10112.159    
     60900   299.52346     -3239.8825     -3257.1887      17.306251      8854.1477      10112.159    
     61000   299.02825     -3240.6022     -3257.8798      17.277638      8721.1289      10112.159    
     61100   294.07722     -3240.5749     -3257.5664      16.991572      8724.15        10112.159    
     61200   302.70512     -3239.6683     -3257.1584      17.490085      8903.6401      10112.159    
     61300   309.2568      -3238.3434     -3256.2121      17.868637      9245.8761      10112.159    
     61400   316.09962     -3237.1839     -3255.4479      18.26401       9403.1857      10112.159    
     61500   333.50392     -3236.5779     -3255.8475      19.269618      9316.8768      10112.159    
     61600   308.7299      -3238.5496     -3256.3878      17.838193      8592.3676      10112.159    
     61700   306.41156     -3239.4841     -3257.1883      17.704241      8649.8889      10112.159    
     61800   284.3341      -3240.6791     -3257.1077      16.428621      8755.5232      10112.159    
     61900   295.28009     -3240.8502     -3257.9112      17.061072      8484.1469      10112.159    
     62000   299.01169     -3240.0722     -3257.3489      17.276682      8501.002       10112.159    
     62100   317.68201     -3238.4402     -3256.7956      18.355439      8759.6505      10112.159    
     62200   309.61274     -3238.5093     -3256.3985      17.889203      9107.7925      10112.159    
     62300   291.47094     -3239.4997     -3256.3406      16.840982      9166.3192      10112.159    
     62400   311.97803     -3239.7764     -3257.8023      18.025867      8988.1254      10112.159    
     62500   295.56718     -3240.329      -3257.4067      17.07766       8788.3973      10112.159    
     62600   301.08188     -3240.318      -3257.7143      17.396295      8757.6733      10112.159    
     62700   314.09194     -3238.7482     -3256.8962      18.148007      9081.1781      10112.159    
     62800   310.72628     -3238.2513     -3256.2048      17.953542      9342.4967      10112.159    
     62900   296.46629     -3239.0559     -3256.1855      17.12961       9320.5866      10112.159    
     63000   297.24563     -3240.3554     -3257.53        17.17464       8843.4214      10112.159    
     63100   293.79301     -3240.9845     -3257.9597      16.97515       8255.4434      10112.159    
     63200   298.69129     -3240.4632     -3257.7214      17.258169      8807.2179      10112.159    
     63300   292.23858     -3239.7316     -3256.6169      16.885336      9415.3301      10112.159    
     63400   308.61482     -3239.189      -3257.0205      17.831544      9103.1527      10112.159    
     63500   297.10776     -3239.6639     -3256.8306      17.166674      8905.9114      10112.159    
     63600   292.72011     -3241.4278     -3258.341       16.913158      8537.4957      10112.159    
     63700   282.19901     -3242.1458     -3258.4511      16.305257      8459.7526      10112.159    
     63800   281.32231     -3241.2306     -3257.4852      16.254602      8667.9263      10112.159    
     63900   318.13054     -3239.7427     -3258.1241      18.381355      8785.4628      10112.159    
     64000   294.83383     -3239.983      -3257.0183      17.035288      8896.4625      10112.159    
     64100   290.90879     -3239.948      -3256.7565      16.808502      9202.2335      10112.159    
     64200   299.18323     -3239.2815     -3256.5681      17.286593      8958.8882      10112.159    
     64300   318.99618     -3238.3141     -3256.7455      18.431371      9502.72        10112.159    
     64400   312.577       -3238.6392     -3256.6997      18.060475      9063.7947      10112.159    
     64500   296.72234     -3240.3063     -3257.4507      17.144405      8906.9721      10112.159    
     64600   305.83552     -3240.3564     -3258.0274      17.670957      8628.0391      10112.159    
     64700   294.56771     -3240.1554     -3257.1753      17.019912      8812.8334      10112.159    
     64800   286.29455     -3239.3485     -3255.8904      16.541895      8862.0864      10112.159    
     64900   322.37489     -3237.7277     -3256.3542      18.62659       9382.7866      10112.159    
     65000   318.90411     -3238.4929     -3256.9189      18.426051      9298.9802      10112.159    
     65100   305.86494     -3239.4149     -3257.0876      17.672658      8761.9868      10112.159    
     65200   302.89972     -3239.7743     -3257.2757      17.501329      8967.3782      10112.159    
     65300   284.24728     -3240.7124     -3257.136       16.423605      9124.8976      10112.159    
     65400   293.99761     -3240.8945     -3257.8815      16.986972      8566.1155      10112.159    
     65500   319.02987     -3239.2047     -3257.638       18.433318      8784.5273      10112.159    
     65600   300.2372      -3238.2121     -3255.5596      17.347491      9322.0248      10112.159    
     65700   310.83089     -3238.6828     -3256.6424      17.959587      9296.4756      10112.159    
     65800   305.32426     -3239.931      -3257.5724      17.641417      8919.8818      10112.159    
     65900   287.56705     -3240.4838     -3257.0992      16.615418      8729.6776      10112.159    
     66000   312.27334     -3240.1193     -3258.1622      18.04293       8900.8386      10112.159    
     66100   272.49675     -3240.282      -3256.0266      15.744667      9169.9484      10112.159    
     66200   311.35147     -3238.4599     -3256.4496      17.989665      9287.8816      10112.159    
     66300   321.07164     -3238.1387     -3256.69        18.55129       8901.6125      10112.159    
     66400   294.75675     -3239.2521     -3256.2829      17.030834      8777.0746      10112.159    
     66500   303.68846     -3239.9329     -3257.4798      17.546902      8981.8706      10112.159    
     66600   299.49904     -3240.2771     -3257.5819      17.30484       8598.8549      10112.159    
     66700   303.6961      -3240.1147     -3257.6621      17.547343      8634.5018      10112.159    
     66800   295.03218     -3239.3967     -3256.4435      17.046748      8988.8199      10112.159    
     66900   309.62288     -3238.4732     -3256.363       17.889788      9213.9745      10112.159    
     67000   290.18921     -3239.4579     -3256.2248      16.766925      9212.138       10112.159    
     67100   294.04756     -3241.5335     -3258.5234      16.989858      8259.8931      10112.159    
     67200   286.30581     -3241.6438     -3258.1863      16.542545      8414.6304      10112.159    
     67300   293.56685     -3240.6013     -3257.5634      16.962083      8510.0332      10112.159    
     67400   314.41216     -3239.2487     -3257.4152      18.166509      8955.5278      10112.159    
     67500   302.98548     -3239.4467     -3256.953       17.506285      9059.7091      10112.159    
     67600   286.73874     -3240.1643     -3256.7319      16.567559      8966.2265      10112.159    
     67700   317.76808     -3239.813      -3258.1735      18.360412      8834.3472      10112.159    
     67800   286.29683     -3239.5456     -3256.0876      16.542026      9208.3061      10112.159    
     67900   312.1013      -3238.8835     -3256.9164      18.03299       9148.666       10112.159    
     68000   305.7705      -3239.1714     -3256.8386      17.667201      9117.5404      10112.159    
     68100   302.42414     -3240.1613     -3257.6352      17.47385       9119.3011      10112.159    
     68200   292.5931      -3241.1676     -3258.0734      16.90582       8345.8371      10112.159    
     68300   285.82876     -3241.1327     -3257.6477      16.514981      8982.2511      10112.159    
     68400   305.828       -3239.1159     -3256.7864      17.670523      9387.1517      10112.159    
     68500   309.65556     -3238.7877     -3256.6794      17.891677      9163.2885      10112.159    
     68600   316.51831     -3239.1468     -3257.435       18.288201      8824.8411      10112.159    
     68700   298.44632     -3240.3016     -3257.5456      17.244015      8746.6176      10112.159    
     68800   277.36192     -3241.186      -3257.2118      16.025773      8777.7662      10112.159    
     68900   299.27859     -3240.516      -3257.8081      17.292103      8733.687       10112.159    
     69000   302.85479     -3240.1615     -3257.6603      17.498733      8927.2481      10112.159    
     69100   307.99593     -3239.9109     -3257.7067      17.795785      8977.2701      10112.159    
     69200   287.2531      -3240.0815     -3256.6788      16.597279      9134.5986      10112.159    
     69300   300.78362     -3239.5539     -3256.933       17.379063      9223.6679      10112.159    
     69400   315.58073     -3238.5783     -3256.8123      18.234029      8954.0634      10112.159    
     69500   308.59777     -3239.0162     -3256.8468      17.830559      9095.9937      10112.159    
     69600   309.69729     -3240.4229     -3258.317       17.894088      8521.2549      10112.159    
     69700   272.35209     -3241.726      -3257.4623      15.736309      8766.1704      10112.159    
     69800   294.49954     -3240.8203     -3257.8363      17.015973      8823.1026      10112.159    
     69900   300.09368     -3239.8525     -3257.1917      17.339198      8939.6872      10112.159    
     70000   304.76461     -3239.2253     -3256.8343      17.609081      9150.3357      10112.159    
     70100   315.26336     -3238.8281     -3257.0438      18.215691      9180.8906      10112.159    
     70200   295.64249     -3239.9405     -3257.0225      17.082011      8923.0925      10112.159    
     70300   287.27379     -3241.2412     -3257.8396      16.598474      8840.9444      10112.159    
     70400   303.10434     -3240.8982     -3258.4113      17.513152      8586.8565      10112.159    
     70500   296.30044     -3239.7931     -3256.9132      17.120027      8767.8841      10112.159    
     70600   305.60717     -3238.8884     -3256.5462      17.657764      9528.3765      10112.159    
     70700   312.66131     -3239.1417     -3257.2071      18.065347      9071.5204      10112.159    
     70800   294.2309      -3239.8332     -3256.8337      17.000451      9254.8559      10112.159    
     70900   299.52503     -3240.2076     -3257.5139      17.306342      8727.9712      10112.159    
     71000   315.9486      -3240.0457     -3258.301       18.255284      8676.0549      10112.159    
     71100   290.31661     -3238.4395     -3255.2138      16.774286      9426.9015      10112.159    
     71200   311.45263     -3237.6792     -3255.6747      17.99551       9712.3662      10112.159    
     71300   315.04497     -3238.9358     -3257.1389      18.203073      8844.6558      10112.159    
     71400   309.31765     -3240.0315     -3257.9036      17.872152      8623.2812      10112.159    
     71500   285.84248     -3240.6146     -3257.1304      16.515774      9092.9067      10112.159    
     71600   291.52008     -3240.2489     -3257.0927      16.843822      9197.4063      10112.159    
     71700   304.60582     -3238.9342     -3256.5342      17.599906      9049.1996      10112.159    
     71800   329.01854     -3237.5567     -3256.5672      19.010456      9544.1242      10112.159    
     71900   297.61152     -3238.3461     -3255.5419      17.195781      9311.6636      10112.159    
     72000   316.35334     -3239.01       -3257.2886      18.27867       9075.0073      10112.159    
     72100   294.77509     -3239.6647     -3256.6966      17.031894      9073.1198      10112.159    
     72200   293.09723     -3240.4021     -3257.337       16.934948      8999.0626      10112.159    
     72300   309.50945     -3240.7081     -3258.5914      17.883235      8593.2122      10112.159    
     72400   284.35866     -3240.5021     -3256.9321      16.43004       8918.5294      10112.159    
     72500   312.79148     -3238.7082     -3256.7811      18.072868      9259.4542      10112.159    
     72600   301.422       -3238.8871     -3256.303       17.415947      9205.2654      10112.159    
     72700   314.49324     -3239.3512     -3257.5224      18.171195      9002.7888      10112.159    
     72800   293.58799     -3241.0268     -3257.9901      16.963304      8842.4929      10112.159    
     72900   292.71775     -3241.3464     -3258.2595      16.913022      8358.9144      10112.159    
     73000   283.1657      -3240.9581     -3257.3193      16.361112      9122.8257      10112.159    
     73100   302.26411     -3239.6498     -3257.1144      17.464604      8930.0152      10112.159    
     73200   307.69177     -3239.428      -3257.2062      17.77821       9028.4326      10112.159    
     73300   295.35076     -3239.8239     -3256.8891      17.065156      8891.1518      10112.159    
     73400   313.70083     -3239.4394     -3257.5648      18.12541       8926.7011      10112.159    
     73500   289.06965     -3239.6867     -3256.3889      16.702237      9543.3112      10112.159    
     73600   297.27223     -3240.64       -3257.8162      17.176177      8641.444       10112.159    
     73700   296.78058     -3240.8887     -3258.0365      17.14777       8729.0155      10112.159    
     73800   300.48846     -3240.0275     -3257.3895      17.362008      8979.7287      10112.159    
     73900   299.93177     -3238.4996     -3255.8294      17.329843      9382.3044      10112.159    
     74000   320.71944     -3238.3168     -3256.8477      18.53094       9175.1864      10112.159    
     74100   304.62809     -3239.3208     -3256.922       17.601193      9130.8553      10112.159    
     74200   317.48031     -3239.711      -3258.0548      18.343785      8945.8603      10112.159    
     74300   274.04315     -3240.5058     -3256.3398      15.834017      8998.9805      10112.159    
     74400   304.11528     -3240.0415     -3257.613       17.571563      9144.7713      10112.159    
     74500   312.43602     -3239.7196     -3257.772       18.05233       8590.4234      10112.159    
     74600   310.86607     -3238.879      -3256.8406      17.961619      8983.9945      10112.159    
     74700   302.27088     -3238.3041     -3255.7691      17.464995      9652.1311      10112.159    
     74800   305.99885     -3239.0709     -3256.7513      17.680394      9207.7039      10112.159    
     74900   305.53727     -3240.1445     -3257.7983      17.653725      8651.9514      10112.159    
     75000   290.92817     -3240.7893     -3257.599       16.809622      8956.132       10112.159    
     75100   299.12474     -3240.7472     -3258.0304      17.283214      8469.513       10112.159    
     75200   295.98463     -3239.4067     -3256.5085      17.10178       8711.2668      10112.159    
     75300   317.88047     -3238.233      -3256.5999      18.366906      8963.1696      10112.159    
     75400   299.13279     -3238.9868     -3256.2705      17.283679      9604.2652      10112.159    
[...]
    281800   305.09078     -3241.0324     -3258.6603      17.627927      8546.1897      10112.159    
    281900   281.14008     -3241.1914     -3257.4355      16.244073      8897.6796      10112.159    
    282000   294.86207     -3239.8851     -3256.922       17.03692       9279.2764      10112.159    
    282100   301.68664     -3239.0436     -3256.4749      17.431238      9199.8846      10112.159    
    282200   322.63617     -3239.059      -3257.7007      18.641687      9029.2275      10112.159    
    282300   301.59789     -3239.9327     -3257.3588      17.42611       8759.1367      10112.159    
    282400   305.38242     -3240.36       -3258.0048      17.644778      8934.3373      10112.159    
    282500   280.07028     -3240.3299     -3256.5122      16.18226       9336.9724      10112.159    
    282600   314.94854     -3240.0112     -3258.2087      18.197501      8733.406       10112.159    
    282700   291.30829     -3240.4876     -3257.3192      16.831585      8911.267       10112.159    
    282800   301.70395     -3239.7164     -3257.1486      17.432238      8905.6339      10112.159    
    282900   308.10046     -3238.4636     -3256.2655      17.801824      9253.7777      10112.159    
    283000   308.15273     -3238.1326     -3255.9374      17.804845      9271.5058      10112.159    
    283100   315.32715     -3239.3074     -3257.5267      18.219377      8949.4179      10112.159    
    283200   288.31824     -3240.7291     -3257.388       16.658821      8938.9906      10112.159    
    283300   306.9235      -3240.4384     -3258.1723      17.73382       8780.786       10112.159    
    283400   298.85011     -3239.7105     -3256.9779      17.267346      8928.2124      10112.159    
    283500   315.02438     -3238.7444     -3256.9463      18.201884      9249.8694      10112.159    
    283600   300.90682     -3239.1685     -3256.5547      17.386181      8987.5441      10112.159    
    283700   273.38356     -3240.8202     -3256.6161      15.795907      8966.9204      10112.159    
    283800   298.34236     -3241.0944     -3258.3324      17.238008      8572.2608      10112.159    
    283900   298.46512     -3240.6443     -3257.8894      17.245101      8769.6603      10112.159    
    284000   298.04994     -3239.9573     -3257.1784      17.221112      9480.8915      10112.159    
    284100   290.23103     -3239.8631     -3256.6324      16.769342      9098.1207      10112.159    
    284200   307.2352      -3239.4202     -3257.172       17.75183       8959.3363      10112.159    
    284300   303.6075      -3239.7699     -3257.3121      17.542224      8971.1268      10112.159    
    284400   309.25836     -3240.0275     -3257.8962      17.868727      8812.7892      10112.159    
    284500   297.73367     -3239.9204     -3257.1233      17.202839      8949.6174      10112.159    
    284600   291.85104     -3239.6304     -3256.4933      16.862944      9222.5117      10112.159    
    284700   312.79321     -3238.7278     -3256.8007      18.072968      8940.2815      10112.159    
    284800   313.23579     -3238.0425     -3256.1411      18.09854       9289.5224      10112.159    
    284900   293.83133     -3239.6919     -3256.6693      16.977364      8920.1771      10112.159    
    285000   299.76335     -3240.5184     -3257.8385      17.320112      8736.3012      10112.159    
    285100   291.09962     -3240.6466     -3257.4661      16.819528      8894.7038      10112.159    
    285200   310.60726     -3239.8302     -3257.7769      17.946665      8891.9577      10112.159    
    285300   296.33929     -3238.8691     -3255.9914      17.122272      9546.1535      10112.159    
    285400   324.31532     -3237.1404     -3255.8791      18.738707      9454.2152      10112.159    
    285500   312.5035      -3237.8366     -3255.8928      18.056229      9596.5955      10112.159    
    285600   317.69748     -3238.9487     -3257.305       18.356333      8947.0963      10112.159    
    285700   300.30849     -3239.7184     -3257.07        17.35161       8560.0031      10112.159    
    285800   290.74218     -3240.402      -3257.2008      16.798875      9001.3925      10112.159    
    285900   301.45833     -3240.6414     -3258.0594      17.418047      9141.8128      10112.159    
    286000   294.66148     -3240.2335     -3257.2588      17.02533       9138.3165      10112.159    
    286100   305.29268     -3238.6871     -3256.3267      17.639593      9450.5765      10112.159    
    286200   317.28082     -3238.1046     -3256.4368      18.332259      9258.8324      10112.159    
    286300   303.35553     -3239.3133     -3256.841       17.527666      8975.0716      10112.159    
    286400   309.91962     -3240.0169     -3257.9238      17.906934      8982.9154      10112.159    
    286500   293.20716     -3240.3936     -3257.3349      16.9413        8817.8579      10112.159    
    286600   285.30752     -3240.5192     -3257.004       16.484864      9063.3569      10112.159    
    286700   303.16703     -3239.5512     -3257.068       17.516774      9110.6344      10112.159    
    286800   321.1519      -3237.9532     -3256.5091      18.555927      9455.4871      10112.159    
    286900   304.35111     -3238.4833     -3256.0685      17.585189      9142.6302      10112.159    
    287000   296.64582     -3239.3682     -3256.5082      17.139983      9293.1599      10112.159    
    287100   300.74707     -3240.0292     -3257.4061      17.376951      9076.498       10112.159    
    287200   310.68247     -3240.0232     -3257.9742      17.951011      8662.4539      10112.159    
    287300   293.63241     -3240.1923     -3257.1582      16.965871      8664.8561      10112.159    
    287400   288.09925     -3240.1211     -3256.7673      16.646169      9192.1542      10112.159    
    287500   315.52045     -3239.0609     -3257.2915      18.230546      9047.785       10112.159    
    287600   321.96708     -3237.396      -3255.9991      18.603028      9724.1245      10112.159    
    287700   309.09358     -3237.7614     -3255.6206      17.859206      9610.5686      10112.159    
    287800   321.021       -3239.2515     -3257.7998      18.548364      8973.2523      10112.159    
    287900   288.35199     -3240.1016     -3256.7624      16.660772      9227.2127      10112.159    
    288000   292.69066     -3239.9619     -3256.8734      16.911457      8906.5299      10112.159    
    288100   319.9291      -3239.3836     -3257.8689      18.485275      8829.6706      10112.159    
    288200   291.4545      -3240.0292     -3256.8693      16.840033      8808.2312      10112.159    
    288300   296.06244     -3240.7417     -3257.848       17.106276      8790.7548      10112.159    
    288400   284.30103     -3241.5517     -3257.9785      16.42671       8813.6981      10112.159    
    288500   292.24882     -3241.0421     -3257.9281      16.885928      8622.1845      10112.159    
    288600   308.34001     -3239.2701     -3257.0857      17.815665      8963.56        10112.159    
    288700   318.91363     -3238.7276     -3257.1542      18.426602      9209.7374      10112.159    
    288800   286.22058     -3239.5382     -3256.0759      16.53762       9408.7564      10112.159    
    288900   290.29435     -3240.4031     -3257.1761      16.773         8888.7635      10112.159    
    289000   298.04907     -3241.3174     -3258.5385      17.221062      8663.8233      10112.159    
    289100   298.37875     -3241.2718     -3258.5119      17.240111      8544.6484      10112.159    
    289200   300.7252      -3239.3648     -3256.7405      17.375687      9230.2729      10112.159    
    289300   293.72767     -3239.1012     -3256.0725      16.971375      9379.2331      10112.159    
    289400   318.39205     -3239.052      -3257.4485      18.396465      9160.7935      10112.159    
    289500   296.1411      -3240.3793     -3257.4901      17.110821      8892.2302      10112.159    
    289600   292.04588     -3241.1453     -3258.0195      16.874202      8867.3337      10112.159    
    289700   286.61575     -3240.6721     -3257.2325      16.560453      8909.0273      10112.159    
    289800   310.46503     -3239.5185     -3257.4569      17.938447      9308.214       10112.159    
    289900   292.83266     -3239.4844     -3256.404       16.919662      9339.2292      10112.159    
    290000   318.95579     -3239.3824     -3257.8114      18.429037      8996.9057      10112.159    
    290100   285.41119     -3240.2899     -3256.7808      16.490854      9059.6824      10112.159    
    290200   310.99763     -3240.259      -3258.2282      17.969221      8793.8403      10112.159    
    290300   289.59974     -3240.4946     -3257.2274      16.732866      8764.018       10112.159    
    290400   293.88292     -3239.9032     -3256.8836      16.980345      9367.2237      10112.159    
    290500   314.48414     -3239.0126     -3257.1833      18.170669      9362.0734      10112.159    
    290600   288.85632     -3239.4352     -3256.1251      16.689912      9215.2556      10112.159    
    290700   321.94091     -3239.7518     -3258.3533      18.601516      8881.967       10112.159    
    290800   281.20538     -3241.2555     -3257.5034      16.247846      8632.811       10112.159    
    290900   276.1543      -3241.1526     -3257.1086      15.955998      8958.7067      10112.159    
    291000   301.78224     -3239.8366     -3257.2733      17.436762      8584.9063      10112.159    
    291100   308.5056      -3239.2426     -3257.0678      17.825233      8695.4849      10112.159    
    291200   307.78209     -3239.4584     -3257.2418      17.783429      9221.1706      10112.159    
    291300   293.29966     -3240.1325     -3257.0791      16.946644      8763.8718      10112.159    
    291400   299.55953     -3240.4491     -3257.7574      17.308335      8814.3653      10112.159    
    291500   280.61969     -3241.2512     -3257.4652      16.214005      8889.1892      10112.159    
    291600   286.99608     -3241.6029     -3258.1853      16.582429      8569.5197      10112.159    
    291700   304.20865     -3240.3907     -3257.9676      17.576958      8715.1059      10112.159    
    291800   294.75721     -3239.536      -3256.5669      17.030861      9239.5133      10112.159    
    291900   304.2198      -3239.2084     -3256.786       17.577602      9506.26        10112.159    
    292000   308.0809      -3239.6363     -3257.437       17.800694      8733.0951      10112.159    
    292100   285.36182     -3241.1406     -3257.6286      16.488002      8903.6987      10112.159    
    292200   284.99409     -3241.3949     -3257.8617      16.466755      8447.4595      10112.159    
    292300   300.27705     -3240.0099     -3257.3597      17.349793      8994.4049      10112.159    
    292400   300.20964     -3239.1708     -3256.5167      17.345898      9347.0775      10112.159    
    292500   303.99025     -3239.3476     -3256.9119      17.564339      8744.3706      10112.159    
    292600   309.75553     -3239.7802     -3257.6777      17.897453      9154.809       10112.159    
    292700   305.44548     -3240.5273     -3258.1757      17.648421      8707.3399      10112.159    
    292800   262.1948      -3241.8307     -3256.9801      15.149428      8805.3209      10112.159    
    292900   285.34412     -3241.3687     -3257.8556      16.486979      8783.0165      10112.159    
    293000   313.51363     -3239.4955     -3257.6101      18.114593      9064.2928      10112.159    
    293100   314.85883     -3239.084      -3257.2764      18.192318      9249.9665      10112.159    
    293200   294.52918     -3239.4353     -3256.4529      17.017685      9295.2344      10112.159    
    293300   299.30357     -3240.0463     -3257.3398      17.293546      9095.7619      10112.159    
    293400   280.43227     -3241.5205     -3257.7237      16.203176      8864.4956      10112.159    
    293500   302.29293     -3241.0706     -3258.5368      17.466269      8690.2826      10112.159    
    293600   306.39097     -3240.4473     -3258.1504      17.703051      8690.8603      10112.159    
    293700   288.11345     -3240.1758     -3256.8228      16.646989      8838.653       10112.159    
    293800   305.45733     -3239.6738     -3257.3229      17.649106      9045.2806      10112.159    
    293900   292.40632     -3239.8095     -3256.7045      16.895028      9077.72        10112.159    
    294000   305.58028     -3239.1887     -3256.8449      17.65621       9453.1729      10112.159    
    294100   303.07985     -3238.5338     -3256.0455      17.511737      9457.49        10112.159    
    294200   318.87039     -3238.4427     -3256.8668      18.424103      9221.2789      10112.159    
    294300   291.32002     -3240.2423     -3257.0745      16.832262      9210.5606      10112.159    
    294400   297.60366     -3240.3065     -3257.5018      17.195327      8953.6934      10112.159    
    294500   312.48473     -3240.019      -3258.0742      18.055144      8477.9266      10112.159    
    294600   296.09827     -3240.3673     -3257.4757      17.108346      8975.5668      10112.159    
    294700   291.34161     -3239.9849     -3256.8184      16.83351       9239.0385      10112.159    
    294800   307.01213     -3238.804      -3256.5429      17.738941      8946.6203      10112.159    
    294900   309.66652     -3238.3207     -3256.213       17.89231       9541.7398      10112.159    
    295000   289.43579     -3239.6048     -3256.3282      16.723393      9173.901       10112.159    
    295100   302.50921     -3240.4098     -3257.8886      17.478766      8967.8692      10112.159    
    295200   295.617       -3240.5584     -3257.639       17.080539      8903.8651      10112.159    
    295300   305.92072     -3239.8001     -3257.476       17.67588       8806.068       10112.159    
    295400   308.03302     -3238.7485     -3256.5465      17.797928      9390.9513      10112.159    
    295500   305.03906     -3238.1794     -3255.8044      17.624939      9572.5145      10112.159    
    295600   305.66847     -3237.7792     -3255.4405      17.661306      9684.044       10112.159    
    295700   320.56593     -3239.1035     -3257.6256      18.52207       9255.6889      10112.159    
    295800   302.19524     -3240.437      -3257.8976      17.460625      8738.5433      10112.159    
    295900   284.40957     -3240.4969     -3256.9299      16.432981      8779.6537      10112.159    
    296000   303.89356     -3239.5481     -3257.1068      17.558753      9339.2088      10112.159    
    296100   303.02245     -3239.1829     -3256.6913      17.508421      9497.456       10112.159    
    296200   300.72472     -3238.9909     -3256.3665      17.375659      9045.0949      10112.159    
    296300   296.68564     -3239.6228     -3256.7651      17.142284      8707.5084      10112.159    
    296400   304.76579     -3240.4805     -3258.0896      17.60915       8713.6574      10112.159    
    296500   282.08395     -3241.0988     -3257.3974      16.298609      8695.5425      10112.159    
    296600   290.59472     -3240.4195     -3257.2098      16.790355      8689.3573      10112.159    
    296700   302.20937     -3238.6851     -3256.1465      17.461441      9473.7794      10112.159    
    296800   310.5468      -3238.444      -3256.3871      17.943172      9186.1005      10112.159    
    296900   325.79761     -3238.9647     -3257.7891      18.824353      8944.2688      10112.159    
    297000   285.50446     -3240.4112     -3256.9074      16.496243      8962.5202      10112.159    
    297100   293.36673     -3240.179      -3257.1295      16.95052       8996.7026      10112.159    
    297200   304.15445     -3239.7949     -3257.3687      17.573827      8915.7499      10112.159    
    297300   306.07631     -3239.7069     -3257.3918      17.68487       8709.6989      10112.159    
    297400   306.42658     -3239.28       -3256.9851      17.705109      8901.3565      10112.159    
    297500   295.23946     -3238.8141     -3255.8728      17.058725      9014.8436      10112.159    
    297600   324.26736     -3238.4592     -3257.1952      18.735936      8959.5567      10112.159    
    297700   290.36415     -3239.9971     -3256.7742      16.777033      9238.995       10112.159    
    297800   306.54795     -3240.6311     -3258.3432      17.712122      8675.5836      10112.159    
    297900   291.02394     -3240.8026     -3257.6177      16.815155      8794.814       10112.159    
    298000   298.77842     -3239.7336     -3256.9968      17.263204      9100.517       10112.159    
    298100   294.96362     -3238.6798     -3255.7226      17.042787      9418.1594      10112.159    
    298200   313.27455     -3238.9437     -3257.0445      18.10078       8901.6844      10112.159    
    298300   307.13378     -3239.9428     -3257.6887      17.74597       8641.3727      10112.159    
    298400   303.96248     -3240.4533     -3258.016       17.562735      8590.3649      10112.159    
    298500   297.4957      -3240.3364     -3257.5255      17.189089      9070.6161      10112.159    
    298600   281.95854     -3239.5884     -3255.8797      16.291363      9331.3988      10112.159    
    298700   307.231       -3238.1163     -3255.8678      17.751587      9114.0441      10112.159    
    298800   337.67265     -3238.3091     -3257.8196      19.510484      9000.306       10112.159    
    298900   298.63022     -3239.7375     -3256.9921      17.254641      8723.3813      10112.159    
    299000   302.29553     -3239.9986     -3257.465       17.46642       9177.9956      10112.159    
    299100   295.18802     -3240.4916     -3257.5474      17.055753      8609.2029      10112.159    
    299200   288.01273     -3240.7934     -3257.4345      16.64117       8631.4891      10112.159    
    299300   311.09503     -3239.339      -3257.3138      17.974848      8838.9503      10112.159    
    299400   313.66956     -3238.7845     -3256.9081      18.123603      9042.909       10112.159    
    299500   307.82064     -3239.5239     -3257.3096      17.785656      8891.4822      10112.159    
    299600   272.44815     -3240.7689     -3256.5108      15.741859      9104.5863      10112.159    
    299700   296.15868     -3240.7014     -3257.8132      17.111837      8816.0533      10112.159    
    299800   296.87848     -3240.2117     -3257.3651      17.153427      8606.8267      10112.159    
    299900   307.0599      -3239.6254     -3257.3671      17.741701      9080.0652      10112.159    
    300000   299.64021     -3239.6267     -3256.9397      17.312997      9093.5646      10112.159    
Loop time of 2254.26 on 20 procs for 300000 steps with 448 atoms

Performance: 11.498 ns/day, 2.087 hours/ns, 133.082 timesteps/s, 59.621 katom-step/s
99.9% CPU use with 20 MPI tasks x 1 OpenMP threads

MPI task timing breakdown:
Section |  min time  |  avg time  |  max time  |%varavg| %total
---------------------------------------------------------------
Pair    | 1759.4     | 1995.3     | 2154.8     | 391.9 | 88.51
Neigh   | 20.519     | 28.223     | 34.86      | 116.7 |  1.25
Comm    | 63.428     | 227.58     | 470.78     |1201.0 | 10.10
Output  | 0.3577     | 0.59089    | 0.656      |   7.9 |  0.03
Modify  | 2.105      | 2.3092     | 2.5436     |   7.9 |  0.10
Other   |            | 0.2791     |            |       |  0.01

Nlocal:           22.4 ave          24 max          18 min
Histogram: 3 0 0 1 0 1 3 0 1 11
Nghost:          497.3 ave         523 max         464 min
Histogram: 4 0 0 0 8 0 0 0 1 7
Neighs:              0 ave           0 max           0 min
Histogram: 20 0 0 0 0 0 0 0 0 0
FullNghs:       1282.4 ave        1390 max        1027 min
Histogram: 3 0 0 1 0 1 3 1 0 11

Total # of neighbors = 25648
Ave neighs/atom = 57.25
Neighbor list builds = 300000
Dangerous builds not checked
Total wall time: 0:37:34
