LAMMPS (27 Jun 2024)
OMP_NUM_THREADS environment is not set. Defaulting to 1 thread. (src/comm.cpp:98)
  using 1 OpenMP thread(s) per MPI task
Reading data file ...
  orthogonal box = (0 0 0) to (67.266653 66.57672 40.643788)
  5 by 2 by 2 MPI processor grid
  reading atoms ...
  8064 atoms
  read_data CPU = 0.045 seconds
**************** Begin of POD Potentials ****************
species: Hf 
periodic boundary conditions: 1 1 1
number of environment clusters: 8
number of principal compoments: 2
inner cut-off radius: 1
outer cut-off radius: 5
cut-off function type: 1
gaussian_exponents: 
polynomial_degrees: 
bessel polynomial degree: 4
inverse polynomial degree: 10
one-body potential: 1
two-body radial basis functions: 8
three-body radial basis functions: 8
three-body angular degree: 6
four-body radial basis functions: 7
four-body angular degree: 5
five-body radial basis functions: 0
five-body angular degree: 0
six-body radial basis functions: 0
six-body angular degree: 0
seven-body radial basis functions: 0
seven-body angular degree: 0
number of local descriptors per element for one-body potential: 1
number of local descriptors per element for two-body potential: 8
number of local descriptors per element for three-body potential: 56
number of local descriptors per element for four-body potential: 112
number of local descriptors per element for five-body potential: 0
number of local descriptors per element for six-body potential: 0
number of local descriptors per element for seven-body potential: 0
number of local descriptors per element for all potentials: 177
number of global descriptors: 1409
**************** End of POD Potentials ****************

**************** Begin of Model Coefficients ****************
total number of coefficients for POD potential: 1409
total number of elements for PCA projection matrix: 352
total number of elements for PCA centroids: 16
**************** End of Model Coefficients ****************


CITE-CITE-CITE-CITE-CITE-CITE-CITE-CITE-CITE-CITE-CITE-CITE-CITE

Your simulation uses code contributions which should be cited:
- Type Label Framework: https://doi.org/10.1021/acs.jpcb.3c08419
The log file lists these citations in BibTeX format.

CITE-CITE-CITE-CITE-CITE-CITE-CITE-CITE-CITE-CITE-CITE-CITE-CITE

Neighbor list info ...
  update: every = 1 steps, delay = 0 steps, check = no
  max neighbors/atom: 2000, page size: 100000
  master list distance cutoff = 7
  ghost atom cutoff = 7
  binsize = 3.5, bins = 20 20 12
  1 neighbor lists, perpetual/occasional/extra = 1 0 0
  (1) pair pod, perpetual
      attributes: full, newton on
      pair build: full/bin/atomonly
      stencil: full/bin/3d
      bin: standard
Setting up Verlet run ...
  Unit style    : metal
  Current step  : 0
  Time step     : 0.001
Per MPI rank memory allocation (min/avg/max) = 2.638 | 2.639 | 2.64 Mbytes
   Step          Temp          TotEng         PotEng         KinEng         Press          Volume    
         0   300           -58749.802     -59062.469      312.66736      1834.7862      182018.86    
       100   91.199829     -58739.447     -58834.498      95.050701      3728.6191      182018.86    
       200   147.84713     -58705.796     -58859.886      154.08991      4232.7613      182018.86    
       300   182.22181     -58665.932     -58855.848      189.91605      4250.5377      182018.86    
       400   234.02063     -58624.767     -58868.669      243.90205      3968.7053      182018.86    
       500   253.54686     -58579.319     -58843.571      264.25276      4718.9573      182018.86    
       600   237.44216     -58534.275     -58781.743      247.46805      5834.8395      182018.86    
       700   254.49114     -58490.809     -58756.046      265.23691      6585.327       182018.86    
       800   288.4683      -58452.721     -58753.37       300.64875      6624.3318      182018.86    
       900   314.5809      -58421.188     -58749.052      327.86394      6758.0738      182018.86    
      1000   325.04875     -58409.222     -58747.995      338.77379      6915.0027      182018.86    
      1100   303.86988     -58421.269     -58737.97       316.70064      6951.9338      182018.86    
      1200   287.90434     -58440.084     -58740.145      300.06097      6974.9109      182018.86    
      1300   283.73927     -58451.864     -58747.584      295.72004      6697.8369      182018.86    
      1400   298.46878     -58446.478     -58757.549      311.07148      6690.7251      182018.86    
      1500   306.6364      -58434.183     -58753.767      319.58398      6682.7177      182018.86    
      1600   310.37842     -58422.542     -58746.026      323.48401      6927.0682      182018.86    
      1700   301.07448     -58422.069     -58735.856      313.78722      7043.5347      182018.86    
      1800   291.97363     -58431.648     -58735.95       304.30208      7020.4045      182018.86    
      1900   298.02311     -58442.076     -58752.683      310.607        6706.9621      182018.86    
      2000   297.99841     -58447.314     -58757.895      310.58125      6588.7566      182018.86    
      2100   302.92597     -58439.016     -58754.733      315.71689      6672.8383      182018.86    
      2200   303.11125     -58428.838     -58744.748      315.90999      6885.9317      182018.86    
      2300   293.81399     -58424.941     -58731.161      306.22016      7115.0309      182018.86    
      2400   307.33976     -58427.081     -58747.398      320.31705      6921.0683      182018.86    
      2500   297.90207     -58438.551     -58749.032      310.48085      6690.798       182018.86    
      2600   309.30406     -58439.765     -58762.129      322.36429      6581.0218      182018.86    
      2700   289.37688     -58442.82      -58744.415      301.59568      6828.0468      182018.86    
      2800   297.90199     -58435.162     -58745.642      310.48077      6894.529       182018.86    
      2900   301.50529     -58429.71      -58743.946      314.23622      6941.2201      182018.86    
      3000   302.16051     -58426.993     -58741.913      314.9191       6870.9717      182018.86    
      3100   310.09127     -58425.661     -58748.846      323.18474      6901.7352      182018.86    
      3200   296.12724     -58436.599     -58745.23       308.63108      6780.437       182018.86    
      3300   297.0496      -58443.207     -58752.8        309.59239      6753.5222      182018.86    
      3400   292.68787     -58444.799     -58749.845      305.04648      6709.7695      182018.86    
      3500   301.67719     -58436.26      -58750.675      314.41537      6811.405       182018.86    
      3600   309.16625     -58426.653     -58748.873      322.22065      6813.9753      182018.86    
      3700   298.50678     -58425.994     -58737.105      311.1111       6956.6092      182018.86    
      3800   302.05922     -58428.715     -58743.529      314.81353      6972.3678      182018.86    
      3900   296.42804     -58439.751     -58748.696      308.94458      6776.9511      182018.86    
      4000   300.29873     -58443.026     -58756.005      312.9787       6673.3812      182018.86    
      4100   299.09595     -58439.383     -58751.108      311.72514      6730.979       182018.86    
      4200   298.23133     -58432.504     -58743.328      310.82401      6870.0717      182018.86    
      4300   304.16286     -58427.128     -58744.134      317.006        6912.7956      182018.86    
      4400   298.6834      -58430.006     -58741.301      311.29517      6886.7821      182018.86    
      4500   304.67995     -58432.919     -58750.463      317.54492      6788.7216      182018.86    
      4600   295.57199     -58439.629     -58747.681      308.05238      6717.3795      182018.86    
      4700   300.92147     -58439.938     -58753.566      313.62774      6759.0175      182018.86    
      4800   298.5156      -58437.233     -58748.353      311.12029      6792.2685      182018.86    
      4900   297.84249     -58432.466     -58742.885      310.41875      6909.8932      182018.86    
      5000   304.96685     -58428.304     -58746.148      317.84394      6879.3309      182018.86    
      5100   299.95332     -58429.667     -58742.286      312.61871      6965.6647      182018.86    
      5200   301.09282     -58434.726     -58748.532      313.80633      6826.3259      182018.86    
      5300   298.35812     -58439.98      -58750.936      310.95616      6722.9016      182018.86    
      5400   292.01294     -58439.698     -58744.041      304.34306      6805.118       182018.86    
      5500   306.75985     -58432.009     -58751.721      319.71264      6822.6527      182018.86    
      5600   297.6271      -58431.12      -58741.314      310.19428      6916.2492      182018.86    
      5700   304.26285     -58430.396     -58747.506      317.11022      6879.3935      182018.86    
      5800   301.89996     -58434.475     -58749.122      314.64755      6813.8768      182018.86    
      5900   297.75609     -58438.25      -58748.579      310.32871      6792.1932      182018.86    
      6000   296.34978     -58438.583     -58747.446      308.86301      6846.8077      182018.86    
      6100   301.50425     -58435.447     -58749.682      314.23513      6778.0823      182018.86    
      6200   303.04042     -58431.354     -58747.19       315.83616      6883.8453      182018.86    
      6300   301.15159     -58428.656     -58742.524      313.86758      6892.2816      182018.86    
      6400   297.72312     -58431.512     -58741.807      310.29434      6950.0029      182018.86    
      6500   300.26139     -58435.678     -58748.618      312.93979      6803.4301      182018.86    
      6600   296.58921     -58439.623     -58748.735      309.11256      6804.1256      182018.86    
      6700   300.95514     -58439.396     -58753.059      313.66284      6761.1036      182018.86    
      6800   298.16719     -58435.538     -58746.295      310.75716      6803.5243      182018.86    
      6900   300.68017     -58429.756     -58743.132      313.37625      6985.9785      182018.86    
      7000   301.30038     -58429.014     -58743.037      314.02265      6927.4875      182018.86    
      7100   302.14145     -58431.884     -58746.784      314.89924      6904.5027      182018.86    
      7200   297.58233     -58437.957     -58748.104      310.14761      6808.3401      182018.86    
      7300   294.93648     -58441.108     -58748.498      307.39004      6768.9958      182018.86    
      7400   300.05486     -58437.595     -58750.319      312.72454      6764.1613      182018.86    
      7500   305.02869     -58431.411     -58749.319      317.90838      6892.118       182018.86    
      7600   300.6915      -58429.764     -58743.152      313.38806      6955.5584      182018.86    
      7700   296.23919     -58433.032     -58741.78       308.74776      6927.377       182018.86    
      7800   301.68971     -58435.225     -58749.654      314.42842      6824.2765      182018.86    
      7900   299.90688     -58437.257     -58749.827      312.57031      6780.2062      182018.86    
      8000   299.64618     -58436.037     -58748.336      312.2986       6809.6671      182018.86    
      8100   300.43673     -58433.563     -58746.685      313.12254      6915.3416      182018.86    
      8200   302.28036     -58433.7       -58748.744      315.04401      6855.1991      182018.86    
      8300   297.63077     -58435.002     -58745.2        310.1981       6856.5619      182018.86    
      8400   300.01763     -58434.479     -58747.165      312.68574      6814.5128      182018.86    
      8500   299.02762     -58434.687     -58746.341      311.65393      6900.5764      182018.86    
      8600   303.27906     -58433.101     -58749.186      316.08489      6810.8079      182018.86    
      8700   298.01053     -58434.914     -58745.508      310.59389      6862.093       182018.86    
      8800   300.0493      -58434.46      -58747.179      312.71875      6889.3104      182018.86    
      8900   303.69461     -58433.162     -58749.68       316.51797      6809.9537      182018.86    
      9000   298.24072     -58434.513     -58745.347      310.8338       6933.1511      182018.86    
      9100   296.26768     -58435.366     -58744.144      308.77744      6954.437       182018.86    
      9200   303.68454     -58434.13      -58750.637      316.50749      6801.6797      182018.86    
      9300   301.95656     -58434.611     -58749.318      314.70654      6805.3481      182018.86    
      9400   298.36012     -58434.546     -58745.504      310.95825      6910.7769      182018.86    
      9500   297.79212     -58434.799     -58745.165      310.36626      6897.8681      182018.86    
      9600   302.95189     -58434.188     -58749.932      315.7439       6790.135       182018.86    
      9700   301.86935     -58433.801     -58748.417      314.61565      6836.2239      182018.86    
      9800   294.44438     -58436.89      -58743.767      306.87716      6867.9002      182018.86    
      9900   304.28351     -58435.372     -58752.504      317.13174      6799.0817      182018.86    
     10000   295.68241     -58435.034     -58743.202      308.16747      6868.544       182018.86    
     10100   298.30549     -58431.708     -58742.609      310.9013       6931.3997      182018.86    
     10200   308.52343     -58427.957     -58749.508      321.55069      6859.4701      182018.86    
     10300   300.02293     -58433.219     -58745.91       312.69127      6867.9959      182018.86    
     10400   299.17111     -58437.652     -58749.456      311.80348      6742.1085      182018.86    
     10500   294.48539     -58440.35      -58747.27       306.9199       6831.5966      182018.86    
     10600   301.52463     -58435.387     -58749.643      314.25637      6808.601       182018.86    
     10700   300.24706     -58432.308     -58745.233      312.92485      6853.3851      182018.86    
     10800   304.30167     -58431.86      -58749.011      317.15068      6831.3417      182018.86    
     10900   297.71824     -58434.653     -58744.942      310.28926      6868.042       182018.86    
     11000   300.82311     -58434.827     -58748.353      313.52523      6823.2624      182018.86    
     11100   297.60293     -58436.773     -58746.942      310.16908      6815.9125      182018.86    
     11200   296.95003     -58438.745     -58748.234      309.48861      6766.615       182018.86    
     11300   303.85691     -58437.746     -58754.433      316.68713      6697.413       182018.86    
     11400   298.4768      -58436.025     -58747.105      311.07985      6778.9096      182018.86    
     11500   301.47989     -58430.615     -58744.825      314.20975      6862.1092      182018.86    
     11600   297.47441     -58428.517     -58738.552      310.03513      6988.3344      182018.86    
     11700   304.68479     -58429.984     -58747.534      317.54997      6799.6252      182018.86    
     11800   303.11941     -58437.203     -58753.121      315.91849      6727.6209      182018.86    
     11900   295.05237     -58437.703     -58745.214      307.51083      6805.3059      182018.86    
     12000   300.48351     -58433.745     -58746.916      313.17129      6888.6399      182018.86    
     12100   300.49888     -58433.898     -58747.085      313.18731      6862.2478      182018.86    
     12200   300.28845     -58435.69      -58748.658      312.96799      6793.4946      182018.86    
     12300   301.70574     -58435.716     -58750.161      314.44512      6795.7917      182018.86    
     12400   297.48134     -58436.82      -58746.862      310.04235      6841.0931      182018.86    
     12500   298.49508     -58434.682     -58745.781      311.0989       6847.5779      182018.86    
     12600   304.18495     -58429.839     -58746.868      317.02902      6818.0103      182018.86    
     12700   300.24915     -58429.871     -58742.798      312.92704      6867.1525      182018.86    
     12800   301.25275     -58435.039     -58749.012      313.97301      6780.9133      182018.86    
     12900   297.13693     -58440.983     -58750.667      309.6834       6754.818       182018.86    
     13000   299.13209     -58438.258     -58750.02       311.76281      6849.3102      182018.86    
     13100   297.83416     -58435.105     -58745.515      310.41007      6832.5721      182018.86    
     13200   302.75991     -58431.963     -58747.507      315.54381      6878.8462      182018.86    
     13300   296.87695     -58431.79      -58741.203      309.41245      6913.6581      182018.86    
     13400   304.78065     -58429.417     -58747.067      317.64987      6860.4599      182018.86    
     13500   303.64814     -58431.215     -58747.684      316.46954      6795.5961      182018.86    
     13600   299.30288     -58436.577     -58748.518      311.94081      6786.2755      182018.86    
     13700   297.14973     -58439.514     -58749.21       309.69674      6746.82        182018.86    
     13800   296.95514     -58438.191     -58747.685      309.49393      6832.1873      182018.86    
     13900   304.30703     -58430.554     -58747.71       317.15626      6842.2347      182018.86    
     14000   298.24875     -58431.126     -58741.968      310.84217      6878.7787      182018.86    
     14100   302.59087     -58431.009     -58746.377      315.36763      6917.0135      182018.86    
     14200   293.76938     -58437.254     -58743.427      306.17366      6801.5681      182018.86    
     14300   302.01156     -58437.793     -58752.557      314.76386      6780.5993      182018.86    
     14400   299.57012     -58436.827     -58749.046      312.21933      6829.0967      182018.86    
     14500   295.96454     -58435.057     -58743.519      308.46151      6894.9351      182018.86    
     14600   304.46175     -58429.326     -58746.643      317.31751      6853.5911      182018.86    
     14700   304.53133     -58422.492     -58739.882      317.39002      7003.0889      182018.86    
     14800   309.54901     -58420.532     -58743.151      322.61957      6955.9251      182018.86    
     14900   300.8353      -58427.223     -58740.761      313.53794      6998.5576      182018.86    
     15000   301.67531     -58432.028     -58746.442      314.41341      6934.6025      182018.86    
     15100   296.1895      -58437.809     -58746.505      308.69597      6824.8066      182018.86    
     15200   302.60999     -58436.968     -58752.355      315.38756      6745.2744      182018.86    
     15300   296.04044     -58435.09      -58743.63       308.54062      6839.826       182018.86    
     15400   305.58097     -58430.001     -58748.485      318.48399      6842.0613      182018.86    
     15500   299.12405     -58431.378     -58743.132      311.75443      6874.2893      182018.86    
     15600   299.19478     -58433.828     -58745.656      311.82814      6905.2437      182018.86    
     15700   296.81057     -58441.9       -58751.244      309.34326      6756.5281      182018.86    
     15800   298.03317     -58440.493     -58751.11       310.61748      6795.6051      182018.86    
     15900   296.16513     -58437.001     -58745.672      308.67057      6872.3433      182018.86    
     16000   304.09303     -58432.401     -58749.335      316.93322      6830.5128      182018.86    
     16100   298.2426      -58432.66      -58743.496      310.83576      6906.5323      182018.86    
     16200   300.41921     -58433.102     -58746.206      313.10427      6854.3075      182018.86    
     16300   300.76883     -58435.722     -58749.19       313.46866      6798.6931      182018.86    
     16400   297.33036     -58440.434     -58750.319      309.885        6776.1019      182018.86    
     16500   293.01785     -58447.02      -58752.41       305.3904       6715.3606      182018.86    
     16600   293.4617      -58444.496     -58750.349      305.85299      6728.3373      182018.86    
     16700   300.43567     -58437.146     -58750.268      313.12143      6777.0505      182018.86    
     16800   297.99571     -58434.159     -58744.738      310.57844      6886.9839      182018.86    
     16900   303.28496     -58430.755     -58746.846      316.09103      6881.6435      182018.86    
     17000   300.12802     -58433.284     -58746.085      312.80079      6864.0181      182018.86    
     17100   296.89467     -58437.542     -58746.973      309.43092      6865.8151      182018.86    
     17200   296.35921     -58440.767     -58749.64       308.87284      6802.7653      182018.86    
     17300   295.42833     -58445.498     -58753.401      307.90266      6652.5054      182018.86    
     17400   294.10975     -58443.149     -58749.678      306.52841      6760.1095      182018.86    
     17500   301.63692     -58436.382     -58750.756      314.3734       6721.3619      182018.86    
     17600   299.00194     -58433.624     -58745.251      311.62717      6868.3009      182018.86    
     17700   301.63408     -58430.841     -58745.211      314.37044      6916.8597      182018.86    
     17800   298.25662     -58433.539     -58744.39       310.85037      6885.8589      182018.86    
     17900   300.73812     -58438.749     -58752.186      313.43665      6707.1994      182018.86    
     18000   293.56383     -58442.891     -58748.851      305.95943      6778.8716      182018.86    
     18100   299.91052     -58439.645     -58752.219      312.57411      6729.8692      182018.86    
     18200   298.95052     -58436.719     -58748.293      311.57358      6812.8641      182018.86    
     18300   300.16902     -58432.915     -58745.759      312.84353      6834.6328      182018.86    
     18400   302.6015      -58431.22      -58746.599      315.37871      6872.6875      182018.86    
     18500   300.74325     -58433.526     -58746.968      313.442        6810.1758      182018.86    
     18600   297.89538     -58440.839     -58751.313      310.47387      6724.69        182018.86    
     18700   295.07055     -58443.648     -58751.177      307.52977      6756.3215      182018.86    
     18800   296.1716      -58439.871     -58748.548      308.67731      6772.4849      182018.86    
     18900   299.01374     -58434.74      -58746.379      311.63946      6826.0946      182018.86    
     19000   300.07141     -58432.818     -58745.56       312.74179      6835.0186      182018.86    
     19100   303.11068     -58432.413     -58748.322      315.9094       6824.4594      182018.86    
     19200   298.35489     -58436.973     -58747.925      310.95279      6864.0313      182018.86    
     19300   297.24096     -58440.766     -58750.557      309.79182      6760.7592      182018.86    
     19400   300.61847     -58438.546     -58751.858      313.31195      6724.9556      182018.86    
     19500   298.38297     -58431.968     -58742.95       310.98205      6924.3112      182018.86    
     19600   302.06166     -58428.494     -58743.31       314.81608      6914.0216      182018.86    
     19700   299.56058     -58431.332     -58743.542      312.2094       6882.4597      182018.86    
     19800   302.77275     -58434.119     -58749.676      315.55719      6758.677       182018.86    
     19900   298.94133     -58434.505     -58746.069      311.56399      6898.106       182018.86    
     20000   300.62936     -58433.561     -58746.885      313.3233       6835.4997      182018.86    
     20100   301.31134     -58434.526     -58748.56       314.03408      6871.4994      182018.86    
     20200   296.20955     -58439.694     -58748.411      308.71686      6750.9694      182018.86    
     20300   296.84351     -58441.982     -58751.36       309.3776       6719.9872      182018.86    
     20400   298.4034      -58436.432     -58747.436      311.00334      6836.8423      182018.86    
     20500   300.01908     -58433.353     -58746.041      312.68725      6832.795       182018.86    
     20600   300.06976     -58434.401     -58747.141      312.74007      6856.9982      182018.86    
     20700   301.17305     -58434.878     -58748.768      313.88995      6820.6053      182018.86    
     20800   303.33751     -58432.865     -58749.011      316.1458       6821.9262      182018.86    
     20900   296.90381     -58432.996     -58742.436      309.44044      6903.8423      182018.86    
     21000   301.26413     -58432.364     -58746.349      313.98488      6873.9795      182018.86    
     21100   299.8042      -58435.237     -58747.7        312.4633       6811.794       182018.86    
     21200   297.56414     -58438.434     -58748.563      310.12865      6791.6232      182018.86    
     21300   302.67316     -58435.513     -58750.966      315.45339      6740.1868      182018.86    
     21400   299.93702     -58430.577     -58743.179      312.60173      6937.2443      182018.86    
     21500   302.11006     -58424.663     -58739.529      314.86652      7015.6182      182018.86    
     21600   304.9321      -58427.789     -58745.597      317.80772      6819.2204      182018.86    
     21700   301.53771     -58431.612     -58745.882      314.27         6877.8657      182018.86    
     21800   302.10253     -58434.845     -58749.703      314.85868      6798.8597      182018.86    
     21900   294.34536     -58439.059     -58745.833      306.77396      6819.8421      182018.86    
     22000   299.86916     -58435.914     -58748.445      312.531        6823.9694      182018.86    
     22100   299.8096      -58433.011     -58745.48       312.46892      6847.0115      182018.86    
     22200   299.46591     -58432.937     -58745.048      312.11072      6900.6188      182018.86    
     22300   303.7911      -58432.876     -58749.495      316.61854      6841.5207      182018.86    
     22400   295.88921     -58435.783     -58744.166      308.383        6918.3946      182018.86    
     22500   299.54922     -58436.19      -58748.388      312.19756      6810.2085      182018.86    
     22600   301.46412     -58438.126     -58752.32       314.1933       6723.1034      182018.86    
     22700   298.59428     -58440.029     -58751.231      311.20229      6745.7095      182018.86    
     22800   295.70673     -58437.283     -58745.476      308.19281      6861.833       182018.86    
     22900   302.18244     -58431.676     -58746.617      314.94196      6912.0079      182018.86    
     23000   302.2468      -58430.599     -58745.608      315.00903      6882.6287      182018.86    
     23100   298.55464     -58434.375     -58745.536      311.16097      6850.9478      182018.86    
     23200   300.1219      -58439.006     -58751.8        312.79441      6773.6812      182018.86    
     23300   297.14077     -58439.268     -58748.955      309.68741      6800.2205      182018.86    
     23400   294.68257     -58437.756     -58744.881      307.12541      6889.2322      182018.86    
     23500   300.72471     -58433.975     -58747.397      313.42267      6822.8245      182018.86    
     23600   303.88508     -58432.368     -58749.084      316.71649      6836.5683      182018.86    
     23700   299.63159     -58433.691     -58745.974      312.2834       6905.2712      182018.86    
     23800   297.74112     -58436.876     -58747.189      310.31311      6852.5187      182018.86    
     23900   299.285       -58439.719     -58751.641      311.92217      6772.3859      182018.86    
     24000   298.55892     -58438.291     -58749.457      311.16544      6758.3027      182018.86    
     24100   299.68806     -58432.565     -58744.907      312.34225      6888.7062      182018.86    
     24200   303.75194     -58428.277     -58744.854      316.57772      6932.3782      182018.86    
     24300   299.84901     -58430.688     -58743.198      312.51         6923.874       182018.86    
     24400   302.65569     -58432.32      -58747.756      315.43519      6816.2013      182018.86    
     24500   300.31385     -58435.487     -58748.481      312.99447      6875.6797      182018.86    
     24600   296.26713     -58437.18      -58745.957      308.77687      6799.0015      182018.86    
     24700   300.95524     -58434.492     -58748.155      313.66294      6887.6266      182018.86    
     24800   299.31577     -58434.98      -58746.934      311.95424      6877.5713      182018.86    
     24900   299.5592      -58435.293     -58747.501      312.20795      6852.5906      182018.86    
     25000   302.40271     -58432.754     -58747.926      315.17152      6863.1871      182018.86    
     25100   302.48626     -58425.015     -58740.274      315.25861      7033.1257      182018.86    
     25200   302.89942     -58424.625     -58740.314      315.68921      7000.824       182018.86    
     25300   304.62347     -58428.842     -58746.328      317.48606      6897.1661      182018.86    
     25400   299.62858     -58432.598     -58744.878      312.28026      6836.4639      182018.86    
     25500   301.67824     -58435.606     -58750.023      314.41646      6838.8281      182018.86    
     25600   293.97657     -58438.837     -58745.227      306.3896       6774.5846      182018.86    
     25700   302.56192     -58436.116     -58751.453      315.33747      6765.9286      182018.86    
     25800   298.11144     -58436.093     -58746.792      310.69906      6796.633       182018.86    
     25900   298.97397     -58434.448     -58746.046      311.59801      6855.4566      182018.86    
     26000   297.73103     -58433.771     -58744.074      310.30259      6890.982       182018.86    
     26100   304.37345     -58432.104     -58749.33       317.22548      6837.6694      182018.86    
     26200   296.22442     -58436.694     -58745.426      308.73236      6810.1785      182018.86    
     26300   298.7295      -58441.895     -58753.238      311.34322      6696.607       182018.86    
     26400   296.29286     -58442.059     -58750.862      308.80369      6739.112       182018.86    
     26500   297.17987     -58435.116     -58744.845      309.72816      6858.6229      182018.86    
     26600   304.06768     -58432.243     -58749.15       316.9068       6855.358       182018.86    
     26700   298.8752      -58434.743     -58746.238      311.49507      6894.0937      182018.86    
     26800   297.2939      -58437.328     -58747.175      309.847        6809.9544      182018.86    
     26900   296.7334      -58439.494     -58748.757      309.26284      6857.0407      182018.86    
     27000   298.94278     -58437.689     -58749.254      311.56551      6771.0714      182018.86    
     27100   301.36608     -58431.197     -58745.288      314.09113      6900.7521      182018.86    
     27200   303.97784     -58428.956     -58745.77       316.81317      6893.3043      182018.86    
     27300   301.71933     -58432.606     -58747.065      314.45929      6813.9099      182018.86    
     27400   298.84203     -58438.167     -58749.628      311.4605       6842.5752      182018.86    
     27500   301.35107     -58437.217     -58751.293      314.07549      6734.6702      182018.86    
     27600   299.05461     -58434.864     -58746.546      311.68206      6892.522       182018.86    
     27700   299.71504     -58432.33      -58744.7        312.37037      6868.3034      182018.86    
     27800   300.59215     -58431.183     -58744.467      313.28452      6911.2622      182018.86    
     27900   303.44464     -58428.978     -58745.235      316.25746      6933.4503      182018.86    
     28000   306.11551     -58430.377     -58749.418      319.0411       6862.2154      182018.86    
     28100   296.41638     -58436.255     -58745.187      308.93243      6868.3012      182018.86    
     28200   298.25021     -58438.974     -58749.817      310.84369      6739.1044      182018.86    
     28300   298.14283     -58438.566     -58749.298      310.73177      6753.4449      182018.86    
     28400   302.02929     -58433.668     -58748.45       314.78234      6826.6601      182018.86    
     28500   299.35524     -58433.652     -58745.648      311.99538      6882.1716      182018.86    
     28600   299.0507      -58433.413     -58745.091      311.67798      6873.809       182018.86    
     28700   298.73181     -58433.738     -58745.084      311.34562      6837.4514      182018.86    
     28800   299.11851     -58436.139     -58747.888      311.74866      6835.5314      182018.86    
     28900   295.00535     -58440.789     -58748.25       307.46182      6792.1766      182018.86    
     29000   297.89718     -58441.624     -58752.1        310.47575      6766.9471      182018.86    
     29100   300.62638     -58436.273     -58749.593      313.32019      6808.9171      182018.86    
     29200   301.20305     -58431.337     -58745.258      313.92121      6856.7975      182018.86    
     29300   299.73679     -58431.567     -58743.96       312.39304      6890.9919      182018.86    
     29400   299.29572     -58435.122     -58747.055      311.93334      6843.5185      182018.86    
     29500   298.44247     -58438.975     -58750.019      311.04406      6799.5883      182018.86    
     29600   298.03123     -58439.552     -58750.168      310.61547      6760.6415      182018.86    
     29700   298.20999     -58436.506     -58747.308      310.80177      6867.1272      182018.86    
     29800   302.09526     -58431.09      -58745.941      314.8511       6853.5717      182018.86    
     29900   301.08481     -58430.126     -58743.924      313.79798      6875.8335      182018.86    
     30000   302.34729     -58432.637     -58747.751      315.11376      6897.7384      182018.86    
     30100   297.82485     -58438.863     -58749.264      310.40038      6790.9539      182018.86    
     30200   296.10711     -58440.271     -58748.881      308.6101       6731.4878      182018.86    
     30300   300.90415     -58436.141     -58749.751      313.60969      6779.4842      182018.86    
     30400   297.73072     -58434.867     -58745.169      310.30226      6829.6731      182018.86    
     30500   304.07532     -58433.024     -58749.938      316.91476      6803.6464      182018.86    
     30600   297.01857     -58435.385     -58744.945      309.56005      6826.9775      182018.86    
     30700   300.06449     -58435.954     -58748.688      312.73458      6815.5844      182018.86    
     30800   300.85052     -58436.23      -58749.784      313.5538       6819.249       182018.86    
     30900   295.49493     -58436.847     -58744.819      307.97207      6804.1017      182018.86    
     31000   301.49877     -58433.1       -58747.33       314.22942      6838.3412      182018.86    
     31100   303.74712     -58430.546     -58747.119      316.57271      6820.0283      182018.86    
     31200   301.96068     -58428.352     -58743.063      314.71083      6928.7763      182018.86    
     31300   300.31228     -58429.208     -58742.2        312.99283      6942.5192      182018.86    
     31400   301.97473     -58435.705     -58750.43       314.72547      6800.5507      182018.86    
     31500   298.04045     -58439.464     -58750.089      310.62507      6775.5116      182018.86    
     31600   298.71521     -58437.889     -58749.218      311.32832      6775.7332      182018.86    
     31700   297.85473     -58432.868     -58743.3        310.43152      6861.3487      182018.86    
     31800   303.39746     -58428.308     -58744.516      316.20828      6928.9879      182018.86    
     31900   303.64227     -58430.97      -58747.433      316.46342      6820.2035      182018.86    
     32000   297.74651     -58434.95      -58745.269      310.31873      6875.1813      182018.86    
     32100   299.12421     -58435.971     -58747.726      311.7546       6841.0185      182018.86    
     32200   300.17031     -58436.867     -58749.712      312.84487      6765.0753      182018.86    
     32300   297.82161     -58436.803     -58747.2        310.39699      6819.5346      182018.86    
     32400   299.69911     -58433.407     -58745.76       312.35377      6880.0919      182018.86    
     32500   304.83727     -58429.284     -58746.992      317.70889      6890.8478      182018.86    
     32600   301.94082     -58430.181     -58744.871      314.69013      6861.7531      182018.86    
     32700   297.58249     -58436.833     -58746.98       310.14778      6845.5687      182018.86    
     32800   297.81994     -58439.791     -58750.186      310.39525      6762.7917      182018.86    
     32900   298.59291     -58437.824     -58749.025      311.20086      6797.8188      182018.86    
     33000   300.41082     -58434.925     -58748.02       313.09553      6800.8232      182018.86    
     33100   301.51335     -58433.534     -58747.779      314.24462      6794.7692      182018.86    
     33200   297.95337     -58435.165     -58745.699      310.53432      6853.2062      182018.86    
     33300   300.05093     -58438.135     -58750.855      312.72045      6790.0644      182018.86    
     33400   298.4192      -58442.299     -58753.318      311.01982      6685.579       182018.86    
     33500   295.40138     -58440.802     -58748.676      307.87457      6836.5403      182018.86    
     33600   301.12533     -58434.468     -58748.308      313.84021      6774.2598      182018.86    
     33700   300.2355      -58431.665     -58744.578      312.91281      6830.6604      182018.86    
     33800   305.04543     -58429.887     -58747.813      317.92584      6877.6794      182018.86    
     33900   301.27329     -58434.131     -58748.126      313.99442      6783.6936      182018.86    
     34000   297.27291     -58438.462     -58748.287      309.82513      6869.9635      182018.86    
     34100   297.40495     -58438.001     -58747.964      309.96274      6802.834       182018.86    
     34200   300.83589     -58436.453     -58749.992      313.53855      6749.548       182018.86    
     34300   301.0118      -58434.265     -58747.987      313.72189      6863.2803      182018.86    
     34400   302.20458     -58429.857     -58744.822      314.96503      6888.7075      182018.86    
     34500   302.56918     -58428.865     -58744.21       315.34502      6906.5236      182018.86    
     34600   296.68713     -58436.598     -58745.813      309.21461      6805.5238      182018.86    
     34700   298.99949     -58439.427     -58751.051      311.6246       6753.2327      182018.86    
     34800   300.66933     -58437.759     -58751.124      313.36496      6726.5223      182018.86    
     34900   299.93646     -58434.581     -58747.182      312.60114      6806.622       182018.86    
     35000   300.90293     -58431.616     -58745.225      313.60842      6865.7653      182018.86    
     35100   304.04383     -58425.652     -58742.534      316.88194      6966.2034      182018.86    
     35200   304.44899     -58421.846     -58739.15       317.30421      6997.3453      182018.86    
     35300   304.33023     -58428.331     -58745.511      317.18044      6974.5658      182018.86    
     35400   301.41209     -58433.841     -58747.98       314.13908      6787.5499      182018.86    
     35500   298.60977     -58435.798     -58747.016      311.21843      6865.5919      182018.86    
     35600   298.75291     -58435.972     -58747.34       311.36762      6793.8474      182018.86    
     35700   298.93766     -58436.943     -58748.504      311.56017      6822.0398      182018.86    
     35800   302.50037     -58434.313     -58749.587      315.27331      6790.817       182018.86    
     35900   300.35796     -58430.997     -58744.038      313.04044      6904.4664      182018.86    
     36000   302.65938     -58428.753     -58744.192      315.43903      6956.5518      182018.86    
     36100   299.48495     -58431.325     -58743.456      312.13057      6942.4773      182018.86    
     36200   301.45544     -58437.933     -58752.117      314.18426      6788.0649      182018.86    
     36300   296.20498     -58440.213     -58748.925      308.7121       6795.4658      182018.86    
     36400   300.74786     -58435.886     -58749.333      313.4468       6798.8312      182018.86    
     36500   298.37201     -58434.036     -58745.007      310.97064      6910.0667      182018.86    
     36600   296.66113     -58433.268     -58742.456      309.18751      6930.1356      182018.86    
     36700   303.23488     -58432.93      -58748.969      316.03883      6874.2734      182018.86    
     36800   302.73502     -58434.735     -58750.253      315.51787      6804.9654      182018.86    
     36900   298.32597     -58435.105     -58746.028      310.92265      6833.7878      182018.86    
     37000   301.89122     -58435.276     -58749.915      314.63844      6814.2599      182018.86    
     37100   299.54682     -58436.107     -58748.302      312.19505      6783.6252      182018.86    
     37200   298.92784     -58432.438     -58743.988      311.54993      6906.6216      182018.86    
     37300   303.41932     -58429.047     -58745.278      316.23106      6903.2743      182018.86    
     37400   303.00781     -58432.337     -58748.139      315.80218      6813.3007      182018.86    
     37500   298.64309     -58440.68      -58751.934      311.25316      6733.2342      182018.86    
     37600   294.27444     -58441.783     -58748.483      306.70005      6790.1969      182018.86    
     37700   297.47311     -58437.519     -58747.553      310.03377      6794.696       182018.86    
     37800   304.8017      -58433.249     -58750.921      317.67181      6826.0158      182018.86    
     37900   300.87396     -58433.709     -58747.288      313.57823      6849.5285      182018.86    
     38000   298.65351     -58432.935     -58744.199      311.26401      6900.3258      182018.86    
     38100   303.52689     -58428.009     -58744.352      316.34318      6910.8902      182018.86    
     38200   303.0068      -58426.77      -58742.572      315.80112      6921.3429      182018.86    
     38300   303.62308     -58430.723     -58747.166      316.44343      6844.5303      182018.86    
     38400   298.81986     -58436.305     -58747.742      311.4374       6838.6695      182018.86    
     38500   297.2775      -58437.291     -58747.12       309.82991      6841.0446      182018.86    
     38600   299.63561     -58435.748     -58748.036      312.28758      6814.3942      182018.86    
     38700   301.66388     -58431.664     -58746.065      314.40151      6876.9508      182018.86    
     38800   303.90612     -58426.208     -58742.946      316.73842      6899.9451      182018.86    
     38900   304.74333     -58427.487     -58745.098      317.61098      6884.4578      182018.86    
     39000   299.32167     -58434.124     -58746.084      311.9604       6855.9411      182018.86    
     39100   297.06413     -58435.222     -58744.83       309.60753      6891.9764      182018.86    
     39200   302.63476     -58433.209     -58748.622      315.41338      6812.2309      182018.86    
     39300   300.24208     -58433.553     -58746.472      312.91966      6871.8885      182018.86    
     39400   300.1269      -58436.116     -58748.915      312.79963      6750.3223      182018.86    
     39500   294.46481     -58440.773     -58747.672      306.89846      6793.7102      182018.86    
     39600   299.63888     -58437.985     -58750.276      312.29099      6765.4001      182018.86    
     39700   301.5329      -58433.267     -58747.532      314.26499      6844.4798      182018.86    
     39800   299.60702     -58432.19      -58744.447      312.25779      6895.8683      182018.86    
     39900   301.76798     -58432.366     -58746.876      314.51         6866.374       182018.86    
     40000   299.36033     -58433.795     -58745.796      312.00068      6850.8002      182018.86    
     40100   300.62725     -58434.28      -58747.601      313.3211       6849.8345      182018.86    
     40200   300.4492      -58435.777     -58748.912      313.13553      6797.1849      182018.86    
     40300   299.68626     -58436.715     -58749.055      312.34038      6758.4372      182018.86    
     40400   299.74345     -58433.103     -58745.503      312.39998      6903.1708      182018.86    
     40500   300.81889     -58428.828     -58742.349      313.52084      6944.6101      182018.86    
     40600   302.04034     -58428.602     -58743.396      314.79385      6883.7513      182018.86    
     40700   302.36839     -58433.904     -58749.04       315.13576      6785.196       182018.86    
     40800   300.60147     -58438.346     -58751.64       313.29423      6735.9713      182018.86    
     40900   297.67678     -58438.371     -58748.617      310.24605      6780.3399      182018.86    
     41000   295.09617     -58435.63      -58743.187      307.55648      6850.4843      182018.86    
     41100   304.67454     -58431.482     -58749.022      317.53928      6918.1937      182018.86    
     41200   303.18164     -58432.972     -58748.956      315.98335      6799.1932      182018.86    
     41300   297.4102      -58435.183     -58745.151      309.96821      6909.5866      182018.86    
     41400   303.1695      -58433.255     -58749.225      315.97069      6849.3395      182018.86    
     41500   298.45518     -58432.825     -58743.882      311.05732      6870.4503      182018.86    
     41600   301.08086     -58432.179     -58745.973      313.79386      6873.3154      182018.86    
     41700   301.10542     -58435.11      -58748.93       313.81946      6827.4211      182018.86    
     41800   301.05915     -58437.642     -58751.413      313.77124      6737.0477      182018.86    
     41900   294.28358     -58439.51      -58746.219      306.70957      6829.0701      182018.86    
     42000   297.58375     -58436.271     -58746.42       310.14908      6827.4331      182018.86    
     42100   304.01053     -58430.087     -58746.934      316.84724      6899.3383      182018.86    
     42200   302.79065     -58429.796     -58745.372      315.57584      6837.2786      182018.86    
     42300   299.77036     -58432.494     -58744.922      312.42803      6833.5412      182018.86    
     42400   298.09869     -58438.374     -58749.06       310.68577      6759.6431      182018.86    
     42500   297.6024      -58440.561     -58750.73       310.16852      6749.2953      182018.86    
     42600   297.89093     -58439.13      -58749.599      310.46924      6781.7465      182018.86    
     42700   296.71061     -58437.266     -58746.505      309.23908      6805.9409      182018.86    
     42800   303.68209     -58432.819     -58749.324      316.50493      6832.2924      182018.86    
     42900   299.77847     -58431.077     -58743.513      312.43648      6908.19        182018.86    
     43000   299.01937     -58431.676     -58743.321      311.64532      6935.3646      182018.86    
     43100   300.33467     -58439.287     -58752.303      313.01616      6701.4295      182018.86    
     43200   296.49387     -58443.534     -58752.547      309.01319      6724.2992      182018.86    
     43300   296.74161     -58440.734     -58750.006      309.27139      6726.6843      182018.86    
     43400   300.68382     -58435.173     -58748.553      313.38006      6776.8411      182018.86    
     43500   300.57385     -58432.977     -58746.243      313.26545      6787.9047      182018.86    
     43600   300.92354     -58432.836     -58746.466      313.6299       6830.6974      182018.86    
     43700   299.45064     -58434.925     -58747.02       312.09481      6894.9051      182018.86    
     43800   295.5391      -58440.383     -58748.401      308.01811      6789.2835      182018.86    
     43900   299.10348     -58442.016     -58753.749      311.73299      6694.0585      182018.86    
     44000   299.36981     -58436.949     -58748.959      312.01057      6798.0768      182018.86    
     44100   300.68806     -58432.396     -58745.781      313.38448      6850.0953      182018.86    
     44200   301.37216     -58432.047     -58746.145      314.09747      6878.5228      182018.86    
     44300   300.98236     -58435.289     -58748.98       313.6912       6839.9489      182018.86    
     44400   296.69171     -58438.616     -58747.836      309.21938      6822.0413      182018.86    
     44500   300.18301     -58436.769     -58749.627      312.8581       6815.046       182018.86    
     44600   303.57933     -58431.75      -58748.148      316.39783      6803.0901      182018.86    
     44700   303.76943     -58427.381     -58743.977      316.59595      6881.2641      182018.86    
     44800   302.27357     -58428.88      -58743.917      315.03694      6918.1774      182018.86    
     44900   297.24418     -58435.984     -58745.779      309.79518      6745.6217      182018.86    
     45000   301.8972      -58436.839     -58751.483      314.64467      6729.0036      182018.86    
     45100   296.37208     -58438.16      -58747.047      308.88625      6832.1717      182018.86    
     45200   296.37497     -58435.603     -58744.492      308.88927      6865.1416      182018.86    
     45300   303.51836     -58428.083     -58744.417      316.33429      6905.8928      182018.86    
     45400   303.3964      -58430.546     -58746.753      316.20718      6868.2325      182018.86    
     45500   300.43581     -58433.228     -58746.35       313.12158      6882.9254      182018.86    
     45600   299.84539     -58435.478     -58747.984      312.50623      6807.201       182018.86    
     45700   294.97254     -58439.354     -58746.781      307.42762      6812.6636      182018.86    
     45800   300.63912     -58435.704     -58749.037      313.33348      6802.8114      182018.86    
     45900   303.6848      -58427.756     -58744.264      316.50775      6854.5053      182018.86    
     46000   304.09082     -58428.113     -58745.044      316.93092      6953.7851      182018.86    
     46100   297.46035     -58433.009     -58743.03       310.02048      6880.6564      182018.86    
     46200   298.92066     -58435.74      -58747.283      311.54245      6846.789       182018.86    
     46300   302.90146     -58435.714     -58751.405      315.69134      6806.2319      182018.86    
     46400   298.32555     -58436.198     -58747.12       310.92221      6768.6829      182018.86    
     46500   301.48376     -58433.493     -58747.707      314.21377      6884.274       182018.86    
     46600   301.90411     -58430.852     -58745.504      314.65187      6890.4931      182018.86    
     46700   300.44392     -58430.106     -58743.236      313.13003      6898.7524      182018.86    
     46800   301.62552     -58433.448     -58747.81       314.36152      6851.3425      182018.86    
     46900   296.90769     -58438.785     -58748.23       309.44448      6785.043       182018.86    
     47000   300.01884     -58438.325     -58751.012      312.687        6788.1666      182018.86    
     47100   301.01115     -58435.178     -58748.899      313.72121      6839.4324      182018.86    
     47200   299.64391     -58428.044     -58740.341      312.29624      6974.5669      182018.86    
     47300   302.44919     -58425.743     -58740.963      315.21997      6969.6478      182018.86    
     47400   302.18829     -58429.451     -58744.399      314.94805      6847.3525      182018.86    
     47500   302.94908     -58434.585     -58750.326      315.74096      6760.8333      182018.86    
     47600   299.91168     -58437.2       -58749.775      312.57532      6772.2454      182018.86    
     47700   295.28807     -58436.996     -58744.752      307.75648      6838.7171      182018.86    
     47800   301.60113     -58431.103     -58745.439      314.3361       6829.523       182018.86    
     47900   302.43329     -58427.731     -58742.934      315.2034       6916.4769      182018.86    
     48000   304.17379     -58429.444     -58746.461      317.01739      6856.9007      182018.86    
     48100   297.29072     -58438.832     -58748.675      309.84368      6759.3679      182018.86    
     48200   297.52947     -58440.322     -58750.414      310.09252      6816.055       182018.86    
     48300   296.20539     -58438.984     -58747.696      308.71253      6809.9692      182018.86    
     48400   301.47612     -58432.791     -58746.997      314.20582      6888.4314      182018.86    
     48500   302.65601     -58431.063     -58746.498      315.43553      6827.5792      182018.86    
     48600   303.99489     -58431.531     -58748.362      316.83093      6829.7363      182018.86    
     48700   292.69337     -58437.049     -58742.102      305.05221      6842.7227      182018.86    
     48800   298.3782      -58439.009     -58749.986      310.97709      6765.9976      182018.86    
     48900   298.60463     -58439.543     -58750.756      311.21308      6773.5186      182018.86    
     49000   301.56687     -58434.918     -58749.218      314.3004       6820.1918      182018.86    
     49100   301.54169     -58430.683     -58744.957      314.27415      6868.6475      182018.86    
     49200   299.42257     -58431.499     -58743.565      312.06555      6943.9296      182018.86    
     49300   299.42624     -58434.824     -58746.893      312.06938      6872.9143      182018.86    
     49400   297.75143     -58438.547     -58748.871      310.32385      6786.1091      182018.86    
     49500   296.60069     -58441.668     -58750.792      309.12452      6766.0364      182018.86    
     49600   299.24266     -58438.253     -58750.131      311.87805      6748.7434      182018.86    
     49700   301.76329     -58431.66      -58746.165      314.50511      6906.4473      182018.86    
     49800   298.38275     -58431.272     -58742.254      310.98182      6912.6242      182018.86    
     49900   300.8552      -58431.716     -58745.274      313.55867      6885.8136      182018.86    
     50000   297.01524     -58437.147     -58746.704      309.55657      6803.6831      182018.86    
     50100   300.13728     -58440.824     -58753.635      312.81045      6710.5212      182018.86    
     50200   297.45009     -58440.437     -58750.447      310.00978      6709.4882      182018.86    
     50300   300.76533     -58432.544     -58746.009      313.46501      6817.3804      182018.86    
     50400   299.11046     -58431.214     -58742.954      311.74026      6906.8756      182018.86    
     50500   299.93948     -58432.96      -58745.565      312.60429      6813.1451      182018.86    
     50600   301.15625     -58435.946     -58749.819      313.87244      6797.3161      182018.86    
     50700   296.4563      -58439.501     -58748.475      308.97403      6798.0225      182018.86    
     50800   295.86266     -58440.132     -58748.487      308.35532      6822.3526      182018.86    
     50900   300.49511     -58434.459     -58747.643      313.18338      6808.165       182018.86    
     51000   301.75        -58429.934     -58744.426      314.49126      6917.9745      182018.86    
     51100   303.16357     -58429.822     -58745.786      315.96452      6878.242       182018.86    
     51200   298.27864     -58435.214     -58746.087      310.87332      6871.7849      182018.86    
     51300   295.66191     -58440.759     -58748.905      308.1461       6762.3871      182018.86    
     51400   300.50837     -58439.827     -58753.024      313.1972       6720.8506      182018.86    
     51500   298.63555     -58436.78      -58748.025      311.2453       6785.7276      182018.86    
     51600   299.29535     -58433.867     -58745.8        311.93296      6844.3832      182018.86    
     51700   302.5305      -58431.961     -58747.266      315.30471      6875.3189      182018.86    
     51800   302.68153     -58431.023     -58746.485      315.46212      6824.5465      182018.86    
     51900   298.57545     -58433.33      -58744.512      311.18266      6871.9811      182018.86    
     52000   299.27337     -58437.516     -58749.426      311.91005      6737.3465      182018.86    
     52100   297.69553     -58439.704     -58749.97       310.26559      6766.1202      182018.86    
     52200   299.29459     -58436.326     -58748.259      311.93217      6819.6415      182018.86    
     52300   301.87319     -58429.792     -58744.412      314.61965      6898.8452      182018.86    
     52400   304.50797     -58427.33      -58744.696      317.36568      6948.5349      182018.86    
     52500   302.59615     -58429.321     -58744.694      315.37313      6893.3258      182018.86    
     52600   299.14716     -58433.255     -58745.033      311.77851      6852.6254      182018.86    
     52700   298.72916     -58435.939     -58747.282      311.34286      6818.9139      182018.86    
     52800   300.33552     -58436.812     -58749.829      313.01705      6782.5808      182018.86    
     52900   297.52388     -58439.627     -58749.714      310.08669      6756.7898      182018.86    
     53000   298.66567     -58441.798     -58753.075      311.27669      6740.2978      182018.86    
     53100   296.74593     -58437.879     -58747.155      309.27589      6787.7043      182018.86    
     53200   301.58492     -58432.595     -58746.914      314.3192       6854.8856      182018.86    
     53300   300.83691     -58431.644     -58745.184      313.53962      6941.4286      182018.86    
     53400   301.43159     -58431.16      -58745.32       314.15941      6826.6789      182018.86    
     53500   298.74961     -58435.773     -58747.137      311.36418      6872.9404      182018.86    
     53600   298.1543      -58440.799     -58751.543      310.74373      6698.0389      182018.86    
     53700   296.7908      -58439.453     -58748.775      309.32266      6789.6661      182018.86    
     53800   299.77563     -58433.737     -58746.171      312.43353      6802.6556      182018.86    
     53900   300.06625     -58432.867     -58745.604      312.73642      6869.4888      182018.86    
     54000   299.48961     -58434.28      -58746.415      312.13543      6855.1216      182018.86    
     54100   299.74342     -58435.241     -58747.641      312.39995      6799.8672      182018.86    
     54200   303.22848     -58434.113     -58750.146      316.03217      6796.053       182018.86    
     54300   296.99982     -58433.321     -58742.861      309.5405       6871.3166      182018.86    
     54400   302.67525     -58430.69      -58746.145      315.45558      6878.4877      182018.86    
     54500   299.73117     -58433.756     -58746.143      312.38719      6830.6469      182018.86    
     54600   300.43986     -58437.714     -58750.84       313.1258       6784.7011      182018.86    
     54700   296.06924     -58442.159     -58750.73       308.57063      6776.1333      182018.86    
     54800   295.03595     -58441.453     -58748.947      307.49371      6843.0432      182018.86    
     54900   297.68362     -58433.869     -58744.122      310.25318      6847.3296      182018.86    
     55000   302.70128     -58430.096     -58745.579      315.4827       6852.8374      182018.86    
     55100   300.71256     -58431.897     -58745.307      313.41001      6869.0941      182018.86    
     55200   300.03555     -58435.915     -58748.62       312.70441      6792.8282      182018.86    
     55300   295.39555     -58441.635     -58749.503      307.8685       6749.3651      182018.86    
     55400   295.64622     -58444.259     -58752.389      308.12975      6663.5984      182018.86    
     55500   299.92823     -58434.26      -58746.853      312.59257      6801.8966      182018.86    
     55600   304.96868     -58431.409     -58749.255      317.84585      6796.2889      182018.86    
     55700   301.37454     -58432.339     -58746.439      314.09994      6801.7673      182018.86    
     55800   294.49733     -58435.151     -58742.084      306.93235      6900.8151      182018.86    
     55900   296.80704     -58437.617     -58746.957      309.33958      6813.7398      182018.86    
     56000   303.0575      -58437.709     -58753.563      315.85396      6758.6964      182018.86    
     56100   301.50244     -58434.994     -58749.228      314.23324      6834.0652      182018.86    
     56200   300.77189     -58429.093     -58742.564      313.47185      6916.7927      182018.86    
     56300   302.48968     -58429.115     -58744.377      315.26217      6904.2001      182018.86    
     56400   298.48823     -58433.59      -58744.682      311.09176      6876.8615      182018.86    
     56500   299.6744      -58435.62      -58747.948      312.32802      6858.2527      182018.86    
     56600   300.42024     -58435.549     -58748.654      313.10535      6778.4338      182018.86    
     56700   302.69489     -58434.502     -58749.978      315.47605      6783.4891      182018.86    
     56800   296.46639     -58435.742     -58744.727      308.98455      6882.4251      182018.86    
     56900   303.28259     -58432.745     -58748.834      316.08856      6856.6044      182018.86    
     57000   296.82285     -58431.378     -58740.734      309.35606      6883.452       182018.86    
     57100   307.48518     -58428.972     -58749.441      320.46861      6788.6021      182018.86    
     57200   298.06266     -58433.149     -58743.798      310.64822      6889.7757      182018.86    
     57300   298.33134     -58437.868     -58748.797      310.92824      6849.4085      182018.86    
     57400   297.64165     -58438.743     -58748.952      310.20943      6737.5018      182018.86    
     57500   300.90337     -58436.491     -58750.1        313.60888      6807.7115      182018.86    
     57600   300.9383      -58435.432     -58749.077      313.64528      6799.3523      182018.86    
     57700   298.04165     -58435.379     -58746.005      310.62632      6816.7819      182018.86    
     57800   301.43129     -58434         -58748.159      314.15909      6780.6506      182018.86    
     57900   300.27947     -58432.176     -58745.135      312.95864      6902.8559      182018.86    
     58000   303.40364     -58428.144     -58744.359      316.21472      6885.9494      182018.86    
     58100   301.03295     -58428.827     -58742.57       313.74393      6935.8022      182018.86    
     58200   299.89583     -58436.034     -58748.592      312.5588       6814.4753      182018.86    
     58300   300.76768     -58437.039     -58750.506      313.46746      6774.8487      182018.86    
     58400   297.93534     -58436.38      -58746.895      310.51553      6790.3386      182018.86    
     58500   304.75253     -58432.273     -58749.893      317.62057      6851.4795      182018.86    
     58600   297.77215     -58431.03      -58741.376      310.34544      6889.2417      182018.86    
     58700   302.21862     -58430.943     -58745.923      314.97966      6887.4811      182018.86    
     58800   300.02513     -58435.598     -58748.292      312.69356      6798.2737      182018.86    
     58900   297.44288     -58439.148     -58749.15       310.00227      6726.128       182018.86    
     59000   297.65921     -58437.693     -58747.92       310.22773      6836.7592      182018.86    
     59100   301.03214     -58431.404     -58745.147      313.74308      6876.8917      182018.86    
     59200   301.1162      -58429.158     -58742.988      313.8307       6884.9259      182018.86    
     59300   306.78295     -58430.302     -58750.039      319.73672      6843.1285      182018.86    
     59400   299.80603     -58433.429     -58745.894      312.46521      6785.7149      182018.86    
     59500   298.37549     -58434.717     -58745.692      310.97426      6845.4702      182018.86    
     59600   297.25348     -58436.255     -58746.06       309.80488      6801.494       182018.86    
     59700   302.37411     -58435.77      -58750.912      315.14172      6797.5988      182018.86    
     59800   301.4864      -58433.522     -58747.738      314.21652      6816.6069      182018.86    
     59900   302.66892     -58429.811     -58745.26       315.44898      6905.9475      182018.86    
     60000   297.25979     -58429.854     -58739.666      309.81145      6970.9352      182018.86    
     60100   301.87049     -58433.628     -58748.244      314.61684      6860.3389      182018.86    
     60200   299.17411     -58438.981     -58750.788      311.8066       6720.3586      182018.86    
     60300   298.14994     -58438.653     -58749.393      310.73919      6763.8562      182018.86    
     60400   296.93284     -58436.217     -58745.688      309.4707       6834.843       182018.86    
     60500   305.62561     -58428.74      -58747.271      318.53051      6822.5716      182018.86    
     60600   302.27894     -58428.022     -58743.064      315.04253      6935.716       182018.86    
     60700   302.71156     -58430.566     -58746.059      315.49342      6884.9216      182018.86    
     60800   299.8084      -58434.286     -58746.754      312.46767      6794.027       182018.86    
     60900   298.7294      -58436.567     -58747.91       311.34312      6793.3405      182018.86    
     61000   300.08944     -58436.067     -58748.828      312.76058      6780.3008      182018.86    
     61100   297.48923     -58435.712     -58745.762      310.05058      6823.3241      182018.86    
     61200   298.41569     -58435.038     -58746.054      311.01616      6860.1609      182018.86    
     61300   301.59598     -58434.323     -58748.654      314.33073      6839.2362      182018.86    
     61400   302.69264     -58433.683     -58749.156      315.47371      6776.2873      182018.86    
     61500   298.2113      -58432.398     -58743.201      310.80314      6865.8905      182018.86    
     61600   298.72244     -58430.178     -58741.514      311.33586      6923.2481      182018.86    
     61700   307.03195     -58429.838     -58749.834      319.99624      6847.6093      182018.86    
     61800   300.02409     -58434.953     -58747.646      312.69248      6828.1995      182018.86    
     61900   298.32074     -58437.812     -58748.729      310.9172       6794.0688      182018.86    
     62000   292.9801      -58441.889     -58747.24       305.35105      6793.8959      182018.86    
     62100   299.5834      -58440.73      -58752.963      312.23318      6713.12        182018.86    
     62200   303.61269     -58433.215     -58749.647      316.43259      6808.8284      182018.86    
     62300   298.71029     -58431.366     -58742.689      311.3232       6885.6223      182018.86    
     62400   301.37667     -58430.379     -58744.481      314.10216      6916.9687      182018.86    
     62500   300.32784     -58435.366     -58748.375      313.00904      6803.0581      182018.86    
     62600   295.61112     -58440.639     -58748.733      308.09316      6788.6183      182018.86    
     62700   298.97443     -58439.182     -58750.78       311.59849      6740.0397      182018.86    
     62800   297.00482     -58436.926     -58746.471      309.54572      6808.3643      182018.86    
     62900   299.81389     -58433.166     -58745.639      312.47339      6799.7928      182018.86    
     63000   301.83042     -58432.137     -58746.712      314.57508      6829.0923      182018.86    
     63100   300.49674     -58433.358     -58746.543      313.18508      6862.1371      182018.86    
     63200   298.5093      -58435.62      -58746.734      311.11372      6806.1245      182018.86    
     63300   299.43906     -58438.794     -58750.877      312.08274      6709.532       182018.86    
     63400   297.40867     -58439.862     -58749.829      309.96662      6737.0273      182018.86    
     63500   299.46198     -58434.972     -58747.079      312.10663      6825.6492      182018.86    
     63600   300.21372     -58430.596     -58743.486      312.89011      6885.031       182018.86    
     63700   301.99083     -58431.273     -58746.015      314.74226      6859.0056      182018.86    
     63800   302.94493     -58433.233     -58748.97       315.73664      6820.0166      182018.86    
     63900   296.95709     -58435.153     -58744.649      309.49596      6844.4098      182018.86    
     64000   298.90642     -58434.808     -58746.335      311.52761      6826.7863      182018.86    
     64100   300.28767     -58433.76      -58746.727      312.96719      6784.2673      182018.86    
     64200   298.69689     -58433.92      -58745.229      311.30923      6852.3433      182018.86    
     64300   300.96829     -58437.404     -58751.081      313.67654      6748.8116      182018.86    
     64400   295.38819     -58442.009     -58749.87       307.86082      6738.4383      182018.86    
     64500   298.45156     -58438.725     -58749.778      311.05354      6804.3867      182018.86    
     64600   298.56282     -58433.928     -58745.097      311.1695       6808.1498      182018.86    
     64700   305.89639     -58430.418     -58749.23       318.81273      6794.1819      182018.86    
     64800   300.47688     -58432.01      -58745.174      313.16438      6883.9145      182018.86    
     64900   298.95906     -58434.034     -58745.617      311.58247      6834.9785      182018.86    
     65000   299.41725     -58436.344     -58748.404      312.06         6724.092       182018.86    
     65100   296.08191     -58441.436     -58750.02       308.58384      6721.4911      182018.86    
     65200   298.68137     -58443.808     -58755.101      311.29305      6680.2544      182018.86    
     65300   299.4097      -58438.561     -58750.613      312.05214      6690.0867      182018.86    
     65400   296.9937      -58432.592     -58742.126      309.53412      6868.0195      182018.86    
     65500   304.4181      -58430.069     -58747.341      317.27202      6797.3022      182018.86    
     65600   299.59243     -58433.192     -58745.434      312.24259      6830.4296      182018.86    
     65700   297.23102     -58437.974     -58747.756      309.78147      6742.6912      182018.86    
     65800   297.8463      -58439.955     -58750.377      310.42273      6770.2866      182018.86    
     65900   300.65637     -58433.723     -58747.074      313.35145      6779.7278      182018.86    
     66000   304.23503     -58426.739     -58743.821      317.08122      6918.9419      182018.86    
     66100   300.71391     -58429.61      -58743.021      313.41142      6893.0705      182018.86    
     66200   299.40578     -58435.139     -58747.187      312.04805      6780.3133      182018.86    
     66300   300.62636     -58436.785     -58750.105      313.32017      6812.0469      182018.86    
     66400   296.9661      -58436.698     -58746.203      309.50536      6800.1123      182018.86    
     66500   302.08556     -58430.323     -58745.164      314.84099      6873.1979      182018.86    
     66600   303.50302     -58426.999     -58743.318      316.3183       6847.7013      182018.86    
     66700   306.33098     -58428.929     -58748.195      319.26567      6781.7415      182018.86    
     66800   295.91711     -58432.802     -58741.214      308.41208      6907.9415      182018.86    
     66900   297.18968     -58435.168     -58744.907      309.73838      6836.4035      182018.86    
     67000   304.45834     -58435.046     -58752.36       317.31396      6746.7366      182018.86    
     67100   297.92004     -58436.216     -58746.716      310.49958      6778.4213      182018.86    
     67200   301.06087     -58432.371     -58746.144      313.77303      6844.303       182018.86    
     67300   300.02042     -58427.711     -58740.399      312.68864      6932.8508      182018.86    
     67400   306.18101     -58427.947     -58747.056      319.10937      6883.0736      182018.86    
     67500   299.58569     -58434.989     -58747.225      312.23556      6797.9654      182018.86    
     67600   297.54993     -58437.107     -58747.221      310.11384      6840.6049      182018.86    
     67700   299.42852     -58435.961     -58748.033      312.07176      6806.2442      182018.86    
     67800   302.88148     -58434.128     -58749.798      315.67052      6739.4723      182018.86    
     67900   300.7803      -58432.055     -58745.535      313.48062      6833.7831      182018.86    
     68000   300.72189     -58427.346     -58740.766      313.41973      6963.9815      182018.86    
     68100   302.77986     -58428.627     -58744.192      315.5646       6890.6047      182018.86    
     68200   303.87634     -58434.15      -58750.857      316.70738      6755.8374      182018.86    
     68300   297.83674     -58436.414     -58746.827      310.41276      6801.3702      182018.86    
     68400   294.32073     -58437.153     -58743.901      306.74829      6873.3327      182018.86    
     68500   303.80902     -58433.689     -58750.326      316.63722      6744.3625      182018.86    
     68600   305.31542     -58428.669     -58746.876      318.20723      6818.2332      182018.86    
     68700   303.73312     -58422.68      -58739.238      316.55811      6955.4846      182018.86    
     68800   302.99121     -58426.73      -58742.515      315.78488      6914.3392      182018.86    
     68900   302.06873     -58434.999     -58749.822      314.82345      6799.4333      182018.86    
     69000   299.78657     -58437.778     -58750.223      312.44492      6731.5594      182018.86    
     69100   298.13303     -58436.556     -58747.277      310.72156      6776.2552      182018.86    
     69200   299.45255     -58432.311     -58744.408      312.0968       6883.0074      182018.86    
     69300   300.38888     -58430.26      -58743.332      313.07266      6900.6495      182018.86    
     69400   302.01103     -58433.496     -58748.259      314.7633       6816.5754      182018.86    
     69500   300.40485     -58439.026     -58752.116      313.08931      6717.9511      182018.86    
     69600   295.65281     -58440.15      -58748.287      308.13661      6805.8179      182018.86    
     69700   299.7405      -58435.019     -58747.416      312.39691      6816.1966      182018.86    
     69800   300.73086     -58431.946     -58745.375      313.42908      6840.3531      182018.86    
     69900   302.2002      -58432.369     -58747.33       314.96046      6864.2636      182018.86    
     70000   298.87963     -58436.011     -58747.51       311.49969      6847.0068      182018.86    
     70100   301.81087     -58437.878     -58752.433      314.5547       6636.7073      182018.86    
     70200   297.18944     -58438.814     -58748.552      309.73813      6772.4369      182018.86    
     70300   296.7616      -58435.432     -58744.724      309.29223      6832.6181      182018.86    
     70400   302.28913     -58430.178     -58745.232      315.05315      6870.922       182018.86    
     70500   304.89923     -58429.677     -58747.45       317.77346      6880.8038      182018.86    
     70600   299.41851     -58435.469     -58747.531      312.06132      6865.7546      182018.86    
     70700   297.58619     -58438.268     -58748.42       310.15164      6735.7997      182018.86    
     70800   298.02204     -58437.521     -58748.127      310.60588      6798.9686      182018.86    
     70900   301.32139     -58434.762     -58748.807      314.04455      6755.1902      182018.86    
     71000   295.21478     -58434.361     -58742.041      307.68009      6873.0134      182018.86    
     71100   304.49865     -58432.598     -58749.954      317.35597      6811.4786      182018.86    
     71200   296.6055      -58434.741     -58743.871      309.12954      6864.438       182018.86    
     71300   301.81494     -58434.56      -58749.119      314.55894      6788.8458      182018.86    
     71400   297.01554     -58435.441     -58744.998      309.55689      6843.3168      182018.86    
     71500   299.66351     -58435.071     -58747.388      312.31667      6795.7657      182018.86    
     71600   298.24314     -58433.961     -58744.797      310.83632      6848.8032      182018.86    
     71700   304.25837     -58431.48      -58748.586      317.10554      6833.4776      182018.86    
     71800   300.10021     -58433.127     -58745.899      312.77181      6844.922       182018.86    
     71900   299.80054     -58434.185     -58746.644      312.45948      6789.6345      182018.86    
     72000   301.49876     -58434.438     -58748.668      314.22941      6751.2399      182018.86    
     72100   303.0681      -58434.359     -58750.224      315.86501      6826.2285      182018.86    
     72200   296.21505     -58435.023     -58743.745      308.72259      6888.2908      182018.86    
     72300   301.32582     -58431.894     -58745.943      314.04916      6842.6283      182018.86    
     72400   303.54707     -58430.749     -58747.113      316.36421      6861.2431      182018.86    
     72500   302.09269     -58434.902     -58749.751      314.84842      6798.8367      182018.86    
     72600   293.84179     -58440.945     -58747.194      306.24913      6789.0852      182018.86    
     72700   298.30532     -58439.194     -58750.096      310.90113      6745.3978      182018.86    
     72800   300.72979     -58434.282     -58747.71       313.42797      6850.2811      182018.86    
     72900   301.00716     -58433.278     -58746.995      313.71706      6816.2332      182018.86    
     73000   301.39256     -58433.632     -58747.751      314.11872      6810.3133      182018.86    
     73100   295.89599     -58435.539     -58743.929      308.39007      6838.5351      182018.86    
     73200   301.70851     -58435.409     -58749.857      314.44802      6745.9105      182018.86    
     73300   299.13821     -58434.786     -58746.555      311.76919      6843.0949      182018.86    
     73400   299.46068     -58432.611     -58744.716      312.10528      6864.8935      182018.86    
     73500   300.70563     -58431.905     -58745.307      313.40278      6858.9513      182018.86    
     73600   303.68413     -58432.833     -58749.34       316.50706      6780.9846      182018.86    
     73700   300.37375     -58437.323     -58750.379      313.0569       6794.5119      182018.86    
     73800   293.32898     -58441.533     -58747.248      305.71467      6782.143       182018.86    
     73900   296.90027     -58438.993     -58748.43       309.43675      6787.992       182018.86    
     74000   302.32255     -58430.501     -58745.589      315.08799      6865.0359      182018.86    
     74100   302.7665      -58430.205     -58745.756      315.55068      6898.3256      182018.86    
     74200   301.13353     -58433.968     -58747.817      313.84875      6797.9153      182018.86    
     74300   298.49213     -58437.169     -58748.265      311.09583      6728.1907      182018.86    
     74400   294.96406     -58437.578     -58744.997      307.41878      6813.6224      182018.86    
     74500   302.3491      -58431.657     -58746.772      315.11566      6808.4996      182018.86    
     74600   306.1908      -58426.617     -58745.737      319.11957      6818.0178      182018.86    
     74700   303.27164     -58427.511     -58743.588      316.07714      6843.3835      182018.86    
     74800   297.28012     -58434.395     -58744.227      309.83264      6871.6507      182018.86    
     74900   302.31268     -58435.732     -58750.81       315.0777       6759.8447      182018.86    
     75000   296.54286     -58437.827     -58746.892      309.06425      6764.8666      182018.86    
     75100   300.0681      -58434.759     -58747.498      312.73834      6803.9464      182018.86    
     75200   305.07075     -58429.694     -58747.646      317.95223      6808.7996      182018.86    
     75300   300.6104      -58431.15      -58744.453      313.30353      6881.7585      182018.86    
     75400   296.78713     -58435.631     -58744.95       309.31883      6818.4817      182018.86    
[...]
    181800   295.61795     -58443.586     -58751.686      308.10029      6689.1166      182018.86    
    181900   295.12814     -58439.6       -58747.189      307.5898       6837.4533      182018.86    
    182000   301.94563     -58432.789     -58747.484      314.69515      6859.4684      182018.86    
    182100   302.4866      -58431.058     -58746.317      315.25896      6851.7513      182018.86    
    182200   305.81447     -58431.554     -58750.281      318.72735      6797.3247      182018.86    
    182300   291.78343     -58437.399     -58741.503      304.10385      6878.1773      182018.86    
    182400   299.52307     -58437.54      -58749.71       312.17029      6767.6511      182018.86    
    182500   298.53501     -58437.622     -58748.762      311.14052      6757.5049      182018.86    
    182600   306.45513     -58429.093     -58748.488      319.39506      6836.0312      182018.86    
    182700   298.82452     -58429.176     -58740.618      311.44225      6908.2634      182018.86    
    182800   300.66333     -58431.35      -58744.708      313.3587       6865.5532      182018.86    
    182900   299.43152     -58436.97      -58749.045      312.07488      6774.1767      182018.86    
    183000   298.12719     -58439.196     -58749.911      310.71548      6745.0353      182018.86    
    183100   299.48713     -58437.818     -58749.951      312.13284      6741.548       182018.86    
    183200   301.38946     -58434.193     -58748.309      314.11549      6841.2016      182018.86    
    183300   300.07462     -58433.35      -58746.095      312.74514      6852.1148      182018.86    
    183400   300.51307     -58433.462     -58746.664      313.2021       6794.2788      182018.86    
    183500   301.49483     -58435.177     -58749.403      314.22531      6815.1057      182018.86    
    183600   294.48565     -58440.458     -58747.378      306.92018      6736.4819      182018.86    
    183700   298.36788     -58439.579     -58750.545      310.96633      6706.7935      182018.86    
    183800   303.1383      -58433.299     -58749.237      315.93817      6787.1353      182018.86    
    183900   300.2244      -58429.214     -58742.115      312.90124      6905.5274      182018.86    
    184000   302.54113     -58428.326     -58743.642      315.3158       6910.2954      182018.86    
    184100   300.82854     -58433.854     -58747.385      313.53089      6778.9337      182018.86    
    184200   296.87881     -58436.829     -58746.244      309.41438      6810.6225      182018.86    
    184300   304.23198     -58434.993     -58752.071      317.07804      6677.7595      182018.86    
    184400   296.87591     -58435.466     -58744.877      309.41137      6851.9827      182018.86    
    184500   298.78263     -58432.715     -58744.114      311.39859      6875.4388      182018.86    
    184600   305.62466     -58427.597     -58746.126      318.52953      6835.2255      182018.86    
    184700   300.61825     -58426.955     -58740.267      313.31172      6925.9041      182018.86    
    184800   302.72214     -58431.695     -58747.2        315.50444      6857.5967      182018.86    
    184900   300.57263     -58438.24      -58751.504      313.26418      6752.4468      182018.86    
    185000   294.05526     -58439.371     -58745.842      306.47161      6803.9735      182018.86    
    185100   302.35306     -58434.765     -58749.884      315.11978      6730.1149      182018.86    
    185200   301.26196     -58431.749     -58745.732      313.98262      6874.3161      182018.86    
    185300   297.29107     -58430.923     -58740.767      309.84406      6875.1741      182018.86    
    185400   302.09054     -58433.629     -58748.475      314.84618      6828.6133      182018.86    
    185500   297.35172     -58440.607     -58750.514      309.90726      6723.1363      182018.86    
    185600   301.17783     -58438.172     -58752.067      313.89493      6716.217       182018.86    
    185700   297.3068      -58434.561     -58744.421      309.86044      6872.7875      182018.86    
    185800   300.63816     -58429.503     -58742.835      313.33247      6904.056       182018.86    
    185900   300.68214     -58430.073     -58743.451      313.3783       6910.1899      182018.86    
    186000   304.67176     -58432.427     -58749.963      317.53639      6733.2016      182018.86    
    186100   300.27158     -58434.838     -58747.788      312.95042      6795.3124      182018.86    
    186200   297.85332     -58435.19      -58745.62       310.43005      6806.2282      182018.86    
    186300   300.95806     -58433.048     -58746.713      313.66588      6878.4893      182018.86    
    186400   299.22743     -58430.695     -58742.557      311.86217      6913.5458      182018.86    
    186500   306.66108     -58426.455     -58746.064      319.6097       6836.6597      182018.86    
    186600   306.58007     -58428.719     -58748.244      319.52527      6838.5978      182018.86    
    186700   297.38289     -58435.47      -58745.409      309.93975      6815.3273      182018.86    
    186800   299.81715     -58437.005     -58749.482      312.47679      6743.1695      182018.86    
    186900   295.66966     -58438.882     -58747.036      308.15418      6829.1158      182018.86    
    187000   302.9241      -58433.69      -58749.405      315.71493      6770.2898      182018.86    
    187100   303.5591      -58429.224     -58745.601      316.37675      6856.7735      182018.86    
    187200   301.35997     -58429.859     -58743.944      314.08476      6846.6818      182018.86    
    187300   298.29851     -58432.988     -58743.882      310.89403      6918.5511      182018.86    
    187400   299.59433     -58434.223     -58746.468      312.24457      6833.5564      182018.86    
    187500   300.67534     -58435.047     -58748.418      313.37122      6795.8977      182018.86    
    187600   299.98982     -58436.118     -58748.774      312.65676      6741.2494      182018.86    
    187700   301.68502     -58435.4       -58749.823      314.42353      6757.8015      182018.86    
    187800   298.97985     -58433.089     -58744.693      311.60414      6861.2684      182018.86    
    187900   298.99531     -58431.142     -58742.762      311.62025      6890.2153      182018.86    
    188000   300.68614     -58431.781     -58745.164      313.38247      6882.3136      182018.86    
    188100   298.38737     -58435.751     -58746.738      310.98665      6822.2663      182018.86    
    188200   300.9147      -58439.256     -58752.877      313.62068      6677.1009      182018.86    
    188300   294.76909     -58442.76      -58749.976      307.21558      6701.0854      182018.86    
    188400   298.77492     -58437.493     -58748.884      311.39055      6805.0536      182018.86    
    188500   296.53451     -58432.802     -58741.858      309.05555      6893.8243      182018.86    
    188600   304.79235     -58429.177     -58746.839      317.66207      6863.1445      182018.86    
    188700   302.61051     -58432.209     -58747.597      315.3881       6750.9434      182018.86    
    188800   299.87252     -58435.553     -58748.087      312.53451      6807.2591      182018.86    
    188900   297.02516     -58436.295     -58745.862      309.56691      6795.8566      182018.86    
    189000   300.21491     -58434.455     -58747.346      312.89135      6781.7441      182018.86    
    189100   299.97644     -58433.128     -58745.771      312.64281      6852.1977      182018.86    
    189200   303.44236     -58430.606     -58746.861      316.25508      6848.2441      182018.86    
    189300   302.22878     -58428.606     -58743.596      314.99025      6892.4163      182018.86    
    189400   301.25237     -58431.878     -58745.851      313.97262      6855.0229      182018.86    
    189500   297.4714      -58437.383     -58747.415      310.032        6740.4672      182018.86    
    189600   300.36558     -58438.697     -58751.745      313.04839      6714.7105      182018.86    
    189700   298.22087     -58436.548     -58747.361      310.81311      6791.6823      182018.86    
    189800   300.64629     -58429.708     -58743.049      313.34095      6885.7355      182018.86    
    189900   305.68221     -58429.178     -58747.767      318.5895       6845.9851      182018.86    
    190000   299.94085     -58433.545     -58746.151      312.60572      6838.3206      182018.86    
    190100   300.17848     -58435.861     -58748.714      312.85338      6747.9376      182018.86    
    190200   296.33379     -58438.03      -58746.877      308.84635      6774.1624      182018.86    
    190300   302.7204      -58435.396     -58750.899      315.50263      6769.5618      182018.86    
    190400   304.70275     -58428.163     -58745.732      317.56869      6799.7084      182018.86    
    190500   294.47263     -58429.918     -58736.825      306.90661      6951.0301      182018.86    
    190600   304.5265      -58431.894     -58749.278      317.38499      6849.7111      182018.86    
    190700   300.63791     -58437.538     -58750.871      313.33221      6751.6882      182018.86    
    190800   300.62756     -58436.694     -58750.015      313.32143      6796.5443      182018.86    
    190900   297.95686     -58435.775     -58746.313      310.53796      6781.6817      182018.86    
    191000   301.44432     -58433.128     -58747.301      314.17267      6864.5264      182018.86    
    191100   301.64532     -58427.5       -58741.882      314.38216      6995.1678      182018.86    
    191200   305.94942     -58422.421     -58741.289      318.86799      6923.4919      182018.86    
    191300   303.46174     -58427.654     -58743.929      316.27528      6933.3435      182018.86    
    191400   298.58523     -58432.327     -58743.52       311.19286      6884.3765      182018.86    
    191500   295.44035     -58435.352     -58743.267      307.91519      6841.8793      182018.86    
    191600   301.68036     -58435.736     -58750.155      314.41867      6749.3963      182018.86    
    191700   300.56834     -58436.812     -58750.071      313.2597       6744.7545      182018.86    
    191800   302.71392     -58435.566     -58751.062      315.49588      6756.7797      182018.86    
    191900   296.3497      -58432.432     -58741.295      308.86293      6906.3375      182018.86    
    192000   303.85291     -58427.468     -58744.151      316.68297      6964.3382      182018.86    
    192100   303.40767     -58430.141     -58746.36       316.21892      6809.6789      182018.86    
    192200   303.47931     -58434.765     -58751.059      316.29359      6806.365       182018.86    
    192300   297.40367     -58436.301     -58746.263      309.96141      6813.1883      182018.86    
    192400   299.97251     -58435.688     -58748.327      312.63871      6770.6638      182018.86    
    192500   299.66874     -58435.273     -58747.595      312.32211      6815.2164      182018.86    
    192600   302.46254     -58430.185     -58745.419      315.23388      6878.9827      182018.86    
    192700   302.75838     -58426.984     -58742.526      315.54221      6912.7721      182018.86    
    192800   302.60323     -58431.318     -58746.699      315.38051      6825.3398      182018.86    
    192900   296.29902     -58436.102     -58744.913      308.81011      6907.8093      182018.86    
    193000   301.07048     -58436.101     -58749.884      313.78304      6774.8224      182018.86    
    193100   298.37169     -58437.327     -58748.298      310.9703       6838.703       182018.86    
    193200   299.86722     -58434.276     -58746.805      312.52897      6817.5561      182018.86    
    193300   303.62131     -58428.586     -58745.027      316.44158      6923.6336      182018.86    
    193400   300.41145     -58428.32      -58741.416      313.09619      6946.1506      182018.86    
    193500   300.55735     -58433.509     -58746.757      313.24825      6881.976       182018.86    
    193600   297.00402     -58439.754     -58749.299      309.54488      6793.2664      182018.86    
    193700   300.73489     -58437.682     -58751.115      313.43328      6724.7159      182018.86    
    193800   302.04504     -58432.608     -58747.407      314.79876      6872.9945      182018.86    
    193900   302.81094     -58430.077     -58745.674      315.59699      6909.967       182018.86    
    194000   296.58442     -58433.942     -58743.049      309.10756      6935.7097      182018.86    
    194100   301.50312     -58436.026     -58750.26       314.23395      6810.7282      182018.86    
    194200   297.13407     -58437.358     -58747.038      309.68042      6804.5099      182018.86    
    194300   300.54251     -58435.356     -58748.589      313.23278      6819.438       182018.86    
    194400   297.84872     -58434.673     -58745.098      310.42524      6859.2348      182018.86    
    194500   299.21542     -58433.126     -58744.976      311.84965      6895.2925      182018.86    
    194600   303.79274     -58430.322     -58746.942      316.62025      6857.0185      182018.86    
    194700   302.61191     -58430.33      -58745.719      315.38956      6902.8575      182018.86    
    194800   300.54651     -58434.162     -58747.399      313.23695      6803.1633      182018.86    
    194900   296.79543     -58439.239     -58748.567      309.32748      6763.9204      182018.86    
    195000   297.14551     -58438.656     -58748.348      309.69235      6764.8943      182018.86    
    195100   300.95288     -58433.908     -58747.569      313.66048      6856.8635      182018.86    
    195200   304.37473     -58426.138     -58743.365      317.22682      6960.7219      182018.86    
    195300   305.98136     -58425.163     -58744.064      318.90129      6914.0694      182018.86    
    195400   302.33016     -58429.605     -58744.701      315.09591      6840.3223      182018.86    
    195500   299.89234     -58433.955     -58746.51       312.55516      6846.8471      182018.86    
    195600   295.12144     -58437.999     -58745.582      307.58281      6826.6975      182018.86    
    195700   297.08922     -58438.587     -58748.221      309.63368      6800.2154      182018.86    
    195800   306.45803     -58432.827     -58752.225      319.39809      6783.6649      182018.86    
    195900   303.4932      -58430.024     -58746.332      316.30807      6839.6638      182018.86    
    196000   297.0687      -58432.256     -58741.869      309.61229      6964.5647      182018.86    
    196100   296.78353     -58433.491     -58742.806      309.31508      6909.5462      182018.86    
    196200   301.45176     -58434.314     -58748.495      314.18042      6815.9744      182018.86    
    196300   300.09725     -58439.321     -58752.09       312.76872      6746.7486      182018.86    
    196400   296.09186     -58443.16      -58751.754      308.59421      6761.8228      182018.86    
    196500   293.99446     -58438.544     -58744.952      306.40824      6891.7088      182018.86    
    196600   298.34399     -58433.032     -58743.973      310.94143      6890.6393      182018.86    
    196700   301.82873     -58432.062     -58746.635      314.57331      6814.8821      182018.86    
    196800   304.86814     -58432.55      -58750.291      317.74106      6800.7079      182018.86    
    196900   295.89299     -58436.832     -58745.219      308.38694      6907.3535      182018.86    
    197000   295.3705      -58439.122     -58746.964      307.84239      6843.8451      182018.86    
    197100   298.55171     -58440.915     -58752.073      311.15792      6736.9814      182018.86    
    197200   299.6169      -58437.875     -58750.143      312.26809      6810.5021      182018.86    
    197300   300.89977     -58432.539     -58746.144      313.60513      6905.3378      182018.86    
    197400   300.48202     -58430.613     -58743.782      313.16974      6931.812       182018.86    
    197500   303.29196     -58430.337     -58746.436      316.09832      6906.4795      182018.86    
    197600   299.12647     -58437.864     -58749.621      311.75695      6786.7927      182018.86    
    197700   299.28842     -58440.225     -58752.151      311.92574      6748.3847      182018.86    
    197800   296.0905      -58438.476     -58747.069      308.59279      6815.0498      182018.86    
    197900   300.31385     -58432.69      -58745.684      312.99447      6873.6172      182018.86    
    198000   302.9704      -58432.034     -58747.797      315.76319      6920.6172      182018.86    
    198100   297.41472     -58434.402     -58744.375      309.97292      6856.8406      182018.86    
    198200   301.89576     -58434.602     -58749.245      314.64317      6885.6718      182018.86    
    198300   295.93683     -58438.596     -58747.029      308.43262      6822.7279      182018.86    
    198400   297.34504     -58442.321     -58752.221      309.9003       6747.2762      182018.86    
    198500   294.46751     -58442.714     -58749.615      306.90127      6749.5611      182018.86    
    198600   301.74182     -58435.233     -58749.716      314.48273      6818.4589      182018.86    
    198700   299.08611     -58433.008     -58744.722      311.71488      6869.6282      182018.86    
    198800   300.79994     -58431.228     -58744.729      313.50108      6882.187       182018.86    
    198900   299.09623     -58431.571     -58743.296      311.72543      6896.2699      182018.86    
    199000   297.25872     -58436.525     -58746.335      309.81034      6846.9651      182018.86    
    199100   300.93946     -58439.756     -58753.402      313.6465       6756.7836      182018.86    
    199200   298.93915     -58439.561     -58751.123      311.56173      6744.8049      182018.86    
    199300   298.65981     -58432.559     -58743.829      311.27059      6906.1017      182018.86    
    199400   304.54603     -58429.877     -58747.282      317.40534      6912.5932      182018.86    
    199500   298.17364     -58433.02      -58743.784      310.76389      6831.0994      182018.86    
    199600   300.81823     -58435.266     -58748.786      313.52014      6807.316       182018.86    
    199700   298.37656     -58439.092     -58750.067      310.97538      6794.9212      182018.86    
    199800   293.91757     -58441.778     -58748.106      306.32811      6787.4035      182018.86    
    199900   298.56959     -58439.536     -58750.713      311.17656      6730.0902      182018.86    
    200000   300.04774     -58433.334     -58746.052      312.71712      6834.227       182018.86    
Loop time of 26395.9 on 20 procs for 200000 steps with 8064 atoms

Performance: 0.655 ns/day, 36.661 hours/ns, 7.577 timesteps/s, 61.100 katom-step/s
100.0% CPU use with 20 MPI tasks x 1 OpenMP threads

MPI task timing breakdown:
Section |  min time  |  avg time  |  max time  |%varavg| %total
---------------------------------------------------------------
Pair    | 22891      | 24100      | 25896      | 703.8 | 91.30
Neigh   | 232.43     | 251.91     | 281.84     | 101.1 |  0.95
Comm    | 211.18     | 2037.5     | 3262.9     |2455.9 |  7.72
Output  | 0.48428    | 0.56435    | 0.65314    |   6.3 |  0.00
Modify  | 3.727      | 4.4823     | 5.4039     |  23.7 |  0.02
Other   |            | 1.907      |            |       |  0.01

Nlocal:          403.2 ave         432 max         384 min
Histogram: 8 0 0 0 4 4 0 0 0 4
Nghost:        1631.85 ave        1686 max        1598 min
Histogram: 7 5 0 0 0 0 0 2 4 2
Neighs:              0 ave           0 max           0 min
Histogram: 20 0 0 0 0 0 0 0 0 0
FullNghs:      23021.7 ave       24724 max       21863 min
Histogram: 8 0 0 0 4 4 0 0 0 4

Total # of neighbors = 460434
Ave neighs/atom = 57.09747
Neighbor list builds = 200000
Dangerous builds not checked
Total wall time: 7:19:56
