ITEM: TIMESTEP
0
ITEM: NUMBER OF ATOMS
188
ITEM: BOX BOUNDS xy xz yz pp pp pp
-6.7275941593217645e+00 1.3455188318643529e+01 -6.7275941593217645e+00
0.0000000000000000e+00 1.1652529463653263e+01 0.0000000000000000e+00
0.0000000000000000e+00 1.6012481410484916e+01 0.0000000000000000e+00
ITEM: ATOMS id type x y z fx fy fz
   1 1    1.666579809999999994829522620    0.924793929999999986257819273    1.108201599999999897860902820    0.174816642796758792144373729   -0.111255417677504020446122013    2.181980470329382804095530446
   2 1    0.218767909999999732306719125    1.994245940000000105740696199    4.113715270000000145955709741   -1.437255052970148216928691909   -0.066251867942412667744633836   -1.355965744181801380108254307
   3 2    3.207587730000000192376319319    0.300724800000000014321699382    2.745249960000000211124415728   -0.075155973156900979237349247    0.085131038405814596359277857   -0.662897686254546036899171213
   4 2    3.189586030000000516082536706    0.080858949999999998881072827    5.223754849999997063036971667   -0.149620615086389768810803957   -0.427133087086209450866647330    0.678203726904786474705133514
   5 1    1.665952799999999900393277130    1.004517270000000017660113372    6.537448129999996915273641207   -1.118487737993873132325006736    0.021766183846536391044423908    0.872621976555019385202172089
   6 1   -0.032841420000000565160291899    1.562213290000000087687226369    9.316902529999994797549334180   -0.392610798917530701146461070    2.332192284812503846325171253   -0.879327982671153973726063668
   7 2    3.176577550000000194074800675    0.243541599999999996972732674    7.894246449999999803992523084    0.585797372392518833628116681   -0.259818786062402606873433797    0.463413063161191352001821997
   8 2    3.438048190000000836619165057    0.187981089999999989581525028   10.700634089999999432052391057    0.439202635071088143270401360   -0.110265459753773498174922452   -0.529995169416423550501349382
   9 1    1.683954490000000081550979303    0.947019210000000000171382908   11.915141099999999596548150294   -0.012049968183734272031415458    0.292369181598427729795730556    0.132592555144592005866854834
  10 1    0.060191780000000028039153221    1.927642749999999960408558763   14.655043969999999475817276107   -0.959631084934649880580082026   -0.207777112927357343608036899   -0.089191489317539174308535621
  11 2   -3.387222559321767079154597013   11.525038863653263021546990785   13.229087330000000477525645692   -0.001081597222730878993246506    0.015107722038756717097829352    0.387208423236631793518114364
  12 2    3.499904379999999814998545844    0.045524280000000000301341174   15.917980240000000335953700414   -0.110141684743305989790940203   -0.118403036674201656008875716    0.255322145586939108774515717
  13 1    0.023449699999998685484570160    3.803931089999999848316747375    1.407333310000000059503122429    0.064549149761196744634617062    0.221099237260799830195878712   -0.245846854338962916841637707
  14 1   -1.799989350000001042673147822    4.800224550000000256488874584    3.796369270000000017972752175    1.019794264543425477143046010   -0.353732756284480809316761452    1.808256886823386366813792847
  15 2    1.986042309999999089242805894    3.011803969999999885942543187    2.791876230000000180808683581   -0.461034490665373719586739298   -0.059706866963903690304071858   -0.185987720042586984758870017
  16 2    1.613049689999999536382802034    3.007923490000000477095909446    5.578630060000000057129909692    0.097689863542858496048282291    0.170425172492935761425769670   -1.713844101902572525375489931
  17 1   -0.182856010000000956949861575    3.969867200000000373449893232    6.696437330000000187624209502    0.546077923080422134027855918   -0.571813251385152043759774187    0.568100825773110384986352983
  18 1   -1.663354599999999905435288383    4.856391880000000327299858327    9.656932629999994688319020497   -0.411705358659423481526573596   -0.105986294367650168979366754   -2.590793183435539770442801455
  19 2    1.575128929999999982669578458    2.853204980000000112738689495    7.986096940000000365955656889    0.122282050947467163526383160   -0.196084468065883588128173187    0.833177073014516378357541271
  20 2    1.527793579999998652141357525    3.114189880000000076876176536   10.745618820000000681602614350    0.452410175268630920797363615    0.229262216177927802274183477   -0.274646618691241739540487288
  21 1   -0.134982450000001197309984491    3.949657510000000648631157674   12.139509059999999962542460707    1.014425253648778557646892295   -0.329054527267079510721714541   -0.169139471595841417439487486
  22 1   -1.600660150000000614411987954    4.860296579999999977417246555   14.803879880000000213158273255    0.062690110907291263231400080   -0.102439464364798782369803121   -0.615734686016419008325328832
  23 2    1.593014909999998618417293983    2.813672289999999964749122228   13.260859070000000414779606217   -0.106977420681587220840924601   -0.220351481852490205248784605    0.935340987652280686504013829
  24 2    1.579154719999998457424794651    2.819297900000000023368329494    0.012389539515083628287706041    0.266942329581352166822938443   -0.079511853834877355140520194   -0.077274993911175704486282712
  25 1   -1.993374040000002178629756600    6.702796249999999567137365375    1.236394559999999920307800494    1.167660498273915159472835512    0.683757489961921205434691728    0.809044386694550476946119488
  26 1   -3.497296770000002830158791767    7.714695029999999675851540815    4.101822229999999791516529513    0.287371470823213570611187606    1.269088672779035587012685937   -1.031754099084938758323914954
  27 2   -0.147257620000001310245352215    5.787507060000000258526142716    2.686076739999999851704615139    0.254572059049093413207742742    0.127010383216310807075188904   -0.140440691627868208257723381
  28 2   -0.055117830000002587809149190    5.892279920000000004165485734    5.273688400000000164880020748   -0.101371675717803533256500259   -0.225924593236857540468065508    0.474108047910501984034681300
  29 1   -1.675741450000002075171323668    6.885422170000000008371898730    6.625909259999997580337094405    0.208555083638370497567393613   -0.718176054191134838333709922    0.296103605880906894931570150
  30 1   -3.300763560000002705407950998    7.584754240000000535815161129    9.243690159999994548911672609   -0.762086941068517820241368099    0.723536983217702101001123083    0.323144154956364726416495614
  31 2   -0.047321900000001804187377275    5.895657170000000668608208798    8.102453369999999210904206848    0.255194633019768524206938309   -0.294439099831921791139421885   -0.134349207818495020028137787
  32 2    0.017604769999998381990735652    5.686897240000000408599589719   10.832770769999999771471266286    0.153593774309918051912404735    0.267062679977952521781503492   -0.959861102964458590136587190
  33 1   -1.773054750000001789089765225    6.924571389999999659892182535   12.021625459999999208093868219   -0.011883282621782065291426989   -0.139287792289608081119922645    0.808070741630056210702548469
  34 1   -3.430221310000002077345016005    7.738140699999999760905211588   14.719861650000000352633833245   -0.808158943262745843583161331    0.114184394397673472099086212   -0.993420785864707722723210281
  35 2    0.193500409999999067878206915    5.872070230000001167525169876   13.381876379999999571168700641    0.335826697299786758321715752   -0.009049043467398626416908769    0.453808909541973337642417619
  36 2   -0.042293690000001937789875228    5.791905560000000896536676009    0.101286619515082082498835803    0.165248134797079559987764696    0.292393515854087016059281723   -0.510618633365283680625168472
  37 1   -3.239341970000003012586375917    9.654571239999999221481630229    1.136873259999999996594510776   -0.707917670291904777002400806   -0.319789316509029308832623428    1.541036008331504447710358363
  38 1   -5.097359510000003091079179285   10.559736739999999954875420372    3.792883039999998651126134064    0.052111151401756927725728019   -0.116538349948184905002790401    0.487893310081681796930297423
  39 2   -1.865903620000001428280711480    8.703987749999999579131326755    2.778594609999998521487896141   -0.457507735684834049294522629   -0.475427225187704138864575043   -2.196470245185086600514523525
  40 2   -1.723493910000000628457428320    8.853017420000000470281520393    5.033323570000000302115950035   -0.077167574750285961027174153   -0.210784828403452417777685923    2.559996575978912503046558413
  41 1   -3.128342050000001428600171494    9.745400489999999749102244095    6.787804780000000093309608928   -2.375711700261970982239745354   -0.996468400577034785214891599   -1.721170312476304475879373967
  42 1   -5.085821680000002231736289104   10.848030299999999570559339190    9.212141779999999613437466905   -0.030100878391941421341471141   -1.572377471263635806408842654    0.189607935904837598961591993
  43 2   -1.610374800000001993538489842    8.696094940000000050872586144    8.081643579999994386753314757    0.164811852593846924763809625   -0.180937423008718456518550965   -0.619524879727090471703832009
  44 2   -1.704909600000002800612719511    8.766972830000000271866156254   10.710570750000000472823558084   -0.186572399198757898908240804   -0.007563889906609055913122575   -0.080507147546826945960773969
  45 1   -3.432468320000004347036792751    9.892004189999999752558323962   11.709572729999999651795405953   -0.904105161764404474666889655   -1.732919574031692722115849392    1.601083182660624437687602040
  46 1   -4.980961360000003779191501962   10.833734160000002333390511922   14.731453299999994754898580140    0.139563219552005790546900243   -1.104406918401827697451267341   -1.204465206918107877953616480
  47 2   -1.824454910000001817138581828    8.742165500000000477598405269   13.481288689999994190316101594   -0.103432124347961340582457979   -0.147136747702485581879017218   -0.722062740218557985727443338
  48 2   -1.663818800000001374428393319    8.557672000000000167574398802    0.024684889515083362904190878    0.282614397608387024618536998   -0.205863291980685425563990520   -0.043993232328758957727643519
  49 1    5.061127370000001235439412994    0.666080259999999979569906827    1.298377230000000048804054131    0.602164023696144967701116002    0.982101235379182035956091568   -0.064365378622109087336511379
  50 1    3.285033100000000150231471707    2.058838909999999966515815686    4.180376309999997097577306704    0.862451768838144450235461136   -0.614863335315662840052652882   -1.224564900453868787622013770
  51 2    6.831419770000000113441274152    0.021630560000000000064890315    2.413449060000000034875711208   -0.007867766728782421559174054    0.103794814613713981543696718    1.142531901242827663267576099
  52 2   -0.092250119321766632651815598   11.613151513653264146341825835    5.223990320000000409095264331    0.592575496826389658266975857    0.209277346026670585388274048    0.190891993078120103533024121
  53 1    5.009080019999999855428995943    0.715475599999999989364596331    6.518267759999999633180323144    0.096540494320440831121921121    1.228380355981479210569773386    1.277262823118258783239298282
  54 1    3.319045120000000181903487828    1.947794590000000214402575693    9.292079049999999895703695074   -1.097741413692755019226865443    0.705649381470656256176710031    0.478245273167207884945639762
  55 2   -0.047865489321764265184810938   11.551396233653262513030313130    8.231294879999994762442838692    0.456348376105420894255360054   -0.271478217462718163233148516   -1.723681304190954888255760125
  56 2    6.597700459999999544891124970    0.030252649999999998986499605   10.656719049999994197719388467   -0.238872324109242306633404951   -0.189500714265160574711899244    1.316852010506604830908372605
  57 1    5.023691000000000350667050952    1.002350979999999891489892434   12.132819140000000501800059283   -0.190295788766725315621641812   -0.042095798250867580425627068   -0.554520551626819679924551565
  58 1    3.397897910000000631924876870    2.008055000000000145377043737   14.641019629999995288471836830   -0.798202134799731344294571045   -0.578580619268528661969241966   -0.065780601131045432494737213
  59 2    6.655049170000000735569756216    0.214256379999999996277537662   13.471391060000000194918357010   -0.215648646565301638222678093    0.597853577082450016177972429   -1.799558795941772704196637278
  60 2    0.122520250678236131136600306   11.615434853653262337047635810   15.817176659999999444039531227   -0.300440063045464000879292144    0.319015689071076025129514164    1.037658740614422869796840132
  61 1    3.464972019999999375272636826    3.920030530000000457135911347    1.386275939999999984308942658   -1.453554651352037430100949678    0.356064309567333037165326459   -0.548436701834745354844358189
  62 1    1.495491709999997809177330055    5.051264719999999819322056283    4.006784200000000240038389165    1.283848475610541273184139754   -1.232700019315253969764967223    0.699114628528988313327374726
  63 2    5.067842859999999838294115762    2.596802910000000075285697676    2.612020719999999851523853067    0.171492030751188129222839507    0.135003970144529195085425499    0.198534322376568955759168489
  64 2    5.153587390000000212353370443    2.832391139999999918330786386    5.302740850000000172315139935   -0.405960739616895993631118245    0.173369261135777719129436036    0.058266459145703261568449705
  65 1    3.472517690000000101235855254    3.919137100000000817345835458    6.735320129999999849701453059   -0.646725369359335666707977452    0.410408802560687069327372001   -0.401615818308260874580639666
  66 1    1.759096339999998814818127357    4.859276680000000681047822582    9.151711829999999991969161783    0.967974942431882201532289400   -0.138976874815849638089559903    1.171493557811442931537726508
  67 2    5.005395979999999411802491522    2.659976359999999928618308331    7.968096589999997370057371882   -0.266617293946545597105313163    0.188146564651458458872212987   -0.019691177925756860739303633
  68 2    4.783088019999999218612174445    2.899968480000000514706925969   10.816557270000000556819941266   -0.599235163133960413439638160   -0.233655604435410724217803136   -0.619764114985183578454552844
  69 1    3.110913539999998533858160954    3.952253010000000177370793608   12.154796839999994162440088985    0.396934600618744637401391628   -0.269460038844104854405259175   -2.048288443817091852849898714
  70 1    1.672964289999997689051269845    4.577728210000000075297066360   14.695386660000000489390004077   -0.260343428587557990105949557    1.711807847573064700341660682    0.925883989301803933535950364
  71 2    5.061161009999999293995642802    2.880056150000000148025947055   13.392838319999999185938577284    0.112522032195467941440014670    0.020192268132477264597213207    0.095209909041940862794994871
  72 2    4.845579289999999872406988288    2.771926220000000107290816231    0.049899909515083440414429106    0.611852368009052738351272183   -0.052740695784916025168342912   -0.139438518934405203397730588
  73 1    1.524876489999999584767920169    6.569628900000000548686784896    1.490219959999999899125100455    1.039284930874661894151245178    1.399181510248419302300249001   -2.341857411982761316693313347
  74 1   -0.104236000000002881904492824    7.700421770000000165623532666    3.804871610000000181628365681   -0.488602656969173820833418631    1.176102401481404102767669428    1.341975273063080065227836712
  75 2    3.232913079999999439451130456    5.892522119999999752337771497    2.639983299999998589413507943   -0.220242311402064933067990182   -0.495011239915751688478451342    0.051595594164888569643778737
  76 2    3.303559549999998790070776522    5.619685879999999578160441160    5.258447710000000441254996986   -0.181428503762260523446414595   -0.005377518115120263550443802    0.485515916315336526487556057
  77 1    1.699542329999997658518395838    6.744087529999999830465640116    6.689245529999999995141024556    0.224765011607116871328315710    1.632324517854400580674223420    0.356847255609517577390477072
  78 1   -0.143895170000003069787908316    7.619274869999999921788003121    9.588822459999994052282090706    0.799411426906442068585079141    0.953696965451034883720637936   -1.568068947343041807940267063
  79 2    3.484499539999998951600446162    5.779043749999999590727384202    8.019001610000000113132045954   -0.479534140486506110789832746   -0.122994061715697780567957409   -1.256914524522255049987506936
  80 2    3.589938429999997904218389522    5.763525880000000434222329204   10.423280950000000544264366908   -0.094848140417491094700253029   -0.381361095331829380583599232    1.062406925977604554844901941
  81 1    1.612177789999999610870418110    6.791439030000000265374637820   11.949980619999999831293280295    0.585807464241509534552676541   -0.128723808743531342724253363    0.518057452562018405650690056
  82 1   -0.051192950000003456523245404    7.631194820000001044491000357   14.706195219999994350246197428   -0.124581517224782972741436993    0.608111616686771161433000543    0.458155873028257387691297708
  83 2    3.260815099999999411295448226    5.836348049999999787473825563   13.215046850000000233649188885   -0.256495161822027417652947179    0.259460424699733516185062854    0.273383606240747534243951122
  84 2    3.368315330000000606958110438    6.151849340000000054828888096   15.906536600000000802879185358   -0.131384138658185323222937768   -0.495318666447386035667221904   -0.025407421693864229439441260
  85 1   -0.001029320000002442725417495    9.617733630000000033533069654    1.404334149999999947766582409    0.311874123949291426338703559    0.105272707399301890252019120   -1.078270857911522329075637572
  86 1   -1.756304390000001269811491511   10.854460530000000773043211666    3.958777429999998709320152557   -0.864244449430764616337796724   -1.670530546018121009765877716   -0.768648466843805833192959653
  87 2    1.755234699999997260988493508    8.579390019999999950073288346    2.810768659999999918852608971   -0.332671354057215040711525944    0.107339021509156529177175798   -0.164433095294290787524715824
  88 2    1.835976589999998687119386886    8.785640560000000931495378609    5.488145269999997744037045777   -0.110939550517859378264695636    0.282258794540800661554413864   -0.541178877721192552741058535
  89 1   -0.253772920000000290485786536    9.708451200000000724799065210    6.485987419999997172226358089    1.992355445231964727881290855   -0.414162754012127432012846384    0.967856594384110424655887073
  90 1   -1.992204780000003339068825881   10.646564420000002471056177455    9.209894759999999180877239269    2.228642276879900574471093933    0.345936486780742624702611465    0.743262805875330889726626538
  91 2    1.767773589999996453059338819    8.724992650000000793397703092    8.033354259999999413821569760   -0.119922437811984319844249569    0.186478032421690531617031183    0.718306468677032405878435384
  92 2    1.703342069999999708329596615    8.557022110000000125751284941   10.763670299999999357964952651   -0.596552150448707352303756579    0.581952225172800985397714157   -0.574236495915315559024350023
  93 1    0.026591489999995943094290851    9.964670279999999991105141817   12.201408309999999701744854974   -1.047113443590666603810745983   -1.857158508043347033833470050   -2.012854807941216961353347870
  94 1   -1.582353020000006438294803957   10.542616360000000241825546254   14.645646870000000205891410587    0.471127394434197876993408727    0.459748927998285372709119656    0.355028649269590212966818399
  95 2    1.452553509999997771728885709    8.580697860000000787294993643   13.351473039999994796289684018    0.151264959022258643761560393   -0.456683599659835237627447668    0.596461408257769387653013382
  96 2    1.974207119999995541093085194    8.634828080000000127824932861    0.167942279515084752494757936   -0.187442671620840273227770467   -0.536696324955293402325651186   -0.303674682550901908761886716
  97 1    8.546004999999999185433807725    0.918891140000000050669370921    1.380743169999999242492094709    0.159773075713577239476137493    0.046906150580641993441677329   -0.963680750675499853130645533
  98 1    6.828386979999999439883140440    1.972234590000000009624159247    3.933853039999999801068497618   -0.278923253078366017998490634   -0.197493100882027622366976516   -0.560245208936222538476101818
  99 2    3.470356790678232883351483906   11.633741983653262508369152783    2.690249189999999845923639441    0.023143391419494244165555585    0.119230568792244917553091454    0.028547395926017300749055750
 100 2    3.187667320678235327591210080   11.512316983653262170150810562    5.287922649999999613612544636   -0.149101825273068755439709321    0.196568225329598056383417770    0.341435930912228291500554178
 101 1    8.275290650000000525210452906    0.888419170000000146814045365    6.787465710000000207458015211    1.053800512532942601495733470   -0.604390136657880883142013317    0.611010093309856561205606340
 102 1    6.823871409999997972306573502    1.921847599999999989250909493    9.412624079999995174716787005   -0.093563043269324158712763051   -0.723818157056099309443197853   -0.550347442168944822604714773
 103 2    3.448015790678234715471717209   11.607834023653262889297366200    8.007712700000000793920662545   -0.236899782027343991375190058   -0.057959669419043430282911800   -0.464158139143734826959075690
 104 2   10.048523010000000255104168900    0.091483170000000002541895583   10.664645500000000666318555886   -0.246043543696493227646016067    0.768609360911349348555177130   -0.235531782047520288347897122
 105 1    8.242237979999996966284925293    0.992674010000000106579420844   11.964087040000000783379618952    1.081463701740210225921146048    0.323022786404418948968952918    0.479875474362253529037047883
 106 1    6.648306769999999588094397041    2.113846409999999842455054022   14.870139959999999490491973120    1.124394451472443545725354852   -1.229482073931722041493230790   -0.973389196395063160949234771
 107 2    9.953732549999999790202309669    0.330864429999999987153103120   13.180527559999999809292603459    0.269456500092363937515216321    0.809875833170972003749454871    1.329651879694744964766073281
 108 2    3.435603380678229790134992072   11.650447943653263749297366303    0.086738869515083763528373595    0.364914547702180458443876887    0.721412862322883818855245863   -0.852883854787520045981352723
 109 1    6.464102549999998892360508762    3.876891849999999806186679052    1.235229340000000064492269303    1.530900628516586259308951412   -0.323361979221079232083013721    0.491855988566656909810603793
 110 1    5.033511949999998513760601782    4.631030929999999656843101548    3.737502829999999942600652503    0.524141077473802896591337230    1.345844470146632998464042430    2.454127967673234156364969749
 111 2    8.351363589999998282564774854    3.192287830000000159458295457    2.546258490000000040964778236   -0.314534070700019041666450903   -0.143981723633615693591636386    1.963763044079400943431323867
 112 2    8.437758009999999586625563097    2.625532419999999866888629185    5.453998689999999704980382376   -0.136633341875575631263473042    0.175398712406918066974981230   -1.201419710398505591442130935
 113 1    6.670755409999999940851012070    3.475341939999999851806933293    6.669308970000000336142420565    0.884029611109329538365386725    2.566453114628029830157629476    0.535208268597551439782478155
 114 1    5.165909649999999686542651034    4.497393999999999891770130489    9.298105630000000232371348829   -0.299303503104015822255945523    2.668118334925577261884654945   -0.463357473696483723735184412
 115 2    8.626231559999999021215444373    3.006116460000000323304902849    7.878728579999999759309048386    0.162599102855673943723857633    0.023823157589905358255677470    1.101882626934918674166397068
 116 2    8.395008190000000425357029599    2.994214000000000375223407900   11.117100430000000699237716617    0.165761660636204288810091612    0.225356385968633998739818480   -2.605008802621731955895256760
 117 1    6.489227429999999685605871491    3.808243480000000236174173551   11.902508029999999905612639850    0.942298209212226067776896343    0.232442359658917380160758626    1.120451765320822801186295692
 118 1    4.744964089999999856672729948    4.767377739999999697317889513   14.553874410000000594322955294    0.601030701339074768796422177    1.308059934292151282875238394    0.861196321674037479354524294
 119 2    8.408035500000000439513314632    3.007644969999999862153572394   13.420837219999993905616975098   -0.082250303751669459617623659   -0.355277382427464094583058341    1.657072619731216223115666253
 120 2    8.547650569999996505998751672    3.067800430000000577734908802    0.178429249515084126231911910    0.150888446326747194259354501   -0.494581608683228757250560648   -1.504327848764433372963367219
 121 1    5.117835610000000201580405701    6.871286150000000425563939643    1.586512020000000022790231924   -2.603190424083765996954298316   -1.016367603820458986874086804   -2.931919419328168796567979371
 122 1    3.457123609999998237185536709    7.729700260000000433535660704    4.094941249999999755004864710   -2.125204974283583236882577694   -0.625074255481693263902798208    0.578240504078635253470963562
 123 2    6.725302739999998280495674408    5.753442559999999872388798394    2.712253800000000047987214202    0.159818265129684028424961184   -0.237631381376850692177526980   -0.451938815345956423907836097
 124 2    6.711416989999998250482349249    5.663432730000001136261289503    5.487079620000000268476014753    0.385934072487053414501900761   -0.266851324497630382204249599   -1.447942228663855246395542054
 125 1    4.954411589999998533073721774    7.025018410000001267690095119    6.658482929999997246284237917    1.490148127167417513305736065   -2.562387724655661891404179187    0.854170008089435772724584695
 126 1    3.580674529999995137075075036    7.904710549999999891213064984    9.672151789999999138558450795   -2.579719280014061144612469434   -0.785031847299986540456018247   -3.219588860377942118873306754
 127 2    6.847257879999999907738583715    5.726151400000000890599949344    7.915322650000000237469066633    0.347654077530712424248804382   -0.474354055913886352158215232    1.007566839210642939406170626
 128 2    6.570013719999998613729985664    6.025763460000001181526840810   10.542483150000000691193235980    0.398453392359656599630568508    0.061591976833954731329612287    0.485172807436075159692734360
 129 1    5.084076539999998978203166189    7.133163139999999735607616458   11.849945330000000609516064287    0.892741511991134495396238435   -2.667836772406437351179420148    1.269482232145564992720210284
 130 1    3.421120219999997935644842073    7.844197180000000102495505416   14.373705400000000409477252106   -0.321721536341225355926098928   -0.673589163927261536102264472    2.987860940514995622407923292
 131 2    6.567517779999999305573510355    5.720802970000000264860773314   13.219417090000000314375938615    0.321383230468369252008642434   -0.011089275654442620755446569    0.579802554023844618491523306
 132 2    6.545456659999999260435288306    5.791414450000000435636593465   15.948830299999999127180672076    0.321068447025071868061729674   -0.218364854817751558035965331    0.091659299842450553397199542
 133 1    3.409463989999999000701791374    9.449115900000000678460310155    1.618159970000000003054196895   -0.261502894614563885511415720    1.485295206270481394028593058   -1.477399126092871162185815592
 134 1    1.529122949999997871373125236   10.617490450000000024033397494    3.999039389999998750369059053    1.208024568057198377957206503   -0.244929784296286534583941830    0.082966789466614648818065803
 135 1    3.411785009999999118690539035    9.729643120000000422464836447    6.693801449999999597650912619   -1.475487696289060401966253266   -0.232438027886848030956201683    1.073203186301866951524175420
 136 1    1.509707109999999907756773609   10.595939270000000576033016841    9.579898979999999397705323645    0.610103269437194506430444108   -0.371806786392573140886952388   -1.407864182463097524333761612
 137 1    3.450412159999999062165443320    9.545409299999999319652488339   12.077962339999993801598066057   -0.768138779957169615109080496    2.160328983864761465127912743   -1.364338040736402746233579819
 138 1    1.731116269999995793682501244   10.564296710000002477158886904   14.256094949999999599299371766    0.444387017504145109825230975    0.909633729929598011665348167    3.509892143885669391067949618
 139 2    5.289417519999999761637354823    8.828894959999999514366209041   13.581066990000000060945239966   -0.167348956327769915475300877    0.090746395509496952103134504   -1.184135257865956303291454788
 140 2    4.941280669999999375363586296    8.513878050000000641261976853   15.931551139999999833207766642   -0.395314351248186701681675004    0.073975395650753478227201754    1.389748594934739456263628199
 141 1   11.879488890000001077851266018    0.954960460000000010971632491    1.349794890000000080476638686   -0.922968212291784384504467198   -0.294371310513571682321298795    0.396909347312169646926349742
 142 1    9.957199949999999688543539378    1.930999820000000033459741644    3.972015990000000051907136367    0.942128314834970392865898248   -0.515980399651764010116039572   -0.358038301768461408869370644
 143 2    6.551421340678235338828017120   11.639386433653262642451409192    2.753721350000000178681602847    0.226446848973478331856767909    0.006284999895554532756136723   -0.554927291113400222855034372
 144 2   -6.482365277965294048101441149   11.515684813653262352772799204    5.235256350000000225008989219    0.149125411398048690614359657   -0.009551937702710677768891401   -0.583902470388556027458548670