188
Lattice="13.455188318643529 0.0 0.0 -6.7275941593217645 11.652529463653263 0.0 0.0 0.0 16.012481410484916" Properties=species:S:1:pos:R:3:forces:R:3 energy=-1522.6461931065787 stress="0.0524056822027391 -0.0005802756128060534 -0.002379864538596979 -0.0005802756128060534 0.051849278687928234 -0.0001900586263462865 -0.002379864538596979 -0.0001900586263462865 0.01159082173427788" free_energy=-199710.41217678532 pbc="T T T"
Hf       1.66657981       0.92479393       1.10820160      -0.23197161       0.07823867       1.57277954
Hf       0.21876791       1.99424594       4.11371527      -1.65219989       0.25809736      -1.08791705
O        3.20758773       0.30072480       2.74524996       0.07231228       0.48934007      -0.81818365
O        3.18958603       0.08085895       5.22375485       0.19274712      -1.27995506       0.82414449
Hf       1.66595280       1.00451727       6.53744813      -1.18785840       0.26258599       0.34350118
Hf      -0.03284142       1.56221329       9.31690253      -0.40219407       1.90892248      -0.66403136
O        3.17657755       0.24354160       7.89424645       0.59353402      -0.37448375       0.33160520
O        3.43804819       0.18798109      10.70063409       0.81293603       0.41161228      -0.31004599
Hf       1.68395449       0.94701921      11.91514110      -0.01326046       0.57158863       0.28596478
Hf       0.06019178       1.92764275      14.65504397      -0.82199531      -0.73312358      -0.40253448
O        3.34037160      -0.12749060      13.22908733      -0.71601109      -0.45381822       0.68614182
O        3.49990438       0.04552428      15.91798024       0.08718045      -0.16868879       0.40269209
Hf       0.02344970       3.80393109       1.40733331       0.57401164      -0.01793293       0.24087868
Hf      -1.79998935       4.80022455       3.79636927       0.80103902      -0.90007663       1.66653893
O        1.98604231       3.01180397       2.79187623      -0.23122959      -0.34535495      -0.31017737
O        1.61304969       3.00792349       5.57863006       0.17153783       0.44361377      -1.81257579
Hf      -0.18285601       3.96986720       6.69643733       0.67409363      -0.58335503       0.16217953
Hf      -1.66335460       4.85639188       9.65693263      -0.83145131      -0.31414535      -1.88475566
O        1.57512893       2.85320498       7.98609694      -0.32789073      -0.83606747       1.01888525
O        1.52779358       3.11418988      10.74561882       0.52948707       0.00505247      -0.53646582
Hf      -0.13498245       3.94965751      12.13950906       1.07349728      -0.04354317       0.15148888
Hf      -1.60066015       4.86029658      14.80387988       0.17935476      -0.35035420      -0.71640679
O        1.59301491       2.81367229      13.26085907       0.13881155      -0.05670259       1.03002969
O        1.57915472       2.81929790      16.02487095      -0.25672619       0.04727565      -0.22624679
Hf      -1.99337404       6.70279625       1.23639456       0.80371502       0.59696310       0.42674990
Hf      -3.49729677       7.71469503       4.10182223       0.36110167       1.34761055      -0.90797917
O       -0.14725762       5.78750706       2.68607674       0.26718467       0.05885769      -0.19549974
O       -0.05511783       5.89227992       5.27368840       0.79327531      -0.55088251       0.65207239
Hf      -1.67574145       6.88542217       6.62590926       0.36579316      -0.73668533       0.14255353
Hf      -3.30076356       7.58475424       9.24369016      -0.67416048       0.58014166       0.28479338
O       -0.04732190       5.89565717       8.10245337       0.06819028       0.10286521      -0.39748201
O        0.01760477       5.68689724      10.83277077       0.02715368      -0.36878413      -1.02086088
Hf      -1.77305475       6.92457139      12.02162546       0.19217273       0.71192484       0.60599616
Hf      -3.43022131       7.73814070      14.71986165      -0.66760391       0.34634765      -0.26721964
O        0.19350041       5.87207023      13.38187638      -0.03544780       0.09875710       0.54792214
O       -0.04229369       5.79190556      16.11376803       0.40637725       0.38286143      -0.69691859
Hf      -3.23934197       9.65457124       1.13687326      -0.68325755      -0.78434742       0.96810699
Hf      -5.09735951      10.55973674       3.79288304      -0.19799834      -0.31018251       0.44039629
O       -1.86590362       8.70398775       2.77859461      -0.49189446      -0.58988486      -2.42383963
O       -1.72349391       8.85301742       5.03332357      -0.10507276      -0.36252066       2.49206128
Hf      -3.12834205       9.74540049       6.78780478      -1.85947734      -0.55462243      -1.29758152
Hf      -5.08582168      10.84803030       9.21214178      -0.03805593      -1.54580173       0.34585477
O       -1.61037480       8.69609494       8.08164358       0.29386938      -0.14062752      -0.23417659
O       -1.70490960       8.76697283      10.71057075      -0.84337892       0.13734396      -0.06831473
Hf      -3.43246832       9.89200419      11.70957273      -1.02915629      -1.48930714       1.36524421
Hf      -4.98096136      10.83373416      14.73145330       0.38824095      -0.89615698      -0.44429742
O       -1.82445491       8.74216550      13.48128869      -0.21543042      -0.69129199      -0.50732236
O       -1.66381880       8.55767200      16.03716630       1.28558680      -0.08420517       0.20060775
Hf       5.06112737       0.66608026       1.29837723       0.78746693       0.90200264      -0.25719902
Hf       3.28503310       2.05883891       4.18037631       0.54119639      -0.67759393      -0.82968213
O        6.83141977       0.02163056       2.41344906      -0.33234131       0.15273201       0.85424671
O        6.63534404      -0.03937795       5.22399032       1.11190107       0.13946255       0.12371403
Hf       5.00908002       0.71547560       6.51826776      -0.17383306       1.08400846       1.11242455
Hf       3.31904512       1.94779459       9.29207905      -0.76725601       0.35924482       0.55297590
O        6.67972867      -0.10113323       8.23129488       0.63871216      -0.49125940      -1.43961105
O        6.59770046       0.03025265      10.65671905       0.33664328       0.05135881       1.51272114
Hf       5.02369100       1.00235098      12.13281914      -0.14295076       0.50543106      -0.56910623
Hf       3.39789791       2.00805500      14.64101963      -0.48951105      -0.72492099      -0.25705349
O        6.65504917       0.21425638      13.47139106       0.36543681       0.76236500      -1.94422990
O        6.85011441      -0.03709461      15.81717666      -0.24383725      -0.26652261       1.25551518
Hf       3.46497202       3.92003053       1.38627594      -1.22492265       0.64583772      -0.15993059
Hf       1.49549171       5.05126472       4.00678420       1.11421275      -0.94103738       0.27290563
O        5.06784286       2.59680291       2.61202072       0.25353674      -0.12862818      -0.06247369
O        5.15358739       2.83239114       5.30274085      -0.58041471       0.69944830      -0.19095429
Hf       3.47251769       3.91913710       6.73532013      -1.07294423       0.36142254      -0.39972632
Hf       1.75909634       4.85927668       9.15171183       1.85958867      -0.18057963       0.97819600
O        5.00539598       2.65997636       7.96809659      -0.08735297      -0.09392266       0.13658394
O        4.78308802       2.89996848      10.81655727      -0.78399260      -0.02230612      -0.64855614
Hf       3.11091354       3.95225301      12.15479684      -0.16390526      -0.02403442      -1.76686543
Hf       1.67296429       4.57772821      14.69538666      -0.09852005       1.01245517       0.82468494
O        5.06116101       2.88005615      13.39283832       0.91958924       0.10948194       0.54203611
O        4.84557929       2.77192622      16.06238132       0.25506500       0.86788641      -0.31957321
Hf       1.52487649       6.56962890       1.49021996       0.61980838       0.97729765      -1.68375735
Hf      -0.10423600       7.70042177       3.80487161      -0.67155749       1.37341697       0.91411408
O        3.23291308       5.89252212       2.63998330      -0.08368272      -0.81355206      -0.00226334
O        3.30355955       5.61968588       5.25844771      -0.21562634      -0.04979815       0.68767291
Hf       1.69954233       6.74408753       6.68924553       0.21986994       1.67771423       0.17735084
Hf      -0.14389517       7.61927487       9.58882246       0.49533074       0.48337562      -1.21001514
O        3.48449954       5.77904375       8.01900161      -0.54344688       0.68220829      -1.44938793
O        3.58993843       5.76352588      10.42328095      -0.19345186      -0.37904745       1.34996903
Hf       1.61217779       6.79143903      11.94998062      -0.02610647       0.01506358       0.03221644
Hf      -0.05119295       7.63119482      14.70619522      -0.79661389       0.33615914       0.46917336
O        3.26081510       5.83634805      13.21504685      -0.56761653      -0.00591354       0.47585926
O        3.36831533       6.15184934      15.90653660       0.06756396      -0.49889789      -0.12094418
Hf      -0.00102932       9.61773363       1.40433415       0.33978979       0.03540383      -0.84007633
Hf      -1.75630439      10.85446053       3.95877743      -0.85197051      -1.26740062      -0.85952673
O        1.75523470       8.57939002       2.81076866      -0.01086574       0.42064302      -0.13509373
O        1.83597659       8.78564056       5.48814527      -0.12950312       0.58494242      -0.82360816
Hf      -0.25377292       9.70845120       6.48598742       1.85474677      -0.73743867       1.00858978
Hf      -1.99220478      10.64656442       9.20989476       1.58992674       0.11518491       0.70330547
O        1.76777359       8.72499265       8.03335426      -0.21290637       0.39372871       0.60708322
O        1.70334207       8.55702211      10.76367030      -0.07426683       0.72332871      -0.18912238
Hf       0.02659149       9.96467028      12.20140831      -0.92714263      -1.30537273      -1.85371061
Hf      -1.58235302      10.54261636      14.64564687       0.57439550       0.23902672      -0.01080686
O        1.45255351       8.58069786      13.35147304       0.35001893      -0.65497105       0.60351684
O        1.97420712       8.63482808      16.18042369      -0.19237997       0.13970758      -0.43328076
Hf       8.54600500       0.91889114       1.38074317       0.23015821       0.05088059      -0.57420781
Hf       6.82838698       1.97223459       3.93385304      -0.35138110       0.01130077      -0.48089836
O       10.19795095      -0.01878748       2.69024919       0.77544214       0.00173369       0.07271954
O        9.91526148      -0.14021248       5.28792265      -0.53405618       0.17381737       0.35096561
Hf       8.27529065       0.88841917       6.78746571       0.92510580      -0.26442151       0.63151359
Hf       6.82387141       1.92184760       9.41262408       0.22038725      -1.26330537      -0.47482388
O       10.17560995      -0.04469544       8.00771270      -0.12340961      -0.35366347      -0.63188434
O       10.04852301       0.09148317      10.66464550      -0.64212196       0.86729249      -0.34453271
Hf       8.24223798       0.99267401      11.96408704       1.14321120       0.69642649       0.15735511
Hf       6.64830677       2.11384641      14.87013996       0.88436410      -1.15592350      -0.37921689
O        9.95373255       0.33086443      13.18052756      -0.49503737       0.79920248       1.34774811
O       10.16319754      -0.00208152      16.09922028       0.17942443       0.61621295      -0.66247095
Hf       6.46410255       3.87689185       1.23522934       0.86914908      -0.90684788       0.21557055
Hf       5.03351195       4.63103093       3.73750283       0.61155540       1.11896904       2.32100527
O        8.35136359       3.19228783       2.54625849      -0.63931971       0.22057571       1.64786835
O        8.43775801       2.62553242       5.45399869      -0.74867387      -0.31777704      -1.58724045
Hf       6.67075541       3.47534194       6.66930897       0.57516349       2.22833089       0.41046993
Hf       5.16590965       4.49739400       9.29810563      -0.34105323       2.43758217      -0.60304325
O        8.62623156       3.00611646       7.87872858       0.49825151       0.38985509       1.32948582
O        8.39500819       2.99421400      11.11710043      -0.40088101       0.07180063      -2.83855703
Hf       6.48922743       3.80824348      11.90250803       0.68416001      -0.06861272       0.97353150
Hf       4.74496409       4.76737774      14.55387441       0.64162574       1.20226532       0.85117141
O        8.40803550       3.00764497      13.42083722      -0.19504311      -0.80172164       1.83301066
O        8.54765057       3.06780043      16.19091066       0.34955844      -0.77710050      -1.75139794
Hf       5.11783561       6.87128615       1.58651202      -2.68670896      -0.83731625      -3.06549956
Hf       3.45712361       7.72970026       4.09494125      -2.46817470      -1.52410779       0.48134111
O        6.72530274       5.75344256       2.71225380       0.44112725       0.10984961      -0.83616774
O        6.71141699       5.66343273       5.48707962       0.23464170      -0.05397568      -1.52412501
Hf       4.95441159       7.02501841       6.65848293       1.92894006      -2.20319912       0.44412310
Hf       3.58067453       7.90471055       9.67215179      -2.45321037      -0.62616158      -2.73022925
O        6.84725788       5.72615140       7.91532265       0.55455584      -1.06836844       1.35358580
O        6.57001372       6.02576346      10.54248315       0.66093755      -0.31782615       0.44810086
Hf       5.08407654       7.13316314      11.84994533       0.64855512      -1.75722380       1.21871164
Hf       3.42112022       7.84419718      14.37370540       0.33042455      -0.73159121       2.99997037
O        6.56751778       5.72080297      13.21941709       0.88668246      -0.37990903       0.45062954
O        6.54545666       5.79141445      15.94883030       0.04887307      -0.32952647       0.19440317
Hf       3.40946399       9.44911590       1.61815997      -0.58439632       1.54940564      -1.27920533
Hf       1.52912295      10.61749045       3.99903939       0.84422069      -0.27456399      -0.18481809
Hf       3.41178501       9.72964312       6.69380145      -2.21120091      -0.24233367       0.70641471
Hf       1.50970711      10.59593927       9.57989898       0.24620215      -0.58644138      -1.05716074
Hf       3.45041216       9.54540930      12.07796234      -0.64734284       1.11505016      -0.75953858
Hf       1.73111627      10.56429671      14.25609495      -0.09801174       0.64245852       2.81409452
O        5.28941752       8.82889496      13.58106699      -0.33585498       0.20921195      -1.51794408
O        4.94128067       8.51387805      15.93155114      -0.94250240      -0.24316902       1.48346199
Hf      11.87948889       0.95496046       1.34979489      -0.70373870      -0.25318064       0.45634330
Hf       9.95719995       1.93099982       3.97201599       0.77545346      -0.78156600      -0.35730466
O       13.27901550      -0.01314303       2.75372135      -0.07843819       0.30374421      -0.54811703
O       13.70041720      -0.13684465       5.23525635       0.70061533      -0.22496227      -0.54479748
Hf      11.78413466       0.92649467       6.31165796       0.38889427      -0.18301421       1.48515300
Hf      10.12903751       2.01499115       9.41937589       0.54553358      -0.81208962      -0.41533446
O       13.31752290      -0.03691835       7.60778010      -0.19550514       0.88187861       1.84921684
O       13.33018962      -0.15702878      10.72809613      -0.19410955       1.01968434      -0.00043786
Hf      11.78258866       1.06658336      12.06926490      -1.00033371      -0.55305663       0.00583023
Hf       9.95521397       2.10565759      14.72889008      -0.11746599       0.35403705       0.13304739
O       13.41547533      -0.05077315      13.52784499       0.46070261       0.17588505      -0.48371758
O       13.43448347       0.01432978      15.98303877      -0.00290638       0.55932909       0.73703012
Hf      10.36195220       4.03370265       1.39647901      -1.76684229      -2.60235929      -0.70969852
Hf       8.53212867       4.82779557       4.17359490      -2.51011685       0.19966570      -0.78980818
O       11.85478247       2.67046064       2.74510868      -0.15821875      -0.44841170      -1.19638675
O       11.75916452       2.96372320       5.10549855       0.12638386       0.47963158       1.91896238
Hf      10.10418040       3.99854963       6.43829416       0.24338860      -0.57537149       1.87139389
Hf       8.29725759       4.71308067       9.63798638      -0.47635368       0.51218818      -2.07779614
O       11.90674372       3.04226383       8.19395404      -0.05843320       0.66603013      -0.34217141
O       12.10860249       2.75389088      10.63910621       0.70520989      -0.20935413       0.57984084
Hf      10.27440467       4.00388864      11.96044472      -2.09715089      -0.59210423       0.35674391
Hf       8.24037713       5.01188811      14.59465843       0.38281464      -1.17794114       0.77191279
O       11.58620211       2.99461228      13.31121780      -0.42926547      -0.11513220      -0.16193913
O       11.78864349       2.91446376      15.96709168      -0.00275237      -0.34132269       0.64957044
Hf       7.98683294       6.80010821       1.21398629       2.25201460       1.43934854       1.68502979
Hf       6.24069261       7.66686318       3.89122432       2.91606550       0.92107482       2.16581143
O        9.97385613       5.75578376       2.81403019      -0.34943606       0.81132446      -0.73983134
O       10.04097599       5.88859455       5.38940975       0.34371690       0.72826009       0.21709649
Hf       8.46339149       7.00884392       6.68136079      -1.76641369      -0.94348944       0.69101611
Hf       6.45801273       8.16637090       9.45782410       1.90626962      -1.80989979       0.19545758
O       10.00704605       5.55281359       8.16779446      -0.32582896      -0.23029628      -0.38088965
O       10.00409667       5.93089362      10.66707416      -0.06352502       0.55421080       0.39846777
Hf       8.36746676       6.53773472      12.04360451      -1.23837081       2.09229819       0.02584319
Hf       6.71936766       7.65565097      14.80635698      -0.29401876       0.76498418      -1.20578568
O       10.09407151       5.77781664      13.30398295       0.11927348      -0.11011958       0.25900856
O        9.76546487       5.79541333      16.13730519      -0.79938605       0.21641567      -0.24551721
Hf       6.64610281       9.72311332       1.26625566       0.95257341      -0.19965670       0.56018913
Hf       5.10147948      10.61135623       4.23683966      -0.05341158       0.95156579      -1.59951644
O        8.47680362       8.56415202       2.69814739       0.36582659      -0.10538361      -0.25012746
O        8.42510475       8.79093652       5.35364451       0.52996453       0.50936253       0.20928266
Hf       6.67715604       9.43903931       6.77305790       0.46535013       2.29673843      -0.71180914
Hf       4.83148498      10.77633836       9.48269063       0.48617118       0.16874227      -0.15620866
O        8.55751323       8.87119538       8.05432013      -0.04460221      -0.63985193      -0.41656165
O        8.32010854       8.42491100      10.93282355       0.33634503      -0.26079214      -1.26713503
Hf       6.72683394       9.85462836      12.30219170       1.24845750      -1.09145489      -2.25649089
Hf       4.96192362      10.75707323      14.76203425      -0.07973171      -0.23324328       0.29458260
O        8.61618054       8.85316408      13.31418602       0.08945511       0.77271960       0.94667813
O        8.31185513       8.87112272      15.94937120      -0.32382402      -0.17644015       0.24292940
