(written by ASE)

188 atoms
2 atom types

0.0      13.455188318643529  xlo xhi
0.0      11.652529463653263  ylo yhi
0.0      16.012481410484916  zlo zhi
    -6.7275941593217645                       0                       0  xy xz yz

Masses

     1      178.48999995408445 # Hf
     2      15.998999995884349 # O

Atoms # atomic

     1   1              1.66657981     0.92479392999999999      1.1082015999999999
     2   1     0.21876791000000001      1.9942459400000001      4.1137152700000001
     3   2      3.2075877300000002     0.30072480000000001      2.7452499600000002
     4   2      3.1895860300000001    0.080858949999999999      5.2237548499999997
     5   1      1.6659527999999999              1.00451727      6.5374481299999996
     6   1   -0.032841420000000003      1.5622132900000001      9.3169025300000001
     7   2      3.1765775500000002               0.2435416      7.8942464499999998
     8   2      3.4380481899999999     0.18798108999999999      10.700634089999999
     9   1      1.6839544900000001              0.94701921              11.9151411
    10   1              0.06019178              1.92764275      14.655043969999999
    11   2      3.3403716000000001    -0.12749060000000001             13.22908733
    12   2      3.4999043799999998              0.04552428             15.91798024
    13   1               0.0234497      3.8039310899999998      1.4073333100000001
    14   1     -1.7999893499999999      4.8002245500000003              3.79636927
    15   2              1.98604231      3.0118039699999999      2.7918762300000002
    16   2              1.61304969              3.00792349      5.5786300600000001
    17   1    -0.18285601000000001      3.9698671999999999      6.6964373300000002
    18   1     -1.6633545999999999      4.8563918800000003              9.65693263
    19   2              1.57512893      2.8532049800000001      7.9860969400000004
    20   2              1.52779358      3.1141898800000001      10.745618820000001
    21   1             -0.13498245      3.9496575100000002             12.13950906
    22   1     -1.6006601499999999              4.86029658             14.80387988
    23   2              1.59301491              2.81367229             13.26085907
    24   2              1.57915472               2.8192979             16.02487095
    25   1             -1.99337404      6.7027962499999996      1.2363945599999999
    26   1     -3.4972967700000002      7.7146950299999997      4.1018222299999998
    27   2    -0.14725762000000001      5.7875070600000003      2.6860767399999999
    28   2             -0.05511783              5.89227992      5.2736884000000002
    29   1     -1.6757414500000001              6.88542217      6.6259092600000002
    30   1             -3.30076356      7.5847542399999996      9.2436901599999999
    31   2              -0.0473219      5.8956571699999998      8.1024533699999992
    32   2    0.017604769999999999      5.6868972400000004             10.83277077
    33   1             -1.77305475      6.9245713899999997      12.021625459999999
    34   1     -3.4302213099999999      7.7381406999999998             14.71986165
    35   2     0.19350041000000001      5.8720702300000003             13.38187638
    36   2   -0.042293690000000002              5.79190556      16.113768029999999
    37   1     -3.2393419699999999      9.6545712399999992              1.13687326
    38   1     -5.0973595100000004             10.55973674              3.79288304
    39   2     -1.8659036200000001      8.7039877499999996      2.7785946099999999
    40   2             -1.72349391      8.8530174200000005      5.0333235700000003
    41   1     -3.1283420500000001      9.7454004899999997      6.7878047800000001
    42   1     -5.0858216799999996              10.8480303      9.2121417799999996
    43   2              -1.6103748      8.6960949400000001      8.0816435799999997
    44   2     -1.7049095999999999      8.7669728300000003             10.71057075
    45   1     -3.4324683199999999      9.8920041899999998             11.70957273
    46   1     -4.9809613600000002      10.833734160000001              14.7314533
    47   2             -1.82445491      8.7421655000000005             13.48128869
    48   2              -1.6638188      8.5576720000000002      16.037166299999999
    49   1      5.0611273700000003     0.66608025999999998              1.29837723
    50   1      3.2850331000000002              2.05883891      4.1803763099999998
    51   2      6.8314197700000001              0.02163056              2.41344906
    52   2      6.6353440399999997   -0.039377950000000002      5.2239903200000004
    53   1      5.0090800199999999     0.71547559999999999      6.5182677599999996
    54   1      3.3190451200000002              1.94779459      9.2920790499999999
    55   2      6.6797286700000003             -0.10113323      8.2312948800000001
    56   2      6.5977004600000004    0.030252649999999999             10.65671905
    57   1      5.0236910000000004      1.0023509799999999      12.132819140000001
    58   1      3.3978979100000002      2.0080550000000001      14.641019630000001
    59   2      6.6550491699999998              0.21425638             13.47139106
    60   2      6.8501144099999998             -0.03709461      15.817176659999999
    61   1      3.4649720199999998              3.92003053              1.38627594
    62   1              1.49549171      5.0512647199999998      4.0067842000000002
    63   2      5.0678428599999998      2.5968029100000001      2.6120207199999999
    64   2      5.1535873900000002      2.8323911399999999      5.3027408500000002
    65   1      3.4725176900000001      3.9191370999999999      6.7353201299999998
    66   1      1.7590963399999999      4.8592766799999998              9.15171183
    67   2      5.0053959800000003      2.6599763599999999              7.96809659
    68   2      4.7830880200000001      2.8999684800000001      10.816557270000001
    69   1      3.1109135399999999      3.9522530100000002      12.154796839999999
    70   1      1.6729642899999999      4.5777282100000001             14.69538666
    71   2      5.0611610100000002      2.8800561500000001      13.392838319999999
    72   2      4.8455792899999999      2.7719262200000001             16.06238132
    73   1              1.52487649      6.5696288999999997      1.4902199599999999
    74   1               -0.104236      7.7004217700000002      3.8048716100000002
    75   2      3.2329130799999999      5.8925221199999998      2.6399832999999999
    76   2      3.3035595500000001      5.6196858799999996      5.2584477100000004
    77   1      1.6995423300000001      6.7440875299999998              6.68924553
    78   1    -0.14389516999999999      7.6192748699999999      9.5888224599999994
    79   2      3.4844995399999998      5.7790437499999996      8.0190016100000001
    80   2      3.5899384300000001      5.7635258800000004      10.423280950000001
    81   1      1.6121777900000001      6.7914390300000003             11.94998062
    82   1   -0.051192950000000001      7.6311948200000002             14.70619522
    83   2      3.2608150999999999      5.8363480499999998             13.21504685
    84   2      3.3683153300000002      6.1518493400000001      15.906536600000001
    85   1             -0.00102932              9.61773363      1.4043341499999999
    86   1     -1.7563043899999999      10.854460530000001              3.95877743
    87   2      1.7552346999999999              8.57939002      2.8107686599999999
    88   2              1.83597659      8.7856405599999992      5.4881452700000004
    89   1    -0.25377292000000001      9.7084512000000007      6.4859874199999998
    90   1             -1.99220478      10.646564420000001      9.2098947599999992
    91   2              1.76777359      8.7249926500000008      8.0333542599999994
    92   2      1.7033420699999999      8.5570221100000001      10.763670299999999
    93   1    0.026591489999999999              9.96467028             12.20140831
    94   1             -1.58235302             10.54261636             14.64564687
    95   2              1.45255351      8.5806978600000008             13.35147304
    96   2              1.97420712      8.6348280800000001      16.180423690000001
    97   1      8.5460049999999992     0.91889114000000005      1.3807431699999999
    98   1      6.8283869800000003              1.97223459      3.9338530399999998
    99   2      10.197950949999999   -0.018787479999999999      2.6902491899999998
   100   2      9.9152614799999998             -0.14021248      5.2879226499999996
   101   1      8.2752906500000005     0.88841917000000004      6.7874657100000002
   102   1      6.8238714099999997               1.9218476      9.4126240800000005
   103   2             10.17560995   -0.044695440000000003      8.0077127000000008
   104   2             10.04852301    0.091483170000000003      10.664645500000001
   105   1      8.2422379800000005              0.99267401      11.964087040000001
   106   1      6.6483067699999996      2.1138464099999998      14.870139959999999
   107   2      9.9537325499999998     0.33086442999999999             13.18052756
   108   2      10.163197540000001  -0.0020815199999999999      16.099220280000001
   109   1      6.4641025499999998      3.8768918499999998      1.2352293400000001
   110   1      5.0335119500000003      4.6310309299999997      3.7375028299999999
   111   2      8.3513635900000001      3.1922878300000002              2.54625849
   112   2      8.4377580099999996      2.6255324199999999      5.4539986899999997
   113   1      6.6707554099999999      3.4753419399999999      6.6693089700000003
   114   1      5.1659096499999997      4.4973939999999999      9.2981056300000002
   115   2      8.6262315600000008      3.0061164599999999      7.8787285799999998
   116   2      8.3950081900000004      2.9942139999999999      11.117100430000001
   117   1      6.4892274299999997      3.8082434799999998             11.90250803
   118   1      4.7449640899999999      4.7673777399999997      14.553874410000001
   119   2      8.4080355000000004      3.0076449699999999      13.420837219999999
   120   2      8.5476505700000001      3.0678004300000001             16.19091066
   121   1      5.1178356100000002      6.8712861500000004              1.58651202
   122   1              3.45712361      7.7297002600000004      4.0949412499999998
   123   2      6.7253027400000001      5.7534425599999999               2.7122538
   124   2              6.71141699      5.6634327300000002      5.4870796200000003
   125   1      4.9544115900000003      7.0250184100000004      6.6584829299999999
   126   1              3.58067453      7.9047105499999999      9.6721517899999991
   127   2      6.8472578799999999               5.7261514      7.9153226500000002
   128   2      6.5700137200000004      6.0257634600000003      10.542483150000001
   129   1      5.0840765399999999      7.1331631399999997      11.849945330000001
   130   1      3.4211202200000002      7.8441971800000001              14.3737054
   131   2      6.5675177800000002      5.7208029700000003             13.21941709
   132   2      6.5454566600000001      5.7914144500000004      15.948830299999999
   133   1      3.4094639899999999      9.4491159000000007              1.61815997
   134   1      1.5291229500000001             10.61749045      3.9990393900000001
   135   1              3.41178501      9.7296431200000004      6.6938014499999996
   136   1      1.5097071099999999      10.595939270000001      9.5798989799999994
   137   1              3.45041216      9.5454092999999993      12.077962339999999
   138   1              1.73111627      10.564296710000001             14.25609495
   139   2      5.2894175199999998      8.8288949599999995             13.58106699
   140   2      4.9412806700000003      8.5138780500000006             15.93155114
   141   1      11.879488889999999     0.95496046000000001      1.3497948900000001
   142   1      9.9571999499999997              1.93099982      3.9720159900000001
   143   2              13.2790155             -0.01314303      2.7537213500000002
   144   2              13.7004172    -0.13684465000000001      5.2352563500000002
   145   1      11.784134659999999     0.92649466999999996      6.3116579599999998
   146   1             10.12903751      2.0149911500000002      9.4193758899999995
   147   2              13.3175229   -0.036918350000000003      7.6077801000000003
   148   2      13.330189620000001    -0.15702878000000001      10.728096130000001
   149   1             11.78258866      1.0665833600000001              12.0692649
   150   1      9.9552139700000009      2.1056575899999999      14.728890079999999
   151   2             13.41547533   -0.050773150000000003             13.52784499
   152   2             13.43448347              0.01432978             15.98303877
   153   1      10.361952199999999      4.0337026500000004              1.39647901
   154   1      8.5321286700000005      4.8277955700000001      4.1735949000000003
   155   2             11.85478247      2.6704606399999999              2.74510868
   156   2      11.759164520000001               2.9637232      5.1054985500000001
   157   1      10.104180400000001      3.9985496299999999      6.4382941599999999
   158   1      8.2972575899999992      4.7130806700000001      9.6379863799999992
   159   2             11.90674372              3.04226383      8.1939540399999995
   160   2      12.108602490000001      2.7538908800000002             10.63910621
   161   1      10.274404669999999      4.0038886400000004             11.96044472
   162   1      8.2403771300000006      5.0118881100000001      14.594658430000001
   163   2             11.58620211      2.9946122800000001              13.3112178
   164   2             11.78864349      2.9144637599999998      15.967091679999999
   165   1      7.9868329400000002      6.8001082100000003              1.21398629
   166   1              6.24069261              7.66686318      3.8912243200000001
   167   2      9.9738561299999997      5.7557837599999999              2.81403019
   168   2             10.04097599      5.8885945499999996      5.3894097500000004
   169   1      8.4633914899999994      7.0088439200000003      6.6813607900000003
   170   1      6.4580127300000001      8.1663709000000004      9.4578240999999998
   171   2             10.00704605      5.5528135900000004      8.1677944599999996
   172   2      10.004096669999999              5.93089362             10.66707416
   173   1      8.3674667599999992      6.5377347200000004             12.04360451
   174   1      6.7193676599999996      7.6556509699999999             14.80635698
   175   2      10.094071509999999      5.7778166400000002             13.30398295
   176   2      9.7654648700000006      5.7954133299999997      16.137305189999999
   177   1      6.6461028100000004      9.7231133199999995      1.2662556599999999
   178   1      5.1014794800000001             10.61135623      4.2368396600000002
   179   2      8.4768036200000001      8.5641520199999999      2.6981473899999999
   180   2      8.4251047499999991      8.7909365200000007      5.3536445099999996
   181   1      6.6771560399999998      9.4390393100000001      6.7730579000000004
   182   1      4.8314849799999999             10.77633836      9.4826906300000005
   183   2      8.5575132299999996      8.8711953799999996      8.0543201300000007
   184   2      8.3201085399999997      8.4249109999999998             10.93282355
   185   1      6.7268339399999997      9.8546283599999995              12.3021917
   186   1      4.9619236200000003             10.75707323      14.762034249999999
   187   2      8.6161805400000002      8.8531640800000009      13.314186019999999
   188   2      8.3118551299999996      8.8711227200000007              15.9493712
