2
Lattice="2.6528336296738044 0.0 0.0 0.21888396216913725 2.6528336296738044 0.0 0.0 0.0 3.8250280122051756" Properties=species:S:1:pos:R:3:force:R:3:tags:I:1 config_type=FLD_TiAl spacegroup="P 1" virial="3.2206574209047862 -1.0390291093251616 -0.33120557735933454 -1.0390291093251616 3.8128948682436454 0.28301996877235036 -0.33120557735933454 0.28301996877235036 5.907614652718994" energy=-1703.55965232 unit_cell=conventional n_minim_iter=2 pbc="T T T"
Ti       1.15881220       1.45672135       1.94172192       2.09734000      -1.76382000      -0.57688000        0
Al       0.01735356      -0.06177919      -0.01343732      -2.09734000       1.76382000       0.57688000        1
