128
Lattice="14.2121085805106 0.0 0.0 0.0 14.2121085805106 0.0 0.0 0.0 14.2121085805106" Properties=species:S:1:pos:R:3:forces:R:3 energy=-910.5505164918723 stress="-0.0012385946229040603 -0.0005196772102028897 0.0001772044197334942 -0.0005196772102028897 -0.000741871353081157 0.0005564035148108677 0.0001772044197334942 0.0005564035148108677 -0.0014396711406327403" free_energy=-196470.4067773678 pbc="T T T"
Hf       0.11348227      -0.00397371       0.04902040      -0.59853919       0.57227588       0.44606043
Hf       1.82531227       1.79446915       1.81292073       0.06697210       0.04856120       0.31933950
Hf      -0.02614744       0.00671096       3.46632049       0.20201517      -0.07760258       0.20755282
Hf       1.70951059       1.83843289       5.25293177      -0.19557070      -0.66585221       0.15461612
Hf      -0.11094825       0.01135405       7.06707332       0.46938908      -0.55770904       0.55162401
Hf       1.80426840       1.84651389       8.85146893      -0.26822597       0.01903156       0.11618867
Hf      -0.04369797       0.06404260      10.65282527      -0.10085615      -0.07145841      -0.35280292
Hf       1.69047489       1.87914063      12.40726743       0.66300420      -0.15139992      -0.43293495
Hf       0.09042170       3.57438794      -0.11285409      -0.75097450       0.19810401       0.79658638
Hf       1.83533607       5.29059670       1.80155104      -0.56318961      -0.15576026       0.10516866
Hf      -0.04725952       3.49929969       3.63534510       0.03136977       0.16899733      -0.43428298
Hf       1.80242367       5.43923688       5.25603996      -0.09145285      -0.00930945      -0.01552484
Hf       0.07074930       3.52126308       7.10680043      -0.07755964       0.28043768      -0.09123611
Hf       1.72792095       5.29190279       8.95636992      -0.15411064      -0.04133691      -0.57287598
Hf      -0.08618791       3.62712766      10.69633706       0.16578833      -0.56231543       0.12985562
Hf       1.80555033       5.25847449      12.56901402       0.26961590       0.54222817      -0.75455450
Hf      -0.04397653       7.09160626      -0.00030556      -0.18786871      -0.35700384       0.43766706
Hf       1.84447445       8.93489685       1.73838675      -0.21136242      -0.04185216      -0.49391406
Hf       0.03641569       7.17362292       3.45429989      -0.08202668      -0.22902281      -0.01270176
Hf       1.69796041       8.65073995       5.42099279       0.87887557       1.13752340      -0.73213628
Hf      -0.03043665       7.13846358       7.03124886      -0.24775407      -1.13634275       0.74424952
Hf       1.63913933       8.94644418       8.97688794       1.10171873       0.18644715      -1.04220181
Hf       0.15413884       7.21666571      10.65536071      -0.74492006      -0.79872271       0.55282472
Hf       1.71340328       8.86753856      12.49876641       0.65389813      -0.19617543       0.12877267
Hf       0.06775054      10.66780199      -0.05448496      -0.52546664      -0.31414201       0.83226584
Hf       1.83651283      12.47027966       1.68833739       0.20000740      -0.27856334       0.67409697
Hf      -0.07965745      10.61190434       3.42957651       0.79385407       0.00318585       0.85783314
Hf       1.80552333      12.28998059       5.33047161      -0.27987641       0.41450091      -0.47372113
Hf       0.03406927      10.68544063       7.02858551       0.52261451      -0.14406688       0.26734691
Hf       1.79961251      12.41840404       8.97362626      -0.20100010       0.16505274      -0.51198737
Hf       0.01529365      10.59629376      10.72130063      -0.52789093      -0.07002528       0.38780386
Hf       1.62351596      12.46083003      12.54386143       0.52644546       0.27133520      -1.04815340
Hf       3.55794596      -0.06411509       0.01220536       0.22048032       0.25911501      -0.23328673
Hf       5.36192159       1.89066523       1.80550485      -0.23783758      -0.59506023      -0.33307150
Hf       3.52067754       0.04714725       3.65283026      -0.06763467      -0.53083947      -0.08667009
Hf       5.27717478       1.78756207       5.24124515       0.53162289       0.00137940       0.11773801
Hf       3.51016200       0.02227322       7.10687717       0.12141340      -0.34997625      -0.30622430
Hf       5.44528129       1.61908036       8.87980361      -0.60657363       0.40775356       0.07892438
Hf       3.54635882       0.10746486      10.63463661      -0.03286076      -0.05882298       0.17229811
Hf       5.28504971       1.76451855      12.50368664      -0.05903998       0.18870560      -0.20427003
Hf       3.51632864       3.57323676       0.04292767       0.41646600      -0.02886218      -0.24002611
Hf       5.37914950       5.34374004       1.69761932      -0.36210697      -0.03775151       0.10005062
Hf       3.57726021       3.56502074       3.61794379       0.08929750       0.11487175      -0.31547796
Hf       5.32090828       5.26170632       5.37711433       0.65966897       0.20238439       0.06566238
Hf       3.52791009       3.51422240       6.94803554      -0.03690022       0.32706155       0.82067865
Hf       5.48107022       5.33199089       8.86693454      -0.65606505      -0.07359346      -0.06777171
Hf       3.48735299       3.58189194      10.56226002       0.77310038      -0.21280507       0.52656244
Hf       5.49647330       5.47277177      12.46900199      -1.12106577      -0.18814150      -0.22975532
Hf       3.53401561       7.06728508       0.11851477       0.21758012      -0.00750454      -0.34896349
Hf       5.37751938       8.83808965       1.80646701      -0.28761131       0.31221163      -0.04850926
Hf       3.62716603       7.12560447       3.52239863      -0.11825969       0.26892376       0.09692288
Hf       5.39879348       8.90161635       5.36615253       0.18973919      -0.18646437      -0.43914493
Hf       3.65087609       7.00857912       7.07950607      -0.41192621       0.11894772       0.47881551
Hf       5.28160185       8.81115912       8.92637669       0.70432234       0.06983373      -0.35582217
Hf       3.55467006       7.12834172      10.66285191      -0.37145190      -0.28305532       0.08983126
Hf       5.31358194       8.95494018      12.49736367       0.10452897      -0.51132608      -0.40004051
Hf       3.53314441      10.75815404      -0.09831937      -0.30328193      -0.13883854       0.45183050
Hf       5.28290368      12.37260126       1.81275303       0.29818780       0.41325804      -0.36608550
Hf       3.62368975      10.62147620       3.41623418      -0.13629161      -0.22301672       1.04921398
Hf       5.46867300      12.40237705       5.40535521      -0.81646512       0.11247779      -0.52756029
Hf       3.64235593      10.69127470       7.05933767      -0.45243805      -0.28686338       0.59678184
Hf       5.36729661      12.47317324       8.90515801      -0.02082311       0.04771505      -0.23665590
Hf       3.55718703      10.64346517      10.65170535      -0.23102416      -0.23334561       0.25969016
Hf       5.30135953      12.34327315      12.43780641       0.61548944       0.41647012      -0.02665128
Hf       7.10846609       0.03985644      -0.05697919      -0.37404974      -0.19873676       0.05601508
Hf       8.95597767       1.66556817       1.77368821      -0.39076320       0.51661176      -0.23703874
Hf       7.16187519      -0.02413216       3.58271908      -0.24249462       0.04568542      -0.31776084
Hf       8.81564162       1.83880098       5.32027584      -0.09119497       0.10247234      -0.08735117
Hf       7.10008236       0.01425190       7.02321333       0.28265345       0.53336609       0.12717653
Hf       8.97525213       1.74540042       8.86016105      -0.23889379      -0.29837935       0.12709889
Hf       7.04843698       0.00627891      10.68364280       0.34904525      -0.29550357       0.92694825
Hf       8.85724331       1.87606087      12.50845196       0.09196245      -0.31711961       0.01956224
Hf       7.04207422       3.67697663      -0.07790509       0.40654900      -0.64462441       0.40456128
Hf       8.88176346       5.48067512       1.74319328       0.11122515      -0.80474063      -0.14490557
Hf       7.01600921       3.60613922       3.47203234       0.44748842       0.30860360       0.07447843
Hf       8.79283261       5.22464399       5.38335629       0.01591899      -0.17734518      -0.22361604
Hf       7.04526200       3.48530076       7.17774727       0.25770681      -0.44078581       0.02737582
Hf       8.86459949       5.29505077       8.92449643       0.40083318      -0.05479021      -0.69652599
Hf       7.24056337       3.53810301      10.72712901      -0.74859211      -0.14041977      -0.27954653
Hf       8.88969097       5.27605771      12.40935377       0.39508805       0.09982719       0.31724739
Hf       7.10266470       7.14194271       0.06756010       0.19002484       0.44034333       0.11688955
Hf       9.00231767       8.88706742       1.71175184      -0.27894155      -0.24227094       0.31024473
Hf       7.14590789       7.02314085       3.51648497       0.08793121       0.14480967       0.37175426
Hf       8.89177305       9.07978361       5.24300319      -0.27212530      -1.21244098      -0.41910344
Hf       7.23073001       7.10004825       7.14790184      -0.31053424       0.48488794      -0.29052540
Hf       8.88800542       8.78603638       8.92288761       0.02497930       0.38374666       0.30468035
Hf       7.16594554       6.91711426      10.58014170       0.01712252       0.80179929      -0.03342177
Hf       8.80146504       8.77023109      12.43647332       0.63199104       0.47911967      -0.29980965
Hf       7.15263448      10.50888645       0.02604511       0.11222762       0.34302681      -0.14045705
Hf       8.88300275      12.47280373       1.74682164       0.02070047       0.59169980      -0.34967929
Hf       7.15868599      10.77184173       3.54363010      -0.18954970      -0.06489233      -0.09714733
Hf       8.88393365      12.53332457       5.32580293      -0.02110979      -0.33109227       0.07901360
Hf       7.16859183      10.59438650       6.98673227      -0.02570255       0.03877686       1.04835703
Hf       8.77859776      12.46146389       8.91600185       0.13736839      -0.07763626      -0.01547110
Hf       7.17356181      10.70159980      10.78047416      -0.46602530      -0.15756723      -0.42028589
Hf       8.86835291      12.31076437      12.45243351       0.27614291       0.54253953       0.05836301
Hf      10.78646172       0.09206320      -0.00260082      -0.79583125      -0.70480365      -0.24624226
Hf      12.40385653       1.82912680       1.69041946       0.37027099       0.34200531       0.17641187
Hf      10.64787661       0.09817156       3.54196870       0.36639094      -0.12551457       0.25293819
Hf      12.51865057       1.80081628       5.36475548      -0.18140238      -0.09529717       0.42662546
Hf      10.63578210      -0.07119982       7.14744990       0.39861175      -0.10061524      -0.14712624
Hf      12.29390313       1.73287671       8.82663185       0.11653936       0.34009164      -0.21286214
Hf      10.72617396      -0.00399218      10.70309065      -0.11925985      -0.52010769       0.10845813
Hf      12.45341983       1.77388860      12.49746032       0.76849451      -0.00946912      -0.09268467
Hf      10.70119191       3.48509469      -0.08088822      -0.42045893       0.26646733       0.53104979
Hf      12.37301199       5.24391987       1.93153215       0.38149206      -0.03605098      -0.51871955
Hf      10.72099507       3.56325844       3.68346019      -0.49993661      -0.47587674      -0.18348318
Hf      12.44100272       5.24925510       5.28547181       0.01792805       0.62340047       0.05677587
Hf      10.59854354       3.52594171       7.07118346       0.14999970       0.27372041      -0.18773013
Hf      12.46869785       5.27409928       8.95357440       0.27634500       0.65844101      -0.37461616
Hf      10.72494035       3.51829844      10.63194626      -0.34901903      -0.23301085       0.09946878
Hf      12.28378695       5.27631779      12.38475545       0.60962656       0.47462693      -0.25172026
Hf      10.68151099       7.05674254      -0.05354128       0.44792808      -0.07563311       0.31448731
Hf      12.48962944       8.92754208       1.81799303      -0.79900193       0.00967275      -0.87320474
Hf      10.57857837       7.08938917       3.40152607       0.15073966       0.04340588       1.01194584
Hf      12.46038945       8.83171694       5.38191802      -0.27178463       0.54749225      -0.85223817
Hf      10.71875239       7.17563820       7.07207314      -0.42539930      -0.58014449       0.04902965
Hf      12.54418689       8.82773613       8.72566192      -0.30288135       0.63368925       0.55531740
Hf      10.63412639       7.06336538      10.67428981      -0.04718566       0.34133657      -0.06223767
Hf      12.38529836       8.87920244      12.49838695       0.09769909       0.10787655       0.09923353
Hf      10.62413244      10.75680674       0.06263418       0.20379155      -0.19039456      -0.25842981
Hf      12.39079702      12.43346746       1.85413442      -0.14754378       0.04840205      -0.27613057
Hf      10.58162544      10.74737416       3.55868072       0.53940305      -0.17794039      -0.08138570
Hf      12.46624484      12.33546786       5.36220299      -0.07620467       0.42379982      -0.63038153
Hf      10.57776117      10.60848207       6.97258554       0.14037966       0.20739598       1.00682549
Hf      12.46737755      12.25557165       8.95181778       0.36275103       0.68945263      -0.77536321
Hf      10.78990674      10.69694107      10.57291200      -0.68755438      -0.57298037       0.49633835
Hf      12.58343505      12.45147846      12.50113557      -0.23107301       0.00373041      -0.35730878
