LAMMPS (27 Jun 2024)
OMP_NUM_THREADS environment is not set. Defaulting to 1 thread. (src/comm.cpp:98)
  using 1 OpenMP thread(s) per MPI task
Reading data file ...
  orthogonal box = (0 0 0) to (22.422218 22.19224 20.321894)
  5 by 2 by 2 MPI processor grid
  reading atoms ...
  448 atoms
  read_data CPU = 0.005 seconds
**************** Begin of POD Potentials ****************
species: Hf 
periodic boundary conditions: 1 1 1
number of environment clusters: 8
number of principal compoments: 2
inner cut-off radius: 1
outer cut-off radius: 5
cut-off function type: 1
gaussian_exponents: 
polynomial_degrees: 
bessel polynomial degree: 4
inverse polynomial degree: 10
one-body potential: 1
two-body radial basis functions: 8
three-body radial basis functions: 8
three-body angular degree: 6
four-body radial basis functions: 7
four-body angular degree: 5
five-body radial basis functions: 0
five-body angular degree: 0
six-body radial basis functions: 0
six-body angular degree: 0
seven-body radial basis functions: 0
seven-body angular degree: 0
number of local descriptors per element for one-body potential: 1
number of local descriptors per element for two-body potential: 8
number of local descriptors per element for three-body potential: 56
number of local descriptors per element for four-body potential: 112
number of local descriptors per element for five-body potential: 0
number of local descriptors per element for six-body potential: 0
number of local descriptors per element for seven-body potential: 0
number of local descriptors per element for all potentials: 177
number of global descriptors: 1409
**************** End of POD Potentials ****************

**************** Begin of Model Coefficients ****************
total number of coefficients for POD potential: 1409
total number of elements for PCA projection matrix: 352
total number of elements for PCA centroids: 16
**************** End of Model Coefficients ****************


CITE-CITE-CITE-CITE-CITE-CITE-CITE-CITE-CITE-CITE-CITE-CITE-CITE

Your simulation uses code contributions which should be cited:
- Type Label Framework: https://doi.org/10.1021/acs.jpcb.3c08419
The log file lists these citations in BibTeX format.

CITE-CITE-CITE-CITE-CITE-CITE-CITE-CITE-CITE-CITE-CITE-CITE-CITE

Neighbor list info ...
  update: every = 1 steps, delay = 0 steps, check = no
  max neighbors/atom: 2000, page size: 100000
  master list distance cutoff = 7
  ghost atom cutoff = 7
  binsize = 3.5, bins = 7 7 6
  1 neighbor lists, perpetual/occasional/extra = 1 0 0
  (1) pair pod, perpetual
      attributes: full, newton on
      pair build: full/bin/atomonly
      stencil: full/bin/3d
      bin: standard
Setting up Verlet run ...
  Unit style    : metal
  Current step  : 0
  Time step     : 0.001
Per MPI rank memory allocation (min/avg/max) = 2.586 | 2.586 | 2.586 Mbytes
   Step          Temp          TotEng         PotEng         KinEng         Press          Volume    
         0   300           -3263.9145     -3281.2483      17.333785      1830.9177      10112.159    
       100   91.660651     -3263.045      -3268.3411      5.2960868      3889.8927      10112.159    
       200   162.2514      -3259.7576     -3269.1324      9.37477        4616.8825      10112.159    
       300   210.4449      -3255.8515     -3268.0109      12.159356      4891.8146      10112.159    
       400   298.21938     -3251.792      -3269.0229      17.230903      5193.6368      10112.159    
       500   297.05909     -3248.0987     -3265.2625      17.163862      6284.6209      10112.159    
       600   298.34577     -3245.0022     -3262.2404      17.238205      7692.9345      10112.159    
       700   297.58345     -3243.9443     -3261.1385      17.194159      7987.1122      10112.159    
       800   297.69102     -3245.4225     -3262.6228      17.200374      7322.566       10112.159    
       900   307.34094     -3246.9225     -3264.6805      17.75794       6488.5307      10112.159    
      1000   302.91406     -3248.0729     -3265.5751      17.502157      6141.8757      10112.159    
      1100   293.31737     -3247.8583     -3264.806       16.947668      6600.8648      10112.159    
      1200   278.49925     -3246.7717     -3262.8632      16.091487      7340.9611      10112.159    
      1300   307.16914     -3245.4992     -3263.2472      17.748013      7148.8893      10112.159    
      1400   308.21388     -3245.0296     -3262.838       17.808377      7062.4872      10112.159    
      1500   318.26622     -3245.3373     -3263.7265      18.389195      7261.5513      10112.159    
      1600   310.79863     -3246.495      -3264.4527      17.957722      6842.5402      10112.159    
      1700   274.89753     -3247.9409     -3263.8242      15.883382      7058.1345      10112.159    
      1800   279.97668     -3247.811      -3263.9879      16.176852      6582.8204      10112.159    
      1900   318.30404     -3246.4187     -3264.81        18.39138       6690.5959      10112.159    
      2000   302.30291     -3245.6085     -3263.0754      17.466846      6749.1601      10112.159    
      2100   323.27056     -3245.0282     -3263.7065      18.678342      7342.7648      10112.159    
      2200   292.5936      -3245.9804     -3262.8863      16.905849      7220.9729      10112.159    
      2300   279.43241     -3247.0562     -3263.2016      16.145405      6997.9275      10112.159    
      2400   323.27724     -3247.258      -3265.9367      18.678728      6208.7997      10112.159    
      2500   283.64865     -3247.5328     -3263.9218      16.389016      6798.0299      10112.159    
      2600   298.82139     -3246.2282     -3263.4939      17.265686      6854.7757      10112.159    
      2700   287.12017     -3245.7435     -3262.3331      16.589598      7563.5516      10112.159    
      2800   298.024       -3245.9876     -3263.2072      17.219614      7063.6956      10112.159    
      2900   312.0161      -3247.1205     -3265.1485      18.028067      6442.2601      10112.159    
      3000   294.78653     -3248.3444     -3265.3769      17.032555      6281.6735      10112.159    
      3100   277.12732     -3248.0872     -3264.0994      16.012218      6856.1102      10112.159    
      3200   288.70313     -3246.0147     -3262.6957      16.68106       6999.4597      10112.159    
      3300   314.4761      -3245.5783     -3263.7485      18.170204      7216.4665      10112.159    
      3400   299.84571     -3246.1398     -3263.4647      17.324871      6691.8181      10112.159    
      3500   312.33329     -3246.7532     -3264.7996      18.046394      6660.7338      10112.159    
      3600   269.58899     -3247.9518     -3263.5284      15.576659      6519.9953      10112.159    
      3700   293.23586     -3247.4057     -3264.3486      16.942958      6854.6491      10112.159    
      3800   287.58715     -3246.0424     -3262.659       16.61658       7172.1424      10112.159    
      3900   339.28494     -3244.3278     -3263.9314      19.603641      6959.424       10112.159    
      4000   297.92533     -3245.5474     -3262.7613      17.213912      7149.6738      10112.159    
      4100   290.1216      -3246.7274     -3263.4904      16.763019      7001.3953      10112.159    
      4200   287.08786     -3247.2044     -3263.7921      16.587731      6708.5889      10112.159    
      4300   293.71966     -3247.3039     -3264.2748      16.970912      6680.9367      10112.159    
      4400   330.78849     -3246.5484     -3265.6612      19.112722      6248.024       10112.159    
      4500   289.4821      -3245.7264     -3262.4525      16.726069      7375.9435      10112.159    
      4600   294.75338     -3245.2967     -3262.3273      17.030639      7205.8759      10112.159    
      4700   316.67204     -3246.173      -3264.4701      18.297084      6972.1849      10112.159    
      4800   304.35554     -3247.5605     -3265.146       17.585446      6508.02        10112.159    
      4900   289.80918     -3247.4731     -3264.218       16.744967      6627.9163      10112.159    
      5000   303.57788     -3246.0905     -3263.6311      17.540513      6957.575       10112.159    
      5100   289.41209     -3246.0348     -3262.7568      16.722024      7091.1766      10112.159    
      5200   308.93008     -3246.0312     -3263.881       17.849759      6965.2555      10112.159    
      5300   313.80349     -3246.7614     -3264.8928      18.131341      6588.4658      10112.159    
      5400   283.90743     -3248.0036     -3264.4075      16.403969      6568.4119      10112.159    
      5500   294.36148     -3247.2586     -3264.2666      17.007996      6926.1459      10112.159    
      5600   287.45465     -3246.5778     -3263.1867      16.608924      7175.9478      10112.159    
      5700   321.62457     -3245.8579     -3264.4411      18.583238      6845.0535      10112.159    
      5800   300.91679     -3246.1453     -3263.5321      17.386757      6988.4695      10112.159    
      5900   293.49209     -3246.6302     -3263.5879      16.957763      6986.9302      10112.159    
      6000   308.04313     -3246.494      -3264.2925      17.798512      6968.7362      10112.159    
      6100   288.99661     -3246.4392     -3263.1372      16.698018      7022.4818      10112.159    
      6200   311.2641      -3245.8586     -3263.8432      17.984617      6846.7666      10112.159    
      6300   299.72672     -3246.3106     -3263.6286      17.317996      6970.1827      10112.159    
      6400   287.3917      -3247.8911     -3264.4963      16.605287      6444.24        10112.159    
      6500   297.17542     -3247.8874     -3265.058       17.170583      6475.8433      10112.159    
      6600   284.33873     -3246.7277     -3263.1566      16.428888      7299.1705      10112.159    
      6700   298.57436     -3245.9811     -3263.2325      17.251413      7260.2781      10112.159    
      6800   302.84231     -3246.2073     -3263.7053      17.498012      7127.3834      10112.159    
      6900   302.84902     -3246.7542     -3264.2526      17.4984        6684.5658      10112.159    
      7000   280.92853     -3247.8293     -3264.0611      16.23185       6725.7763      10112.159    
      7100   290.46419     -3247.7969     -3264.5797      16.782813      6560.1166      10112.159    
      7200   293.37395     -3246.1806     -3263.1315      16.950937      7249.9884      10112.159    
      7300   310.55962     -3245.2509     -3263.1948      17.943913      7079.6224      10112.159    
      7400   322.29001     -3245.7123     -3264.334       18.621686      7010.8357      10112.159    
      7500   291.30933     -3246.3751     -3263.2067      16.831645      6964.4059      10112.159    
      7600   286.85373     -3246.7259     -3263.3001      16.574203      7165.6755      10112.159    
      7700   305.21735     -3246.7268     -3264.3621      17.63524       6964.8633      10112.159    
      7800   307.15899     -3246.2135     -3263.9609      17.747427      6860.7415      10112.159    
      7900   313.95064     -3245.0048     -3263.1447      18.139843      7094.712       10112.159    
      8000   294.64716     -3245.157      -3262.1815      17.024502      7710.9731      10112.159    
      8100   296.32399     -3246.233      -3263.3544      17.121388      6952.8838      10112.159    
      8200   294.82945     -3247.2271     -3264.2621      17.035035      6773.3236      10112.159    
      8300   311.96367     -3247.0616     -3265.0866      18.025038      6522.7636      10112.159    
      8400   285.18984     -3247.1093     -3263.5873      16.478065      7180.2378      10112.159    
      8500   296.75176     -3246.7872     -3263.9333      17.146104      6824.6034      10112.159    
      8600   297.41727     -3246.0881     -3263.2726      17.184557      7111.9234      10112.159    
      8700   318.06062     -3245.1167     -3263.494       18.377315      6996.4519      10112.159    
      8800   304.01416     -3245.5782     -3263.1439      17.565721      7209.8414      10112.159    
      8900   294.72947     -3247.9806     -3265.0098      17.029258      6496.6655      10112.159    
      9000   281.45919     -3248.5142     -3264.7767      16.262511      6495.3033      10112.159    
      9100   296.94055     -3247.3516     -3264.5086      17.157013      6752.5002      10112.159    
      9200   300.46782     -3245.9528     -3263.3136      17.360816      6908.6202      10112.159    
      9300   312.49033     -3245.5332     -3263.5887      18.055468      6926.6296      10112.159    
      9400   300.48399     -3246.0603     -3263.4221      17.36175       7089.4781      10112.159    
      9500   298.33357     -3247.1859     -3264.4234      17.2375        6690.795       10112.159    
      9600   285.36774     -3248.2081     -3264.6965      16.488344      6491.9079      10112.159    
      9700   287.19901     -3247.6542     -3264.2484      16.594153      6901.639       10112.159    
      9800   295.30912     -3246.8796     -3263.9424      17.06275       6628.312       10112.159    
      9900   309.09896     -3246.2209     -3264.0804      17.859517      6862.3065      10112.159    
     10000   297.74079     -3246.0675     -3263.2707      17.20325       7191.114       10112.159    
     10100   301.76065     -3246.1404     -3263.5759      17.435515      6957.5055      10112.159    
     10200   292.95827     -3247.5211     -3264.4481      16.926919      6508.887       10112.159    
     10300   288.85113     -3248.6134     -3265.303       16.689612      6207.9471      10112.159    
     10400   284.89438     -3248.1232     -3264.5842      16.460993      6529.2204      10112.159    
     10500   294.2998      -3246.5058     -3263.5102      17.004432      6784.5125      10112.159    
     10600   302.98997     -3246.1811     -3263.6877      17.506544      7103.5799      10112.159    
     10700   300.03846     -3246.2737     -3263.6097      17.336008      6966.9146      10112.159    
     10800   300.64114     -3246.6892     -3264.06        17.37083       6778.7501      10112.159    
     10900   289.1         -3247.5647     -3264.2687      16.703991      6591.0722      10112.159    
     11000   295.43333     -3247.3137     -3264.3837      17.069927      6618.9344      10112.159    
     11100   293.18801     -3245.7477     -3262.6879      16.940193      7051.7618      10112.159    
     11200   315.04601     -3244.6398     -3262.8429      18.203133      7353.8094      10112.159    
     11300   321.74938     -3245.4216     -3264.012       18.590449      6955.4197      10112.159    
     11400   297.60499     -3246.4827     -3263.6781      17.195403      7008.2597      10112.159    
     11500   297.7696      -3246.6822     -3263.8871      17.204915      6902.6885      10112.159    
     11600   283.63175     -3247.0304     -3263.4185      16.38804       6853.064       10112.159    
     11700   318.26547     -3246.4734     -3264.8625      18.389151      6469.5134      10112.159    
     11800   293.48512     -3245.3682     -3262.3255      16.95736       7532.4009      10112.159    
     11900   315.00538     -3244.6804     -3262.8812      18.200786      7207.731       10112.159    
     12000   299.51739     -3245.8563     -3263.1622      17.305901      7121.5464      10112.159    
     12100   291.10231     -3246.6654     -3263.4851      16.819683      6814.4474      10112.159    
     12200   307.62489     -3246.5975     -3264.3718      17.774346      6619.9137      10112.159    
     12300   293.25469     -3246.6407     -3263.5847      16.944046      6710.8558      10112.159    
     12400   310.27211     -3245.7232     -3263.6505      17.927301      7055.4363      10112.159    
     12500   301.71461     -3244.6263     -3262.0591      17.432854      7231.0963      10112.159    
     12600   308.43415     -3245.0151     -3262.8362      17.821104      7236.8323      10112.159    
     12700   290.85039     -3246.765      -3263.5701      16.805128      6789.5808      10112.159    
     12800   307.25236     -3247.0235     -3264.7763      17.752822      6662.6371      10112.159    
     12900   283.20155     -3246.9518     -3263.315       16.363183      7022.0212      10112.159    
     13000   310.99512     -3245.801      -3263.7701      17.969076      6947.4919      10112.159    
     13100   289.10612     -3246.0608     -3262.7652      16.704345      7072.4421      10112.159    
     13200   311.0013      -3246.1532     -3264.1226      17.969432      6742.3583      10112.159    
     13300   289.94036     -3247.4588     -3264.2113      16.752547      6467.2614      10112.159    
     13400   294.68091     -3247.9359     -3264.9623      17.026453      6558.0409      10112.159    
     13500   290.8062      -3247.3599     -3264.1625      16.802574      6533.74        10112.159    
     13600   309.67342     -3245.9966     -3263.8893      17.892709      7171.1943      10112.159    
     13700   299.17329     -3245.6849     -3262.9709      17.286019      7305.0772      10112.159    
     13800   296.32769     -3245.9501     -3263.0717      17.121602      7088.3727      10112.159    
     13900   305.4344      -3247.2495     -3264.8973      17.647781      6417.9991      10112.159    
     14000   289.70186     -3248.8207     -3265.5595      16.738767      6262.7974      10112.159    
     14100   284.23553     -3248.2765     -3264.6994      16.422926      6666.698       10112.159    
     14200   289.13779     -3246.8724     -3263.5786      16.706175      6834.7971      10112.159    
     14300   313.43737     -3246.1029     -3264.2131      18.110187      6826.7091      10112.159    
     14400   306.72465     -3246.1484     -3263.8707      17.722331      6868.4938      10112.159    
     14500   300.93011     -3246.4467     -3263.8342      17.387526      6732.4449      10112.159    
     14600   286.25947     -3247.1993     -3263.7392      16.539868      6854.6128      10112.159    
     14700   277.0127      -3248.0294     -3264.035       16.005596      6734.641       10112.159    
     14800   304.55826     -3247.7868     -3265.384       17.597158      6313.8701      10112.159    
     14900   309.97514     -3246.1496     -3264.0598      17.910142      6715.208       10112.159    
     15000   298.415       -3245.4791     -3262.7213      17.242205      7218.218       10112.159    
     15100   294.73654     -3246.0052     -3263.0349      17.029667      7210.8014      10112.159    
     15200   310.34517     -3246.6109     -3264.5425      17.931522      6402.4945      10112.159    
     15300   305.93951     -3247.0136     -3264.6906      17.676966      6668.5396      10112.159    
     15400   283.68295     -3247.4316     -3263.8226      16.390998      6694.7736      10112.159    
     15500   296.42389     -3247.2459     -3264.3731      17.12716       6558.7747      10112.159    
     15600   303.4415      -3246.3153     -3263.8479      17.532633      6729.7195      10112.159    
     15700   309.9232      -3245.3563     -3263.2635      17.907141      7304.8035      10112.159    
     15800   292.86404     -3245.6743     -3262.5958      16.921475      7133.0448      10112.159    
     15900   320.64697     -3246.4561     -3264.9828      18.526753      6642.0065      10112.159    
     16000   273.14759     -3248.3912     -3264.1735      15.782272      6611.4415      10112.159    
     16100   307.90757     -3247.4592     -3265.2499      17.790679      6431.2816      10112.159    
     16200   270.04315     -3247.1988     -3262.8017      15.6029        7321.0686      10112.159    
     16300   314.40501     -3245.871      -3264.0371      18.166096      7129.4788      10112.159    
     16400   322.88524     -3245.7687     -3264.4247      18.656078      6708.4071      10112.159    
     16500   293.67827     -3246.3762     -3263.3447      16.968521      7140.9781      10112.159    
     16600   294.48824     -3246.5806     -3263.5959      17.01532       6955.0302      10112.159    
     16700   278.98992     -3247.9857     -3264.1056      16.119838      6586.7475      10112.159    
     16800   288.52322     -3248.9009     -3265.5716      16.670666      6088.9822      10112.159    
     16900   297.69073     -3247.8977     -3265.098       17.200358      6269.4166      10112.159    
     17000   295.65163     -3246.7398     -3263.8224      17.08254       6815.7201      10112.159    
     17100   295.73339     -3246.3048     -3263.3921      17.087264      6995.8317      10112.159    
     17200   294.35019     -3246.0391     -3263.0464      17.007343      7130.7946      10112.159    
     17300   302.17124     -3246.0339     -3263.4932      17.459238      7117.7863      10112.159    
     17400   313.39283     -3246.5279     -3264.6355      18.107613      6612.5977      10112.159    
     17500   297.12062     -3247.5045     -3264.6719      17.167417      6936.3239      10112.159    
     17600   271.98099     -3248.267      -3263.9819      15.714867      6661.9154      10112.159    
     17700   291.44306     -3247.1449     -3263.9842      16.839371      6960.3225      10112.159    
     17800   320.79744     -3245.6905     -3264.226       18.535446      6953.5486      10112.159    
     17900   301.41904     -3245.7976     -3263.2133      17.415777      7012.2958      10112.159    
     18000   299.31472     -3246.0843     -3263.3785      17.29419       7213.5956      10112.159    
     18100   278.38522     -3247.2068     -3263.2917      16.084899      6994.278       10112.159    
     18200   296.25714     -3247.7206     -3264.8381      17.117526      6422.0155      10112.159    
     18300   302.42652     -3247.3518     -3264.8258      17.473988      6638.8216      10112.159    
     18400   302.7531      -3245.422      -3262.9148      17.492857      7337.7709      10112.159    
     18500   318.9303      -3244.9156     -3263.3431      18.427565      7081.3057      10112.159    
     18600   295.03219     -3245.9649     -3263.0116      17.046749      7236.2477      10112.159    
     18700   297.72059     -3246.896      -3264.0981      17.202082      7034.8691      10112.159    
     18800   313.1575      -3246.9647     -3265.0587      18.094016      6419.6477      10112.159    
     18900   293.32931     -3246.9069     -3263.8553      16.948358      6770.4873      10112.159    
     19000   295.88927     -3246.4215     -3263.5178      17.09627       6954.467       10112.159    
     19100   298.43594     -3246.1836     -3263.427       17.243415      7218.498       10112.159    
     19200   295.75087     -3246.4575     -3263.5458      17.088273      6812.6334      10112.159    
     19300   315.23652     -3246.3688     -3264.5829      18.214141      6574.9576      10112.159    
     19400   312.03357     -3246.3555     -3264.3845      18.029077      6728.0632      10112.159    
     19500   289.07813     -3246.5979     -3263.3007      16.702728      6826.4595      10112.159    
     19600   300.88929     -3246.4626     -3263.8478      17.385168      6855.025       10112.159    
     19700   275.08347     -3247.0292     -3262.9233      15.894126      7261.0997      10112.159    
     19800   326.38793     -3246.6679     -3265.5263      18.858461      6641.7529      10112.159    
     19900   302.42719     -3246.4696     -3263.9436      17.474027      6827.4071      10112.159    
     20000   320.59186     -3245.1839     -3263.7075      18.523568      7103.8671      10112.159    
     20100   287.44986     -3245.2281     -3261.8368      16.608647      7658.2876      10112.159    
     20200   301.88318     -3246.3676     -3263.8102      17.442594      6653.1285      10112.159    
     20300   309.49037     -3247.3367     -3265.2188      17.882132      6524.3077      10112.159    
     20400   293.26843     -3247.4561     -3264.4009      16.94484       6823.416       10112.159    
     20500   276.51344     -3246.616      -3262.5927      15.976749      6996.8016      10112.159    
     20600   309.94658     -3245.662      -3263.5704      17.908492      7075.8367      10112.159    
     20700   304.77103     -3246.0526     -3263.6621      17.609452      7140.059       10112.159    
     20800   292.01817     -3246.9044     -3263.777       16.872601      6807.5768      10112.159    
     20900   288.67958     -3247.7638     -3264.4435      16.6797        6694.4477      10112.159    
     21000   286.00914     -3248.4193     -3264.9447      16.525403      6771.1031      10112.159    
     21100   279.33926     -3247.9742     -3264.1143      16.140023      6734.6425      10112.159    
     21200   302.24674     -3246.3648     -3263.8284      17.4636        6931.6715      10112.159    
     21300   296.86504     -3245.7303     -3262.8829      17.15265       7101.7931      10112.159    
     21400   318.81049     -3245.6802     -3264.1009      18.420642      6895.745       10112.159    
     21500   291.18409     -3246.9342     -3263.7586      16.824409      6819.6525      10112.159    
     21600   292.55201     -3247.0849     -3263.9883      16.903446      6877.0603      10112.159    
     21700   293.23106     -3246.6787     -3263.6214      16.942681      6804.4198      10112.159    
     21800   309.95866     -3245.7154     -3263.6246      17.909189      6869.3885      10112.159    
     21900   332.03278     -3243.3511     -3262.5357      19.184617      7745.444       10112.159    
     22000   321.4525      -3243.7685     -3262.3418      18.573295      7503.2448      10112.159    
     22100   299.28423     -3245.6415     -3262.9339      17.292429      7117.36        10112.159    
     22200   303.54614     -3246.3878     -3263.9264      17.538679      6837.0274      10112.159    
     22300   288.73733     -3247.1722     -3263.8552      16.683036      6917.77        10112.159    
     22400   291.21709     -3247.3238     -3264.1501      16.826315      6619.8081      10112.159    
     22500   291.88819     -3246.4887     -3263.3538      16.865091      7168.3056      10112.159    
     22600   315.36274     -3245.1088     -3263.3303      18.221433      7193.8434      10112.159    
     22700   307.65783     -3245.3959     -3263.1722      17.77625       6777.9326      10112.159    
     22800   321.25838     -3246.0532     -3264.6152      18.56208       6688.8465      10112.159    
     22900   280.77042     -3248.0545     -3264.2772      16.222714      6585.4483      10112.159    
     23000   286.00093     -3247.7948     -3264.3197      16.524929      6550.2651      10112.159    
     23100   295.93573     -3246.8042     -3263.9032      17.098955      6853.0224      10112.159    
     23200   312.55802     -3245.702      -3263.7614      18.059379      6711.1809      10112.159    
     23300   309.93742     -3245.7089     -3263.6169      17.907962      7017.5108      10112.159    
     23400   289.67365     -3246.1701     -3262.9073      16.737137      7283.1509      10112.159    
     23500   315.40356     -3246.2035     -3264.4273      18.223792      6743.0949      10112.159    
     23600   290.13409     -3246.7876     -3263.5514      16.76374       7075.3167      10112.159    
     23700   297.78152     -3246.4905     -3263.6961      17.205603      6628.2374      10112.159    
     23800   307.51071     -3246.3191     -3264.0868      17.767749      6759.4261      10112.159    
     23900   292.46978     -3246.7765     -3263.6752      16.898695      6668.1527      10112.159    
     24000   321.46962     -3246.3398     -3264.9141      18.574285      6560.5371      10112.159    
     24100   296.82786     -3245.2849     -3262.4354      17.150502      7485.9366      10112.159    
     24200   317.91702     -3244.6225     -3262.9915      18.369018      7332.0116      10112.159    
     24300   304.58933     -3245.8692     -3263.4681      17.598954      6858.9558      10112.159    
     24400   298.40051     -3246.8166     -3264.058       17.241368      6682.6699      10112.159    
     24500   303.51387     -3247.0233     -3264.5601      17.536814      6595.1613      10112.159    
     24600   295.6092      -3246.9478     -3264.0279      17.080088      6620.8579      10112.159    
     24700   314.42316     -3245.2328     -3263.3999      18.167145      7546.3706      10112.159    
     24800   306.67338     -3244.6417     -3262.3611      17.719369      7523.6281      10112.159    
     24900   307.68215     -3245.401      -3263.1787      17.777655      7196.525       10112.159    
     25000   289.03159     -3246.2552     -3262.9553      16.700038      7208.1663      10112.159    
     25100   306.21158     -3246.4631     -3264.1558      17.692686      6848.7242      10112.159    
     25200   295.25315     -3247.0686     -3264.1281      17.059516      6671.9837      10112.159    
     25300   292.93246     -3247.3476     -3264.273       16.925428      6627.6633      10112.159    
     25400   300.22166     -3246.484      -3263.8306      17.346593      6907.0406      10112.159    
     25500   296.53865     -3245.7979     -3262.9317      17.133791      6998.641       10112.159    
     25600   319.9131      -3245.2515     -3263.7358      18.48435       7146.4689      10112.159    
     25700   295.83021     -3245.6276     -3262.7205      17.092858      7189.4205      10112.159    
     25800   286.37045     -3247.2066     -3263.7529      16.54628       7022.0578      10112.159    
     25900   300.35981     -3247.6577     -3265.0123      17.354575      6361.8884      10112.159    
     26000   292.71307     -3247.2488     -3264.1616      16.912752      6649.1198      10112.159    
     26100   311.26835     -3245.8811     -3263.8659      17.984862      6965.4382      10112.159    
     26200   300.57184     -3245.6585     -3263.0253      17.366826      7127.4827      10112.159    
     26300   296.68943     -3245.7618     -3262.9043      17.142503      7183.9371      10112.159    
     26400   316.65841     -3245.9637     -3264.26        18.296297      6656.2848      10112.159    
     26500   283.55539     -3247.2526     -3263.6363      16.383627      6810.6587      10112.159    
     26600   299.45614     -3247.329      -3264.6314      17.302362      6576.968       10112.159    
     26700   298.07848     -3247.0106     -3264.2333      17.222761      6696.9029      10112.159    
     26800   300.24199     -3246.4237     -3263.7714      17.347767      6931.2775      10112.159    
     26900   292.82188     -3246.3145     -3263.2335      16.919039      7041.0245      10112.159    
     27000   307.23772     -3246.172      -3263.924       17.751976      6785.3066      10112.159    
     27100   296.78594     -3246.8647     -3264.0128      17.14808       6803.4693      10112.159    
     27200   291.37107     -3247.2532     -3264.0884      16.835212      6516.014       10112.159    
     27300   312.90391     -3246.2959     -3264.3753      18.079364      6877.44        10112.159    
     27400   288.93516     -3245.3929     -3262.0874      16.694467      7101.2263      10112.159    
     27500   330.92485     -3243.8214     -3262.942       19.120601      7454.684       10112.159    
     27600   302.33943     -3244.8654     -3262.3343      17.468956      7115.3723      10112.159    
     27700   311.08662     -3245.5231     -3263.4975      17.974363      7237.0671      10112.159    
     27800   305.6368      -3246.5607     -3264.2202      17.659476      6825.4562      10112.159    
     27900   283.59303     -3247.4147     -3263.8005      16.385803      6882.7025      10112.159    
     28000   293.46903     -3246.9572     -3263.9136      16.956431      6740.3339      10112.159    
     28100   303.72786     -3245.9342     -3263.4834      17.549179      6886.561       10112.159    
     28200   328.03431     -3243.8366     -3262.7902      18.953588      7217.0866      10112.159    
     28300   318.92667     -3244.1697     -3262.597       18.427355      7474.1572      10112.159    
     28400   302.24794     -3245.6008     -3263.0645      17.46367       7126.9906      10112.159    
     28500   298.22742     -3246.6426     -3263.874       17.231367      6798.3749      10112.159    
     28600   293.56986     -3247.1413     -3264.1035      16.962257      6835.3748      10112.159    
     28700   307.52075     -3247.0044     -3264.7728      17.768329      6352.0564      10112.159    
     28800   297.25143     -3246.5617     -3263.7367      17.174975      6595.2452      10112.159    
     28900   311.39516     -3245.1589     -3263.1511      17.992189      7284.0744      10112.159    
     29000   295.2038      -3245.3739     -3262.4306      17.056665      7216.0976      10112.159    
     29100   318.86996     -3246.2484     -3264.6725      18.424078      6648.4443      10112.159    
     29200   285.35519     -3247.7592     -3264.2468      16.487619      6582.9438      10112.159    
     29300   298.71036     -3247.2276     -3264.4868      17.259271      6652.8165      10112.159    
     29400   302.95009     -3246.5399     -3264.0441      17.50424       6711.7837      10112.159    
     29500   283.57734     -3246.2903     -3262.6752      16.384896      7254.2985      10112.159    
     29600   317.37295     -3244.9271     -3263.2647      18.337582      7069.9294      10112.159    
     29700   329.67622     -3243.9942     -3263.0426      19.048456      7336.9221      10112.159    
     29800   300.11319     -3245.7449     -3263.0853      17.340326      7065.3707      10112.159    
     29900   298.5099      -3246.6487     -3263.8963      17.247689      6926.4844      10112.159    
     30000   291.63745     -3247.0999     -3263.9505      16.850603      6792.373       10112.159    
     30100   299.13344     -3246.9713     -3264.255       17.283717      6727.2172      10112.159    
     30200   301.70982     -3246.0447     -3263.4773      17.432578      7138.4028      10112.159    
     30300   316.48729     -3244.6763     -3262.9627      18.286409      7336.5322      10112.159    
     30400   313.76751     -3244.4305     -3262.5597      18.129262      7526.5234      10112.159    
     30500   299.08558     -3246.4937     -3263.7746      17.280951      6845.9454      10112.159    
     30600   293.5384      -3247.1405     -3264.1009      16.960439      6680.1156      10112.159    
     30700   291.44699     -3247.0339     -3263.8735      16.839599      6688.6134      10112.159    
     30800   312.82706     -3246.0367     -3264.1116      18.074924      6852.8458      10112.159    
     30900   286.50309     -3245.7257     -3262.2797      16.553943      7027.2579      10112.159    
     31000   320.64677     -3245.3673     -3263.8941      18.526741      7017.5109      10112.159    
     31100   300.55123     -3246.4491     -3263.8148      17.365635      6898.457       10112.159    
     31200   293.11156     -3247.2555     -3264.1913      16.935776      6782.1979      10112.159    
     31300   279.82364     -3247.9743     -3264.1423      16.16801       6605.3987      10112.159    
     31400   283.82915     -3247.7656     -3264.1651      16.399445      6783.3979      10112.159    
     31500   311.53562     -3246.0966     -3264.0969      18.000305      6745.4855      10112.159    
     31600   295.17204     -3245.9638     -3263.0187      17.054829      6901.5259      10112.159    
     31700   317.25414     -3245.4709     -3263.8016      18.330717      7114.5966      10112.159    
     31800   289.48988     -3246.3054     -3263.0319      16.726518      6949.817       10112.159    
     31900   282.07332     -3247.7667     -3264.0647      16.297995      6593.7025      10112.159    
     32000   306.65469     -3247.8885     -3265.6068      17.718288      6350.5466      10112.159    
     32100   289.91298     -3247.5005     -3264.2514      16.750965      6676.321       10112.159    
     32200   288.0993      -3246.7963     -3263.4424      16.646172      6935.2975      10112.159    
     32300   314.04799     -3246.1708     -3264.3163      18.145468      6682.2373      10112.159    
     32400   298.50881     -3246.3751     -3263.6228      17.247626      7010.8394      10112.159    
     32500   295.76905     -3246.4692     -3263.5585      17.089324      6877.8412      10112.159    
     32600   321.40737     -3245.8275     -3264.3982      18.570688      6811.3611      10112.159    
     32700   284.69576     -3246.5185     -3262.9681      16.449517      6845.8441      10112.159    
     32800   295.28178     -3247.0476     -3264.1088      17.06117       6707.7202      10112.159    
     32900   289.01148     -3247.5755     -3264.2744      16.698877      6506.2036      10112.159    
     33000   290.67202     -3247.1326     -3263.9274      16.794822      6794.8072      10112.159    
     33100   294.59891     -3245.6488     -3262.6705      17.021714      7131.4431      10112.159    
     33200   325.99122     -3244.9833     -3263.8188      18.835539      6879.0145      10112.159    
     33300   304.21086     -3245.8362     -3263.4133      17.577086      6806.1735      10112.159    
     33400   292.49711     -3246.506      -3263.4063      16.900274      7062.6863      10112.159    
     33500   287.89274     -3246.8136     -3263.4479      16.634237      6943.4212      10112.159    
     33600   315.08461     -3246.4872     -3264.6926      18.205364      6619.5199      10112.159    
     33700   287.22958     -3246.7216     -3263.3176      16.59592       6978.1807      10112.159    
     33800   293.19222     -3246.4927     -3263.4332      16.940437      6988.7002      10112.159    
     33900   303.62857     -3245.9111     -3263.4546      17.543441      6799.6984      10112.159    
     34000   318.16138     -3244.3675     -3262.7506      18.383137      7429.4039      10112.159    
     34100   317.30506     -3244.4101     -3262.7438      18.333659      7092.882       10112.159    
     34200   304.26841     -3246.0111     -3263.5915      17.580411      6851.1289      10112.159    
     34300   291.67859     -3246.9354     -3263.7883      16.85298       6851.4443      10112.159    
     34400   303.01502     -3246.8539     -3264.3619      17.507991      6750.9952      10112.159    
     34500   303.72877     -3246.3139     -3263.8631      17.549231      6830.0982      10112.159    
     34600   306.20295     -3245.0924     -3262.7846      17.692187      7178.4232      10112.159    
     34700   312.96747     -3244.2497     -3262.3327      18.083036      7196.898       10112.159    
     34800   301.26579     -3245.6919     -3263.0989      17.406922      6836.0642      10112.159    
     34900   306.28857     -3247.0858     -3264.7829      17.697134      6651.7957      10112.159    
     35000   284.06662     -3247.5702     -3263.9834      16.413166      6571.3893      10112.159    
     35100   304.72051     -3246.5517     -3264.1583      17.606533      7069.9336      10112.159    
     35200   295.96408     -3245.9534     -3263.054       17.100593      6996.1565      10112.159    
     35300   303.45828     -3245.9081     -3263.4417      17.533602      7106.3927      10112.159    
     35400   300.28725     -3246.5942     -3263.9446      17.350382      6836.5959      10112.159    
     35500   283.00971     -3248.5518     -3264.9039      16.352099      6463.1631      10112.159    
     35600   296.38058     -3247.9246     -3265.0493      17.124658      6401.033       10112.159    
     35700   288.75521     -3246.8298     -3263.5139      16.684069      6947.1493      10112.159    
     35800   298.78986     -3245.9799     -3263.2437      17.263864      7128.8648      10112.159    
     35900   307.77244     -3245.8193     -3263.6022      17.782871      6803.459       10112.159    
     36000   294.08063     -3246.741      -3263.7328      16.991768      6996.0409      10112.159    
     36100   296.0138      -3248.3746     -3265.4781      17.103466      6415.8417      10112.159    
     36200   265.08294     -3248.5441     -3263.8604      15.316303      6771.4375      10112.159    
     36300   296.93434     -3247.3731     -3264.5298      17.156654      6831.0609      10112.159    
     36400   301.97038     -3246.7668     -3264.2145      17.447633      6568.9273      10112.159    
     36500   315.58168     -3245.8078     -3264.0419      18.234084      6709.2105      10112.159    
     36600   308.63406     -3245.7044     -3263.5371      17.832655      7158.1761      10112.159    
     36700   279.37144     -3246.9895     -3263.1314      16.141882      7245.879       10112.159    
     36800   277.02607     -3248.1693     -3264.1757      16.006368      6732.0696      10112.159    
     36900   288.0197      -3249.0929     -3265.7345      16.641573      6301.0816      10112.159    
     37000   296.96309     -3248.9935     -3266.1518      17.158315      6006.2005      10112.159    
     37100   281.74423     -3247.5544     -3263.8334      16.27898       6780.1291      10112.159    
     37200   287.71415     -3246.5674     -3263.1913      16.623918      6982.4642      10112.159    
     37300   310.21883     -3245.7928     -3263.717       17.924222      7179.8616      10112.159    
     37400   300.40568     -3245.7116     -3263.0688      17.357226      7076.3411      10112.159    
     37500   315.62027     -3245.7444     -3263.9807      18.236313      6737.9792      10112.159    
     37600   301.54118     -3246.6527     -3264.0755      17.422834      6844.9578      10112.159    
     37700   285.07355     -3247.8409     -3264.3122      16.471346      6791.9354      10112.159    
     37800   277.10591     -3248.1552     -3264.1662      16.010981      6558.4322      10112.159    
     37900   308.11328     -3246.7435     -3264.546       17.802565      6844.2185      10112.159    
     38000   299.82856     -3246.1457     -3263.4695      17.32388       7053.7899      10112.159    
     38100   299.3798      -3245.8502     -3263.1482      17.297951      7000.7011      10112.159    
     38200   301.25146     -3246.0493     -3263.4553      17.406094      7030.2029      10112.159    
     38300   291.48353     -3247.4062     -3264.248       16.84171       6690.3096      10112.159    
     38400   285.81702     -3248.3395     -3264.8538      16.514303      6313.107       10112.159    
     38500   304.92922     -3247.7446     -3265.3632      17.618592      6384.1801      10112.159    
     38600   283.24055     -3247.0839     -3263.4493      16.365436      6918.6341      10112.159    
     38700   280.36296     -3246.6743     -3262.8735      16.199171      7128.4093      10112.159    
     38800   310.67262     -3245.7281     -3263.6785      17.950442      6914.9555      10112.159    
     38900   312.06805     -3245.6823     -3263.7133      18.031069      6957.2495      10112.159    
     39000   293.29246     -3246.8688     -3263.815       16.946229      6794.2249      10112.159    
     39100   295.67752     -3247.9883     -3265.0723      17.084036      6180.6028      10112.159    
     39200   279.97244     -3248.3295     -3264.5061      16.176607      6526.4639      10112.159    
     39300   294.55152     -3246.0106     -3263.0296      17.018976      7152.6149      10112.159    
     39400   305.78355     -3245.5776     -3263.2456      17.667955      7080.0753      10112.159    
     39500   312.00511     -3245.7931     -3263.8205      18.027432      6768.0179      10112.159    
     39600   298.37112     -3246.8793     -3264.1189      17.23967       6893.3359      10112.159    
     39700   288.39535     -3247.715      -3264.3783      16.663277      6378.3409      10112.159    
     39800   293.98314     -3247.4448     -3264.4309      16.986135      6840.701       10112.159    
     39900   299.50467     -3245.4887     -3262.7938      17.305165      7129.8235      10112.159    
     40000   316.82061     -3244.7299     -3263.0356      18.305668      7041.8642      10112.159    
     40100   308.14853     -3245.6547     -3263.4593      17.804602      7003.3073      10112.159    
     40200   293.91288     -3246.5658     -3263.5479      16.982076      6998.1895      10112.159    
     40300   293.48666     -3246.9706     -3263.9281      16.957449      6730.1303      10112.159    
     40400   298.0551      -3247.1492     -3264.3706      17.221411      6461.928       10112.159    
     40500   309.16873     -3246.5205     -3264.3841      17.863548      6665.7562      10112.159    
     40600   301.02147     -3245.5592     -3262.952       17.392805      6828.4949      10112.159    
     40700   315.18799     -3244.6884     -3262.8997      18.211337      7241.8576      10112.159    
     40800   311.2773      -3245.2525     -3263.2379      17.98538       6947.7029      10112.159    
     40900   297.16363     -3246.8704     -3264.0403      17.169902      6772.4993      10112.159    
     41000   303.52418     -3247.0413     -3264.5787      17.53741       6552.5216      10112.159    
     41100   298.37943     -3246.8603     -3264.1005      17.24015       6576.2516      10112.159    
     41200   293.81121     -3245.9171     -3262.8933      16.976202      7124.1846      10112.159    
     41300   307.40853     -3244.6404     -3262.4023      17.761845      7222.4215      10112.159    
     41400   313.25939     -3245.0848     -3263.1847      18.099903      6843.8941      10112.159    
     41500   320.39026     -3245.9484     -3264.4604      18.51192       6474.834       10112.159    
     41600   294.23376     -3246.4913     -3263.4919      17.000616      6774.6643      10112.159    
     41700   290.68605     -3246.6534     -3263.449       16.795632      6641.3251      10112.159    
     41800   300.4557      -3246.5495     -3263.9097      17.360115      6733.3319      10112.159    
     41900   310.51298     -3246.091      -3264.0322      17.941218      6660.2365      10112.159    
     42000   309.04598     -3245.4114     -3263.2679      17.856456      6967.8131      10112.159    
     42100   297.94445     -3245.1628     -3262.3778      17.215017      7260.3419      10112.159    
     42200   315.51704     -3245.6647     -3263.895       18.230349      6825.8962      10112.159    
     42300   279.81389     -3247.3295     -3263.497       16.167446      6627.7838      10112.159    
     42400   302.87322     -3247.2727     -3264.7725      17.499798      6391.1274      10112.159    
     42500   299.5891      -3246.977      -3264.2871      17.310044      6455.3516      10112.159    
     42600   300.95737     -3245.4303     -3262.8194      17.389102      7211.3279      10112.159    
     42700   310.54036     -3244.6574     -3262.6002      17.9428        7510.0408      10112.159    
     42800   313.24071     -3245.5271     -3263.626       18.098824      6656.7584      10112.159    
     42900   291.39205     -3246.4855     -3263.3219      16.836424      6846.1283      10112.159    
     43000   310.78422     -3246.5594     -3264.5163      17.95689       6561.0316      10112.159    
     43100   280.79027     -3247.1323     -3263.3562      16.223861      6552.5966      10112.159    
     43200   300.85962     -3246.5603     -3263.9437      17.383454      6895.419       10112.159    
     43300   308.86066     -3245.0661     -3262.9119      17.845748      7074.9163      10112.159    
     43400   323.14173     -3244.6605     -3263.3314      18.670898      7092.1808      10112.159    
     43500   288.76404     -3246.1744     -3262.859       16.68458       6967.5773      10112.159    
     43600   306.05441     -3246.6445     -3264.3281      17.683605      6510.2964      10112.159    
     43700   280.23159     -3247.2077     -3263.3992      16.191581      6671.0181      10112.159    
     43800   318.5335      -3246.3138     -3264.7185      18.404638      6653.5934      10112.159    
     43900   301.36344     -3245.9937     -3263.4063      17.412564      6915.027       10112.159    
     44000   296.6568      -3246.0779     -3263.2185      17.140618      7075.9815      10112.159    
     44100   295.70251     -3247.0711     -3264.1565      17.08548       6599.8862      10112.159    
     44200   294.50381     -3247.9452     -3264.9614      17.01622       6380.2552      10112.159    
     44300   294.42993     -3247.7196     -3264.7316      17.011951      6258.5418      10112.159    
     44400   297.43862     -3246.3237     -3263.5095      17.185791      6888.0181      10112.159    
     44500   311.42165     -3245.6363     -3263.63        17.99372       6893.721       10112.159    
     44600   308.87744     -3245.7495     -3263.5962      17.846717      6838.5176      10112.159    
     44700   293.34599     -3246.6813     -3263.6307      16.949321      6847.5013      10112.159    
     44800   278.61974     -3248.0739     -3264.1724      16.098449      6388.9544      10112.159    
     44900   307.09425     -3247.7203     -3265.464       17.743686      6255.9989      10112.159    
     45000   292.53807     -3247.2177     -3264.1204      16.902641      6563.4822      10112.159    
     45100   306.68894     -3246.4238     -3264.1441      17.720267      6866.6439      10112.159    
     45200   289.35544     -3246.3963     -3263.115       16.71875       7022.3833      10112.159    
     45300   300.2345      -3246.0652     -3263.4126      17.347335      6858.4387      10112.159    
     45400   305.66768     -3245.6159     -3263.2772      17.66126       7033.4161      10112.159    
     45500   324.1152      -3245.2188     -3263.946       18.727145      6823.1835      10112.159    
     45600   294.24397     -3246.1254     -3263.1266      17.001206      7286.2475      10112.159    
     45700   288.42852     -3247.1867     -3263.8519      16.665194      6479.7722      10112.159    
     45800   304.23838     -3247.5961     -3265.1748      17.578676      6299.1753      10112.159    
     45900   284.09203     -3247.3085     -3263.7231      16.414635      6690.6855      10112.159    
     46000   300.98921     -3245.5229     -3262.9138      17.390941      7147.3122      10112.159    
     46100   302.93586     -3245.6107     -3263.1141      17.503418      7064.624       10112.159    
     46200   302.89336     -3246.4989     -3263.9999      17.500962      6896.265       10112.159    
     46300   294.84156     -3247.5395     -3264.5752      17.035734      6539.244       10112.159    
     46400   278.40356     -3247.8152     -3263.9012      16.085958      6539.3425      10112.159    
     46500   311.06524     -3245.5953     -3263.5685      17.973127      6916.9705      10112.159    
     46600   303.27453     -3245.2126     -3262.7355      17.522985      7261.2687      10112.159    
     46700   304.20877     -3245.8224     -3263.3994      17.576965      6874.6757      10112.159    
     46800   309.26531     -3246.9441     -3264.8133      17.869128      6599.4659      10112.159    
     46900   287.42786     -3247.6395     -3264.2469      16.607376      6631.4964      10112.159    
     47000   291.23216     -3247.0943     -3263.9215      16.827186      6846.5171      10112.159    
     47100   289.33336     -3246.2772     -3262.9947      16.717475      6870.994       10112.159    
     47200   308.03846     -3245.9428     -3263.741       17.798242      6977.6056      10112.159    
     47300   303.48134     -3246.5172     -3264.0521      17.534935      6657.2893      10112.159    
     47400   297.67441     -3246.9755     -3264.1749      17.199415      6599.0816      10112.159    
     47500   292.41723     -3246.7021     -3263.5978      16.895658      6889.5392      10112.159    
     47600   300.78836     -3245.8472     -3263.2265      17.379336      6829.8032      10112.159    
     47700   327.75218     -3244.6395     -3263.5767      18.937286      6901.5837      10112.159    
     47800   314.81049     -3244.7494     -3262.9389      18.189525      7199.5434      10112.159    
     47900   293.94304     -3246.3568     -3263.3406      16.983818      6980.1025      10112.159    
     48000   294.04744     -3246.7761     -3263.766       16.989851      6952.7589      10112.159    
     48100   290.2287      -3247.0737     -3263.8429      16.769207      6867.6693      10112.159    
     48200   296.11206     -3246.9268     -3264.0359      17.109143      6653.84        10112.159    
     48300   315.12073     -3245.4175     -3263.6249      18.20745       7031.8246      10112.159    
     48400   302.42747     -3244.541      -3262.015       17.474043      7239.1691      10112.159    
     48500   308.85498     -3245.0214     -3262.8668      17.84542       7332.0523      10112.159    
     48600   301.31814     -3246.8086     -3264.2185      17.409947      6765.658       10112.159    
     48700   291.0924      -3247.0411     -3263.8602      16.81911       6660.348       10112.159    
     48800   301.69147     -3246.6889     -3264.1204      17.431517      6635.0861      10112.159    
     48900   303.34135     -3246.1075     -3263.6343      17.526846      7073.6496      10112.159    
     49000   299.24893     -3245.2942     -3262.5846      17.290389      7038.1468      10112.159    
     49100   313.1157      -3244.6894     -3262.781       18.091601      7255.4598      10112.159    
     49200   307.74379     -3245.9453     -3263.7265      17.781216      6855.6009      10112.159    
     49300   310.78096     -3247.0613     -3265.018       17.956702      6507.9738      10112.159    
     49400   272.34992     -3247.6352     -3263.3714      15.736184      6875.8277      10112.159    
     49500   298.30013     -3246.8725     -3264.108       17.235568      6783.8878      10112.159    
     49600   317.88843     -3245.5015     -3263.8689      18.367366      7006.5714      10112.159    
     49700   314.69891     -3244.9157     -3263.0988      18.183078      7093.594       10112.159    
     49800   314.05851     -3245.2413     -3263.3873      18.146076      7217.2824      10112.159    
     49900   312.42478     -3245.831      -3263.8827      18.05168       6763.0883      10112.159    
     50000   280.9251      -3247.0088     -3263.2404      16.231652      6984.9621      10112.159    
     50100   297.91166     -3247.2283     -3264.4414      17.213123      6555.4616      10112.159    
     50200   295.20309     -3247.1697     -3264.2264      17.056624      6870.4029      10112.159    
     50300   310.96151     -3245.3338     -3263.3009      17.967134      7208.4366      10112.159    
     50400   307.60831     -3244.6747     -3262.4481      17.773388      7365.4186      10112.159    
     50500   314.1647      -3245.4621     -3263.6143      18.152212      7392.5527      10112.159    
     50600   294.0657      -3246.7694     -3263.7603      16.990906      6765.0217      10112.159    
     50700   299.64887     -3246.8542     -3264.1677      17.313498      6754.1672      10112.159    
     50800   284.63233     -3247.0272     -3263.473       16.445853      6995.4589      10112.159    
     50900   304.40737     -3246.1758     -3263.7642      17.58844       6981.4078      10112.159    
     51000   317.24297     -3244.8602     -3263.1903      18.330072      7331.9424      10112.159    
     51100   295.18531     -3245.1501     -3262.2057      17.055596      7521.032       10112.159    
     51200   316.8105      -3245.9994     -3264.3045      18.305084      6764.488       10112.159    
     51300   286.47896     -3247.6982     -3264.2507      16.552549      6478.2209      10112.159    
     51400   285.56325     -3247.6772     -3264.1769      16.49964       6941.8717      10112.159    
     51500   305.53031     -3246.5555     -3264.2088      17.653323      6613.574       10112.159    
     51600   310.53727     -3245.5515     -3263.4941      17.942621      7153.1411      10112.159    
     51700   317.6657      -3245.5382     -3263.8927      18.354497      7066.5198      10112.159    
     51800   289.29978     -3246.4631     -3263.1786      16.715534      7092.9127      10112.159    
     51900   297.38604     -3246.5648     -3263.7475      17.182753      6858.1549      10112.159    
     52000   299.56429     -3246.6656     -3263.9742      17.30861       6906.4569      10112.159    
     52100   316.11238     -3246.5205     -3264.7852      18.264747      6578.9244      10112.159    
     52200   277.99397     -3246.9515     -3263.0138      16.062293      7114.7342      10112.159    
     52300   298.41145     -3246.3633     -3263.6053      17.242         6843.2236      10112.159    
     52400   321.51717     -3244.8963     -3263.4733      18.577032      7227.4857      10112.159    
     52500   311.99384     -3244.8293     -3262.8561      18.026781      7027.368       10112.159    
     52600   300.93253     -3246.4253     -3263.813       17.387666      6822.2056      10112.159    
     52700   294.45184     -3247.0123     -3264.0255      17.013217      6898.6968      10112.159    
     52800   299.47771     -3246.806      -3264.1096      17.303608      6824.7751      10112.159    
     52900   291.10208     -3246.4038     -3263.2234      16.81967       7174.681       10112.159    
     53000   314.60161     -3245.0785     -3263.256       18.177456      7268.7841      10112.159    
     53100   315.09818     -3244.8164     -3263.0225      18.206148      7184.998       10112.159    
     53200   293.18938     -3246.4954     -3263.4357      16.940272      6959.8804      10112.159    
     53300   300.69952     -3247.651      -3265.0252      17.374203      6404.8313      10112.159    
     53400   282.8439      -3247.7668     -3264.1093      16.342519      6727.913       10112.159    
     53500   297.55954     -3246.6018     -3263.7946      17.192777      6998.6698      10112.159    
     53600   298.68234     -3246.1459     -3263.4036      17.257652      6964.1912      10112.159    
     53700   313.92995     -3246.0613     -3264.1999      18.138648      6782.0308      10112.159    
     53800   280.35559     -3246.7084     -3262.9072      16.198746      7345.4409      10112.159    
     53900   317.08342     -3246.1842     -3264.5051      18.320853      6648.7682      10112.159    
     54000   313.34083     -3245.337      -3263.4416      18.104609      7163.2951      10112.159    
     54100   300.93774     -3245.2742     -3262.6621      17.387967      7432.3995      10112.159    
     54200   296.11928     -3246.1462     -3263.2557      17.10956       7141.7539      10112.159    
     54300   287.07932     -3247.346      -3263.9332      16.587238      6840.404       10112.159    
     54400   302.50721     -3247.2373     -3264.7159      17.47865       6594.5791      10112.159    
     54500   312.47082     -3246.4192     -3264.4735      18.054341      6652.9897      10112.159    
     54600   314.36108     -3244.7136     -3262.8771      18.163559      7306.4055      10112.159    
     54700   304.11842     -3243.9592     -3261.531       17.571745      7906.4571      10112.159    
     54800   326.0346      -3244.5458     -3263.3838      18.838046      7192.8911      10112.159    
     54900   315.47694     -3246.0688     -3264.2968      18.228032      6572.9477      10112.159    
     55000   290.72373     -3246.7651     -3263.5629      16.797809      7020.4812      10112.159    
     55100   300.62727     -3246.381      -3263.7511      17.370028      6861.7024      10112.159    
     55200   308.45748     -3246.0364     -3263.8589      17.822453      7122.4392      10112.159    
     55300   303.76796     -3246.5915     -3264.143       17.551495      6952.1315      10112.159    
     55400   278.8588      -3247.6227     -3263.7349      16.112262      6820.1931      10112.159    
     55500   300.5533      -3246.9515     -3264.3173      17.365755      6913.01        10112.159    
     55600   312.04388     -3245.6282     -3263.6578      18.029672      7128.9566      10112.159    
     55700   311.25609     -3244.8703     -3262.8545      17.984154      7224.5847      10112.159    
     55800   307.33472     -3245.8247     -3263.5823      17.75758       7207.7867      10112.159    
     55900   285.52657     -3247.406      -3263.9036      16.497521      6795.3454      10112.159    
     56000   300.15157     -3247.2012     -3264.5438      17.342543      6921.2455      10112.159    
     56100   294.67624     -3246.7272     -3263.7534      17.026182      6747.9485      10112.159    
     56200   323.43156     -3245.3924     -3264.08        18.687644      7236.103       10112.159    
     56300   293.92882     -3245.7345     -3262.7175      16.982997      7048.5724      10112.159    
     56400   297.50271     -3246.5068     -3263.6963      17.189494      7056.4292      10112.159    
     56500   288.82707     -3247.9197     -3264.6079      16.688222      6747.5486      10112.159    
     56600   296.17856     -3248.4834     -3265.5964      17.112986      6275.4066      10112.159    
     56700   283.49842     -3247.158      -3263.5383      16.380336      6703.6246      10112.159    
     56800   314.91136     -3245.4157     -3263.6111      18.195353      7152.9908      10112.159    
     56900   302.46214     -3245.7357     -3263.2118      17.476046      7110.6227      10112.159    
     57000   301.3906      -3246.4672     -3263.8814      17.414134      6929.9111      10112.159    
     57100   288.10436     -3247.2811     -3263.9276      16.646464      6965.2569      10112.159    
     57200   300.88509     -3247.419      -3264.8039      17.384925      6625.9376      10112.159    
     57300   300.40543     -3246.5919     -3263.9491      17.357211      6788.6504      10112.159    
     57400   309.76832     -3244.8716     -3262.7698      17.898192      7298.598       10112.159    
     57500   321.32974     -3244.7775     -3263.3437      18.566203      7060.8636      10112.159    
     57600   305.73285     -3246.0829     -3263.7479      17.665025      7110.7535      10112.159    
     57700   291.47751     -3246.7482     -3263.5896      16.841362      6827.905       10112.159    
     57800   309.11832     -3246.3943     -3264.2549      17.860635      6812.531       10112.159    
     57900   288.50093     -3246.5399     -3263.2093      16.669378      7104.8273      10112.159    
     58000   311.26609     -3246.6371     -3264.6218      17.984732      6690.4004      10112.159    
     58100   300.47956     -3246.9379     -3264.2994      17.361494      6745.7559      10112.159    
     58200   280.14022     -3247.2692     -3263.4555      16.186302      6831.8377      10112.159    
     58300   306.43036     -3246.0634     -3263.7687      17.705327      7381.1259      10112.159    
     58400   290.19183     -3245.7084     -3262.4755      16.767076      7412.0931      10112.159    
     58500   306.91166     -3245.924      -3263.6571      17.733136      6898.6668      10112.159    
     58600   298.89825     -3247.5807     -3264.8508      17.270127      6536.5049      10112.159    
     58700   289.2291      -3248.2089     -3264.9203      16.711451      6550.1378      10112.159    
     58800   281.60627     -3247.6476     -3263.9186      16.271009      6639.7287      10112.159    
     58900   297.32272     -3246.4054     -3263.5845      17.179094      7214.9726      10112.159    
     59000   296.82607     -3246.1145     -3263.2649      17.150398      6926.3179      10112.159    
     59100   308.85282     -3246.2427     -3264.088       17.845295      6984.5433      10112.159    
     59200   297.67171     -3247.1435     -3264.3428      17.199258      6634.3438      10112.159    
     59300   286.58983     -3248.4289     -3264.9879      16.558955      6417.1681      10112.159    
     59400   289.22186     -3248.1429     -3264.854       16.711032      6521.656       10112.159    
     59500   296.98926     -3246.2578     -3263.4176      17.159827      6984.3919      10112.159    
     59600   307.94873     -3245.5745     -3263.3675      17.793058      7087.4573      10112.159    
     59700   301.76197     -3245.7384     -3263.174       17.435591      7178.5804      10112.159    
     59800   296.90505     -3246.8605     -3264.0154      17.154962      7020.536       10112.159    
     59900   289.47118     -3247.953      -3264.6784      16.725438      6310.3678      10112.159    
     60000   298.65045     -3247.6075     -3264.8633      17.25581       6467.7027      10112.159    
     60100   273.60087     -3247.2605     -3263.069       15.808463      7088.239       10112.159    
     60200   319.26902     -3246.2479     -3264.6951      18.447135      6662.7961      10112.159    
     60300   304.07702     -3246.3607     -3263.9301      17.569353      6879.9424      10112.159    
     60400   287.47836     -3246.6702     -3263.2805      16.610294      7195.757       10112.159    
     60500   297.515       -3246.6976     -3263.8878      17.190204      6907.8015      10112.159    
     60600   299.59513     -3246.8203     -3264.1307      17.310392      6804.8851      10112.159    
     60700   310.30006     -3246.2567     -3264.1857      17.928916      6855.9574      10112.159    
     60800   308.14865     -3245.5729     -3263.3775      17.804609      7035.36        10112.159    
     60900   299.14315     -3245.4489     -3262.7332      17.284277      7097.9832      10112.159    
     61000   300.61355     -3246.9035     -3264.2728      17.369236      6795.428       10112.159    
     61100   284.43003     -3247.6135     -3264.0477      16.434164      6815.6779      10112.159    
     61200   296.98019     -3247.0556     -3264.2149      17.159303      7079.9566      10112.159    
     61300   300.55452     -3246.4828     -3263.8486      17.365825      6810.2648      10112.159    
     61400   315.46412     -3244.8162     -3263.0435      18.227291      7238.4696      10112.159    
     61500   317.66693     -3244.5032     -3262.8577      18.354568      7570.1331      10112.159    
     61600   300.11583     -3245.4985     -3262.839       17.340478      7207.6139      10112.159    
     61700   298.95986     -3246.6163     -3263.89        17.273687      6899.6925      10112.159    
     61800   312.93366     -3246.8365     -3264.9176      18.081083      6514.024       10112.159    
     61900   302.03558     -3246.8671     -3264.3185      17.4514        6939.0446      10112.159    
     62000   291.08941     -3246.3629     -3263.1818      16.818938      7209.5516      10112.159    
     62100   298.50835     -3245.0011     -3262.2487      17.247599      7607.1664      10112.159    
     62200   306.0495      -3245.4282     -3263.1115      17.683321      7499.2161      10112.159    
     62300   314.55254     -3246.4115     -3264.5861      18.174621      6699.6688      10112.159    
     62400   287.96122     -3247.4946     -3264.1328      16.638193      6978.9268      10112.159    
     62500   276.81976     -3247.4372     -3263.4317      15.994448      6948.9435      10112.159    
     62600   308.16319     -3246.8373     -3264.6427      17.805449      6660.3981      10112.159    
     62700   295.5988      -3246.781      -3263.8605      17.079487      6844.8201      10112.159    
     62800   321.45454     -3245.8771     -3264.4506      18.573413      6808.8332      10112.159    
     62900   308.3436      -3244.9524     -3262.7683      17.815872      7473.9941      10112.159    
     63000   299.10226     -3244.357      -3261.6389      17.281915      7585.4543      10112.159    
     63100   303.25061     -3245.9783     -3263.4999      17.521603      7049.2171      10112.159    
     63200   307.946       -3246.9823     -3264.7752      17.7929        6589.4846      10112.159    
     63300   298.20065     -3247.1911     -3264.4209      17.22982       6802.0989      10112.159    
     63400   288.83547     -3246.9838     -3263.6725      16.688707      7221.705       10112.159    
     63500   300.4412      -3245.7969     -3263.1562      17.359278      7400.8197      10112.159    
     63600   305.02946     -3245.083      -3262.7074      17.624384      7476.9765      10112.159    
     63700   297.57867     -3245.8631     -3263.057       17.193883      7516.8413      10112.159    
     63800   311.86562     -3246.3362     -3264.3556      18.019372      6727.5265      10112.159    
     63900   291.45581     -3246.8397     -3263.6799      16.840108      6895.6948      10112.159    
     64000   294.478       -3246.7831     -3263.7978      17.014728      6963.848       10112.159    
     64100   302.2651      -3246.35       -3263.8147      17.464661      7140.7812      10112.159    
     64200   301.86259     -3245.6797     -3263.1211      17.441405      7278.2074      10112.159    
     64300   320.54626     -3244.3474     -3262.8684      18.520934      7390.4931      10112.159    
     64400   315.0662      -3244.2385     -3262.4428      18.2043        7660.4602      10112.159    
     64500   294.65915     -3246.2424     -3263.2676      17.025195      7246.1674      10112.159    
     64600   296.90163     -3246.8859     -3264.0406      17.154764      6924.6951      10112.159    
     64700   301.98533     -3246.9271     -3264.3756      17.448497      6890.0576      10112.159    
     64800   294.65855     -3246.6871     -3263.7123      17.025161      7070.7031      10112.159    
     64900   292.34887     -3245.8504     -3262.7421      16.891709      7400.8906      10112.159    
     65000   325.81655     -3244.7195     -3263.5449      18.825447      7083.6508      10112.159    
     65100   294.03819     -3245.5117     -3262.501       16.989316      7490.1138      10112.159    
     65200   302.03619     -3247.0809     -3264.5323      17.451435      6647.3973      10112.159    
     65300   292.63336     -3247.8613     -3264.7695      16.908147      6602.2827      10112.159    
     65400   291.71124     -3247.3488     -3264.2036      16.854867      6815.7342      10112.159    
     65500   303.78914     -3246.2371     -3263.7899      17.55272       7132.8778      10112.159    
     65600   302.75487     -3245.5712     -3263.0641      17.49296       7315.5526      10112.159    
     65700   302.27731     -3245.5735     -3263.0388      17.465367      7215.4465      10112.159    
     65800   292.71523     -3247.2998     -3264.2127      16.912877      6925.744       10112.159    
     65900   292.41997     -3248.0582     -3264.954       16.895817      6512.0754      10112.159    
     66000   285.52423     -3247.5936     -3264.091       16.497386      6960.9465      10112.159    
     66100   303.42761     -3246.2052     -3263.7371      17.53183       7188.8162      10112.159    
     66200   305.0846      -3245.7759     -3263.4035      17.62757       6960.1309      10112.159    
     66300   303.93463     -3246.0819     -3263.643       17.561125      7263.8017      10112.159    
     66400   304.74185     -3246.466      -3264.0738      17.607766      6846.5684      10112.159    
     66500   295.2113      -3246.7874     -3263.8445      17.057098      6800.0912      10112.159    
     66600   297.94911     -3247.1776     -3264.3929      17.215286      6728.8895      10112.159    
     66700   279.08062     -3247.8443     -3263.9694      16.125079      6750.6325      10112.159    
     66800   307.02754     -3246.9972     -3264.737       17.739832      6787.6244      10112.159    
     66900   296.03486     -3245.9264     -3263.0311      17.104683      7016.9034      10112.159    
     67000   311.17658     -3245.0943     -3263.0738      17.97956       7447.9744      10112.159    
     67100   301.96717     -3245.6061     -3263.0535      17.447447      7143.142       10112.159    
     67200   303.34453     -3246.3352     -3263.8623      17.52703       6913.0576      10112.159    
     67300   298.86951     -3246.5612     -3263.8296      17.268467      6819.6668      10112.159    
     67400   299.40604     -3246.5682     -3263.8676      17.299467      6722.4398      10112.159    
     67500   293.92594     -3246.4603     -3263.4431      16.982831      6915.7574      10112.159    
     67600   314.54678     -3245.3884     -3263.5627      18.174288      7018.6726      10112.159    
     67700   308.83974     -3244.7763     -3262.6208      17.844539      7384.418       10112.159    
     67800   305.46701     -3245.4834     -3263.133       17.649665      7177.9638      10112.159    
     67900   289.98832     -3247.0767     -3263.832       16.755318      6888.0553      10112.159    
     68000   313.90704     -3247.011      -3265.1483      18.137325      6571.6681      10112.159    
     68100   289.27453     -3246.8794     -3263.5935      16.714076      6737.2856      10112.159    
     68200   294.43667     -3245.5257     -3262.5381      17.01234       7297.9268      10112.159    
     68300   312.21606     -3244.9328     -3262.9724      18.039621      7183.8545      10112.159    
     68400   313.0358      -3245.4433     -3263.5303      18.086985      6731.1045      10112.159    
     68500   304.54118     -3246.0467     -3263.6429      17.596172      6932.1543      10112.159    
     68600   305.2661      -3246.6796     -3264.3176      17.638057      6726.2047      10112.159    
     68700   280.83429     -3247.3598     -3263.5862      16.226404      6812.2212      10112.159    
     68800   292.10951     -3246.6299     -3263.5078      16.877879      6869.7024      10112.159    
     68900   312.29531     -3244.7936     -3262.8378      18.0442        7090.7122      10112.159    
     69000   318.89056     -3245.3159     -3263.7412      18.425269      6729.6977      10112.159    
     69100   299.65518     -3246.2074     -3263.5213      17.313862      6859.9431      10112.159    
     69200   305.68013     -3246.4651     -3264.1271      17.661979      6847.992       10112.159    
     69300   288.45746     -3247.4045     -3264.0714      16.666866      6797.9383      10112.159    
     69400   280.47514     -3248.3413     -3264.5469      16.205653      6551.8672      10112.159    
     69500   297.96631     -3248.1587     -3265.375       17.21628       6353.435       10112.159    
     69600   301.84324     -3246.61       -3264.0502      17.440286      6686.194       10112.159    
     69700   299.72616     -3245.736      -3263.054       17.317963      7186.7276      10112.159    
     69800   306.20937     -3245.4662     -3263.1587      17.692558      7074.5764      10112.159    
     69900   304.46494     -3246.3209     -3263.9127      17.591766      6970.9964      10112.159    
     70000   294.02886     -3247.987      -3264.9758      16.988777      6474.049       10112.159    
     70100   278.97071     -3247.8884     -3264.0071      16.118728      6629.0742      10112.159    
     70200   305.46091     -3246.9943     -3264.6437      17.649313      6910.1624      10112.159    
     70300   286.60485     -3246.7125     -3263.2723      16.559823      6963.9522      10112.159    
     70400   300.06553     -3245.8721     -3263.2097      17.337572      7083.2688      10112.159    
     70500   328.30261     -3245.1729     -3264.142       18.96909       6995.165       10112.159    
     70600   287.02709     -3246.6174     -3263.2016      16.58422       6898.5315      10112.159    
     70700   280.52701     -3247.7015     -3263.9102      16.20865       6836.4274      10112.159    
     70800   286.88751     -3247.6866     -3264.2628      16.576155      6602.3164      10112.159    
     70900   306.07311     -3246.6998     -3264.3845      17.684685      6730.737       10112.159    
     71000   310.26428     -3245.2065     -3263.1334      17.926848      7275.296       10112.159    
     71100   307.2913      -3245.1173     -3262.8724      17.755071      7373.1699      10112.159    
     71200   303.0842      -3246.0765     -3263.5885      17.511988      6970.3186      10112.159    
     71300   292.95759     -3246.7737     -3263.7006      16.92688       7064.7754      10112.159    
     71400   296.16918     -3246.7652     -3263.8776      17.112443      6702.965       10112.159    
     71500   311.71206     -3246.344      -3264.3545      18.0105        6664.1379      10112.159    
     71600   308.06349     -3245.3566     -3263.1563      17.799688      6883.6223      10112.159    
     71700   329.68308     -3244.124      -3263.1729      19.048852      7279.3289      10112.159    
     71800   297.04856     -3245.3623     -3262.5256      17.163253      7210.2674      10112.159    
     71900   287.33412     -3246.3705     -3262.9725      16.60196       7234.4138      10112.159    
     72000   308.04618     -3246.6513     -3264.45        17.798688      6758.1602      10112.159    
     72100   298.39479     -3247.3162     -3264.5572      17.241037      6650.0269      10112.159    
     72200   304.18148     -3247.1393     -3264.7147      17.575388      6588.1159      10112.159    
     72300   299.96246     -3245.3702     -3262.7018      17.331616      7244.51        10112.159    
     72400   305.43641     -3244.8165     -3262.4644      17.647898      7448.147       10112.159    
     72500   310.79649     -3245.4608     -3263.4184      17.957599      6795.7881      10112.159    
     72600   299.86329     -3246.9666     -3264.2925      17.325886      6627.9755      10112.159    
     72700   290.95271     -3247.326      -3264.1371      16.811039      6703.4821      10112.159    
     72800   303.24611     -3246.6322     -3264.1536      17.521343      6758.2751      10112.159    
     72900   292.49578     -3246.2598     -3263.16        16.900197      7130.6084      10112.159    
     73000   294.98758     -3246.1182     -3263.1624      17.044171      7013.5227      10112.159    
     73100   331.27762     -3244.9678     -3264.1088      19.140984      7172.1038      10112.159    
     73200   314.84462     -3244.8461     -3263.0375      18.191497      7066.2568      10112.159    
     73300   300.61684     -3246.0966     -3263.4661      17.369426      7020.9884      10112.159    
     73400   289.10482     -3247.2115     -3263.9158      16.70427       6813.5121      10112.159    
     73500   294.56598     -3247.3959     -3264.4158      17.019811      6526.7467      10112.159    
     73600   304.43075     -3246.9377     -3264.5274      17.589791      6570.9825      10112.159    
     73700   303.70387     -3245.3776     -3262.9254      17.547793      7420.8976      10112.159    
     73800   323.21631     -3244.9294     -3263.6046      18.675207      7369.6728      10112.159    
     73900   296.80489     -3246.0575     -3263.2067      17.149174      7142.4121      10112.159    
     74000   290.29909     -3246.9315     -3263.7048      16.773274      6882.2524      10112.159    
     74100   302.19486     -3247.3338     -3264.7944      17.460603      6474.9323      10112.159    
     74200   290.12768     -3247.5912     -3264.3545      16.76337       6434.2771      10112.159    
     74300   310.28523     -3246.1369     -3264.0649      17.928058      7078.761       10112.159    
     74400   287.74438     -3245.5332     -3262.1589      16.625664      7467.1373      10112.159    
     74500   316.31914     -3245.3707     -3263.6474      18.276694      6995.4801      10112.159    
     74600   296.4187      -3246.6701     -3263.797       17.126861      6942.8422      10112.159    
     74700   289.66297     -3247.8019     -3264.5384      16.736519      6641.4019      10112.159    
     74800   293.79039     -3247.8715     -3264.8465      16.974999      6375.8053      10112.159    
     74900   292.85119     -3247.4207     -3264.3414      16.920732      6814.9164      10112.159    
     75000   283.33871     -3246.814      -3263.1851      16.371108      6740.1396      10112.159    
     75100   300.60296     -3245.9989     -3263.3675      17.368624      7012.6556      10112.159    
     75200   324.45282     -3245.3109     -3264.0576      18.746652      6774.2416      10112.159    
     75300   305.6287      -3245.6939     -3263.3529      17.659008      6957.1724      10112.159    
     75400   300.65834     -3247.3458     -3264.7177      17.371824      6677.6081      10112.159    
[...]
    281800   301.76035     -3246.2851     -3263.7206      17.435497      6984.2012      10112.159    
    281900   318.15575     -3245.4907     -3263.8735      18.382812      6874.9461      10112.159    
    282000   295.89761     -3246.0973     -3263.1941      17.096752      6999.4508      10112.159    
    282100   297.08385     -3246.6196     -3263.7848      17.165292      6650.7042      10112.159    
    282200   294.73178     -3247.1295     -3264.1589      17.029392      6451.2287      10112.159    
    282300   285.4241      -3248.0511     -3264.5427      16.4916        6630.9858      10112.159    
    282400   288.50641     -3248.2098     -3264.8795      16.669694      6331.3737      10112.159    
    282500   287.86018     -3247.0813     -3263.7137      16.632355      6828.5728      10112.159    
    282600   320.31694     -3245.6629     -3264.1706      18.507683      6788.7484      10112.159    
    282700   299.90783     -3245.6501     -3262.9785      17.32846       6942.2019      10112.159    
    282800   308.17747     -3245.8285     -3263.6348      17.806274      6734.7935      10112.159    
    282900   279.09546     -3247.6031     -3263.729       16.125936      6827.9007      10112.159    
    283000   289.52273     -3247.4462     -3264.1746      16.728416      6732.3296      10112.159    
    283100   308.98621     -3246.6869     -3264.5399      17.853002      6553.6003      10112.159    
    283200   296.94737     -3246.2034     -3263.3608      17.157407      6938.7714      10112.159    
    283300   317.4313      -3245.0249     -3263.3658      18.340954      6712.3461      10112.159    
    283400   306.58028     -3244.5555     -3262.2695      17.71399       7431.2137      10112.159    
    283500   298.34656     -3245.4727     -3262.7109      17.238251      7160.8138      10112.159    
    283600   317.60373     -3246.5365     -3264.8874      18.350916      6517.6677      10112.159    
    283700   290.96401     -3247.3324     -3264.1441      16.811692      6681.9521      10112.159    
    283800   282.33044     -3247.3314     -3263.6443      16.312851      6791.7225      10112.159    
    283900   312.09175     -3246.1856     -3264.2181      18.032438      6391.4611      10112.159    
    284000   301.68727     -3244.9331     -3262.3644      17.431275      7318.2376      10112.159    
    284100   316.42504     -3244.7061     -3262.9889      18.282813      7132.8021      10112.159    
    284200   313.44804     -3245.5174     -3263.6282      18.110804      7040.8448      10112.159    
    284300   306.62411     -3246.2994     -3264.0159      17.716522      6498.2861      10112.159    
    284400   291.78999     -3246.8357     -3263.6951      16.859417      6881.0397      10112.159    
    284500   288.71774     -3246.8141     -3263.4961      16.681905      6818.5239      10112.159    
    284600   298.46103     -3246.1525     -3263.3974      17.244865      7036.3685      10112.159    
    284700   309.17724     -3244.9801     -3262.8441      17.86404       7244.5058      10112.159    
    284800   314.25687     -3244.9055     -3263.0631      18.157537      7230.2169      10112.159    
    284900   290.08851     -3246.6177     -3263.3788      16.761107      6903.6346      10112.159    
    285000   293.41747     -3247.3729     -3264.3264      16.953452      6597.6605      10112.159    
    285100   312.67023     -3246.8968     -3264.9626      18.065862      6580.9953      10112.159    
    285200   294.16306     -3246.5448     -3263.5413      16.996531      6934.8498      10112.159    
    285300   314.75115     -3245.1808     -3263.3668      18.186097      6852.8176      10112.159    
    285400   313.64632     -3244.3765     -3262.4987      18.12226       7341.0523      10112.159    
    285500   305.33791     -3245.1853     -3262.8275      17.642206      7233.2525      10112.159    
    285600   309.33022     -3245.8395     -3263.7124      17.872879      6852.7118      10112.159    
    285700   300.4353      -3246.6421     -3264.001       17.358937      6585.8843      10112.159    
    285800   302.43752     -3247.4379     -3264.9125      17.474624      6505.6325      10112.159    
    285900   267.6296      -3248.0361     -3263.4996      15.463447      6748.1971      10112.159    
    286000   305.0822      -3246.0759     -3263.7034      17.627432      6746.6974      10112.159    
    286100   317.859       -3245.4765     -3263.8422      18.365665      6766.2771      10112.159    
    286200   297.91383     -3245.6891     -3262.9024      17.213248      7080.1208      10112.159    
    286300   300.08745     -3246.6546     -3263.9935      17.338838      6869.5644      10112.159    
    286400   295.63121     -3247.3701     -3264.4515      17.08136       6498.2803      10112.159    
    286500   297.58535     -3247.0179     -3264.2122      17.194269      6626.8137      10112.159    
    286600   292.8181      -3246.6071     -3263.526       16.91882       6816.2747      10112.159    
    286700   313.80788     -3245.6937     -3263.8253      18.131595      6858.13        10112.159    
    286800   317.7547      -3244.557      -3262.9166      18.359639      7287.5628      10112.159    
    286900   333.63254     -3243.4403     -3262.7173      19.27705       7248.7547      10112.159    
    287000   297.48424     -3245.0325     -3262.2209      17.188427      7199.2688      10112.159    
    287100   304.23993     -3246.1878     -3263.7666      17.578766      7027.8159      10112.159    
    287200   304.00844     -3246.7737     -3264.3391      17.565391      6243.3733      10112.159    
    287300   297.61124     -3247.0265     -3264.2223      17.195765      6893.9767      10112.159    
    287400   289.9885      -3246.8967     -3263.652       16.755328      6552.3721      10112.159    
    287500   316.64023     -3245.6266     -3263.9218      18.295246      6817.6574      10112.159    
    287600   305.21066     -3245.1913     -3262.8262      17.634854      7113.2917      10112.159    
    287700   299.86677     -3246.0512     -3263.3773      17.326088      6998.6783      10112.159    
    287800   303.70546     -3247.2352     -3264.7831      17.547884      6450.6644      10112.159    
    287900   286.33777     -3247.7541     -3264.2984      16.544391      6464.3052      10112.159    
    288000   285.1991      -3247.3064     -3263.785       16.4786        6752.0017      10112.159    
    288100   298.44573     -3246.6249     -3263.8689      17.243981      6691.1574      10112.159    
    288200   305.26494     -3246.1326     -3263.7706      17.63799       6679.6912      10112.159    
    288300   304.30299     -3245.8883     -3263.4708      17.582409      6815.1967      10112.159    
    288400   299.12044     -3245.9339     -3263.2168      17.282965      7190.1684      10112.159    
    288500   296.52346     -3246.7576     -3263.8905      17.132913      6665.2806      10112.159    
    288600   301.67524     -3247.3769     -3264.8075      17.43058       6574.9481      10112.159    
    288700   298.24272     -3247.0592     -3264.2915      17.232251      6906.2409      10112.159    
    288800   298.06206     -3245.8153     -3263.0371      17.221813      7051.8317      10112.159    
    288900   301.90285     -3244.9137     -3262.3574      17.443731      7197.9477      10112.159    
    289000   335.66586     -3243.9561     -3263.3507      19.394533      7042.6907      10112.159    
    289100   316.69664     -3245.1101     -3263.4086      18.298506      6984.1413      10112.159    
    289200   297.11399     -3246.6126     -3263.7797      17.167034      6763.4517      10112.159    
    289300   276.09882     -3247.4582     -3263.411       15.952793      6813.4191      10112.159    
    289400   296.20132     -3246.9207     -3264.035       17.1143        6832.9122      10112.159    
    289500   304.54302     -3246.0404     -3263.6367      17.596278      6851.248       10112.159    
    289600   318.48417     -3245.5861     -3263.9879      18.401787      6742.9916      10112.159    
    289700   327.53395     -3244.9469     -3263.8716      18.924677      6868.9368      10112.159    
    289800   291.06858     -3245.548      -3262.3658      16.817734      7194.3032      10112.159    
    289900   302.66017     -3246.4791     -3263.9666      17.487488      6593.6288      10112.159    
    290000   292.03481     -3247.3624     -3264.2359      16.873562      6753.8517      10112.159    
    290100   294.62383     -3247.377      -3264.4001      17.023154      6506.8854      10112.159    
    290200   304.44027     -3245.8598     -3263.4502      17.590341      6882.8793      10112.159    
    290300   314.81253     -3244.9533     -3263.1429      18.189643      7242.7208      10112.159    
    290400   297.30224     -3245.5388     -3262.7167      17.177911      7042.5503      10112.159    
    290500   291.17178     -3246.6995     -3263.5232      16.823697      6684.8964      10112.159    
    290600   305.81667     -3247.1196     -3264.7894      17.669868      6505.2362      10112.159    
    290700   288.33661     -3247.1178     -3263.7777      16.659883      6670.9238      10112.159    
    290800   297.26218     -3246.5457     -3263.7213      17.175596      6691.3475      10112.159    
    290900   302.06427     -3245.8644     -3263.3174      17.453058      6898.7713      10112.159    
    291000   334.12463     -3244.3941     -3263.6996      19.305482      7194.334       10112.159    
    291100   330.0696      -3244.0699     -3263.141       19.071185      6992.2157      10112.159    
    291200   297.70575     -3245.9016     -3263.1028      17.201225      7097.1862      10112.159    
    291300   283.92985     -3246.9635     -3263.3688      16.405264      6869.75        10112.159    
    291400   305.42202     -3247.0621     -3264.7092      17.647066      6763.5865      10112.159    
    291500   300.46729     -3247.0424     -3264.4032      17.360785      6449.8252      10112.159    
    291600   304.8928      -3245.7788     -3263.3953      17.616488      7058.5398      10112.159    
    291700   296.98788     -3244.8226     -3261.9824      17.159747      7274.4639      10112.159    
    291800   329.54951     -3244.9242     -3263.9653      19.041135      6884.0753      10112.159    
    291900   295.41059     -3246.4227     -3263.4913      17.068613      7037.7442      10112.159    
    292000   290.96006     -3246.9185     -3263.73        16.811464      6781.0842      10112.159    
    292100   306.25471     -3246.4879     -3264.1831      17.695178      6823.0562      10112.159    
    292200   293.04455     -3246.4113     -3263.3432      16.931905      6888.291       10112.159    
    292300   306.39027     -3246.4185     -3264.1216      17.703011      6811.5467      10112.159    
    292400   302.48511     -3245.4413     -3262.9187      17.477374      7017.9955      10112.159    
    292500   308.67304     -3244.9751     -3262.81        17.834908      6979.4958      10112.159    
    292600   300.22586     -3246.1324     -3263.4792      17.346836      6990.8477      10112.159    
    292700   306.16706     -3247.1638     -3264.8539      17.690114      6471.9988      10112.159    
    292800   293.77117     -3247.3749     -3264.3488      16.973888      6719.9253      10112.159    
    292900   294.38186     -3247.0485     -3264.0576      17.009173      6781.8319      10112.159    
    293000   295.51298     -3246.5393     -3263.6139      17.074529      6862.3264      10112.159    
    293100   311.011       -3246.0492     -3264.0191      17.969993      6781.4075      10112.159    
    293200   295.19023     -3246.2535     -3263.3093      17.05588       6784.8274      10112.159    
    293300   316.40941     -3245.9518     -3264.2337      18.281909      6774.9722      10112.159    
    293400   305.53353     -3245.7335     -3263.387       17.653509      6914.7917      10112.159    
    293500   301.95921     -3246.1983     -3263.6453      17.446987      6806.6625      10112.159    
    293600   306.60695     -3246.8458     -3264.5613      17.71553       6410.9731      10112.159    
    293700   293.96636     -3247.3355     -3264.3207      16.985166      6366.499       10112.159    
    293800   296.28055     -3247.0842     -3264.2031      17.118878      6749.7067      10112.159    
    293900   301.53245     -3245.675      -3263.0973      17.422329      7193.8676      10112.159    
    294000   308.99285     -3244.9754     -3262.8288      17.853386      7292.2516      10112.159    
    294100   309.07901     -3245.6774     -3263.5358      17.858364      6692.0893      10112.159    
    294200   307.75088     -3246.905      -3264.6867      17.781626      6602.2973      10112.159    
    294300   289.87872     -3247.3165     -3264.0654      16.748985      6731.6039      10112.159    
    294400   284.96298     -3246.78       -3263.2449      16.464957      6865.2278      10112.159    
    294500   307.4262      -3245.8244     -3263.5873      17.762866      7016.0454      10112.159    
    294600   305.40664     -3245.9581     -3263.6043      17.646177      7012.6112      10112.159    
    294700   310.80631     -3246.7176     -3264.6757      17.958167      6352.6733      10112.159    
    294800   282.05078     -3248.4818     -3264.7785      16.296692      6310.2594      10112.159    
    294900   292.63693     -3248.0525     -3264.9609      16.908352      6749.7056      10112.159    
    295000   280.42908     -3247.0648     -3263.2678      16.202991      6714.7551      10112.159    
    295100   317.83582     -3245.9199     -3264.2843      18.364326      6715.7017      10112.159    
    295200   307.96998     -3246.1903     -3263.9846      17.794285      6830.3151      10112.159    
    295300   285.75143     -3246.7496     -3263.2601      16.510513      6999.4762      10112.159    
    295400   291.07757     -3246.6907     -3263.509       16.818254      6671.3753      10112.159    
    295500   303.68175     -3246.568      -3264.1145      17.546514      6630.1929      10112.159    
    295600   317.98913     -3246.1069     -3264.4801      18.373184      6343.0361      10112.159    
    295700   299.92948     -3245.9861     -3263.3158      17.329711      6840.767       10112.159    
    295800   301.18362     -3245.8908     -3263.2929      17.402174      7246.9644      10112.159    
    295900   293.93511     -3246.3838     -3263.3671      16.98336       7032.5242      10112.159    
    296000   286.88372     -3247.4771     -3264.053       16.575936      6716.4474      10112.159    
    296100   313.92863     -3247.3259     -3265.4645      18.138572      6404.9448      10112.159    
    296200   295.46308     -3246.4499     -3263.5215      17.071646      6698.6644      10112.159    
    296300   319.86075     -3244.8338     -3263.3152      18.481326      7076.446       10112.159    
    296400   296.02071     -3245.4176     -3262.5215      17.103865      7086.4322      10112.159    
    296500   290.94932     -3246.4389     -3263.2498      16.810844      7017.2091      10112.159    
    296600   314.17953     -3247.2941     -3265.4472      18.153069      6212.1668      10112.159    
    296700   293.72665     -3247.4675     -3264.4388      16.971316      6453.8258      10112.159    
    296800   291.215       -3246.9301     -3263.7562      16.826194      6662.7395      10112.159    
    296900   299.68085     -3246.3418     -3263.6571      17.315345      6924.9837      10112.159    
    297000   315.0036      -3245.7726     -3263.9733      18.200682      6757.6859      10112.159    
    297100   302.72121     -3245.4961     -3262.9872      17.491015      6890.7194      10112.159    
    297200   315.92783     -3245.3392     -3263.5933      18.254084      7042.7388      10112.159    
    297300   300.28012     -3246.4476     -3263.7975      17.349971      6525.3324      10112.159    
    297400   291.73719     -3247.2539     -3264.1103      16.856366      6540.883       10112.159    
    297500   296.53391     -3247.2429     -3264.3764      17.133517      6522.9897      10112.159    
    297600   302.03789     -3246.4872     -3263.9388      17.451533      6859.444       10112.159    
    297700   315.46313     -3244.9331     -3263.1603      18.227234      7037.3688      10112.159    
    297800   320.07592     -3245.0377     -3263.5314      18.493758      7048.2788      10112.159    
    297900   290.54675     -3246.3449     -3263.1325      16.787583      6949.6609      10112.159    
    298000   300.39886     -3246.899      -3264.2559      17.356831      6660.5985      10112.159    
    298100   295.8233      -3246.8552     -3263.9476      17.092459      6684.9339      10112.159    
    298200   313.18765     -3246.216      -3264.3118      18.095759      6490.9008      10112.159    
    298300   286.75591     -3246.2464     -3262.8149      16.568552      7022.7303      10112.159    
    298400   314.18226     -3245.1573     -3263.3105      18.153226      6959.1577      10112.159    
    298500   310.31728     -3244.5855     -3262.5154      17.929911      7018.7359      10112.159    
    298600   303.76695     -3245.5924     -3263.1438      17.551437      6890.4455      10112.159    
    298700   300.78977     -3246.9304     -3264.3098      17.379418      6504.1791      10112.159    
    298800   300.10586     -3247.119      -3264.4589      17.339902      6548.3574      10112.159    
    298900   295.28952     -3246.7018     -3263.7634      17.061618      6659.6382      10112.159    
    299000   307.09118     -3245.4729     -3263.2164      17.743509      7006.8802      10112.159    
    299100   333.23564     -3243.7984     -3263.0526      19.254117      7221.0319      10112.159    
    299200   317.85841     -3244.3393     -3262.7049      18.365632      7137.2296      10112.159    
    299300   301.35514     -3245.3422     -3262.7543      17.412084      7023.751       10112.159    
    299400   300.02232     -3246.0782     -3263.4132      17.335075      6972.5934      10112.159    
    299500   295.01105     -3247.1218     -3264.1673      17.045527      6677.7189      10112.159    
    299600   287.16685     -3247.497      -3264.0893      16.592295      6470.1135      10112.159    
    299700   309.17314     -3246.4894     -3264.3532      17.863803      6512.0452      10112.159    
    299800   320.43844     -3244.5506     -3263.0653      18.514704      6948.7377      10112.159    
    299900   314.39451     -3244.7562     -3262.9217      18.16549       7102.662       10112.159    
    300000   312.12263     -3245.7226     -3263.7568      18.034222      6692.4084      10112.159    
Loop time of 2257.73 on 20 procs for 300000 steps with 448 atoms

Performance: 11.481 ns/day, 2.090 hours/ns, 132.877 timesteps/s, 59.529 katom-step/s
99.9% CPU use with 20 MPI tasks x 1 OpenMP threads

MPI task timing breakdown:
Section |  min time  |  avg time  |  max time  |%varavg| %total
---------------------------------------------------------------
Pair    | 1742.6     | 1996.9     | 2158.6     | 414.8 | 88.45
Neigh   | 20.251     | 28.416     | 34.745     | 121.3 |  1.26
Comm    | 63.483     | 229.3      | 491.99     |1266.9 | 10.16
Output  | 0.35377    | 0.58533    | 0.6548     |   8.0 |  0.03
Modify  | 2.0665     | 2.2191     | 2.4245     |   5.9 |  0.10
Other   |            | 0.2856     |            |       |  0.01

Nlocal:           22.4 ave          24 max          18 min
Histogram: 1 1 0 4 0 1 1 0 0 12
Nghost:          497.4 ave         522 max         466 min
Histogram: 4 0 0 2 4 2 0 0 0 8
Neighs:              0 ave           0 max           0 min
Histogram: 20 0 0 0 0 0 0 0 0 0
FullNghs:       1279.6 ave        1385 max        1022 min
Histogram: 1 1 0 4 0 1 1 0 0 12

Total # of neighbors = 25592
Ave neighs/atom = 57.125
Neighbor list builds = 300000
Dangerous builds not checked
Total wall time: 0:37:37
