ITEM: TIMESTEP
0
ITEM: NUMBER OF ATOMS
108
ITEM: BOX BOUNDS pp pp pp
0.0000000000000000e+00 1.0956000000000000e+01
0.0000000000000000e+00 1.0956000000000000e+01
0.0000000000000000e+00 1.0629000000000000e+01
ITEM: ATOMS id type x y z fx fy fz
   1 1    1.9498426099999999    1.6123894800000000    2.2463115000000000    0.2628846757803931    2.3388213753848657    4.0230021187846177
   2 1    3.2310994800000001    7.2917578000000001   10.6101818899999998    2.3689865064372944    0.2616244923789331   -1.3623857058298623
   3 1    5.0867491899999999    5.3743590899999996    2.2430686899999999    0.8922486989009832    1.1139319641151739    0.1988027373400085
   4 1    8.9265713699999996    5.1206595400000001    7.8247845199999997    2.3100654959203384    1.5536100288924417    2.7977024859755852
   5 1    0.2592721000000000    7.0133755899999999    5.3305418199999997   -0.1469146508202261    5.0565074019995855   -1.9806875045171466
   6 1   10.7365987599999997   10.8800927800000000   10.6153213300000004    0.5796876950338878    1.6473822214878002    0.7088123705819599
   7 1    7.1881782400000001    3.5480399000000000    5.1419050200000003   -0.9463800687916424   -2.2875614718631203    0.2330520579505432
   8 1    7.2680072800000000    7.1069656900000000    5.4505338700000001   -1.5967375984007726   -0.2383993399458524   -0.6120448395653579
   9 1    1.6494264599999999    5.2833683000000002    2.6433772400000000   -0.8223652322969763   -0.1666378080375243   -0.8037404208787241
  10 1   10.7283949100000005    3.2646578100000001    5.3122076399999996    3.6539265591260248    2.5085875392516161   -3.0875851628939910
  11 1   10.8235741700000005    3.6351975099999998    0.1936622900000000    0.0577283047452253    0.4079173826457814   -2.5827512927871812
  12 1    1.9354248400000000    5.1519876800000004    7.7933675300000003    0.2547020156752232    1.9760210257092852   -0.8546575151769764
  13 1    8.9461627799999999    9.0473408899999992    8.0078490599999999    0.4932084358501455   -0.5046225821003432    0.2611021014882382
  14 1    1.7098071600000000    1.6894044600000000    7.9303547200000004    0.5037638430131860    0.5629559637073652    2.4586510055798407
  15 1    7.3893707199999996    7.2870110099999996   10.4758578999999994   -2.2515377464386814   -0.4606987780186657    1.1212964221047963
  16 1    8.7307771299999999    9.0393448700000008    2.9513383800000002    1.3012344433224499   -0.7233747508919278   -2.8081026215500695
  17 1    5.0789946400000003    8.9861253300000001    2.4193840299999998    1.7277067474915344    0.0475188929458540    0.6210584274524761
  18 1    5.4426058800000003    9.3071524599999993    7.9839223300000004   -4.8367450337370919   -4.5726864156441547    0.5526358990278513
  19 1   10.9507573300000001   10.7516530699999997    5.3004673799999997   -1.4086682570684135    0.6604687283158097   -2.7896320224174551
  20 1    3.5276752199999999    3.4735595899999998    5.1816768299999998   -0.8413706225109067   -0.3793476040705491   -1.2066443204870316
  21 1   10.9538038699999998    7.2940740100000001   10.3258917399999994   -3.7070763864039629   -2.6855782802857586   -0.7327279723743837
  22 1    1.6456279000000000    9.0987234299999997    7.9318484199999997    2.0234580814482186   -0.6223340401325035   -0.6911171148796291
  23 1    7.2406413799999996    3.7825271200000001    0.0748470800000000    0.6527319451841708   -3.0786431984880589   -1.6446376599827071
  24 1    8.9499556299999998    5.4080370699999998    2.6872656600000000    1.1782169283164670    0.8137865466518771   -0.7669105813309185
  25 1    3.8236803699999999    6.9904107199999999    4.8131646100000003   -1.9707534726015130    0.0658074458695512    2.7028622621375025
  26 1    3.7737331799999998    0.0466739800000000    0.0220746300000000   -2.9687177474151674   -2.3088330648002948   -0.4416544572159375
  27 1    7.1999626299999999    0.0728454600000000    5.2426781499999997    2.2782802246806360   -1.8408100527076605   -1.7792570298618913
  28 1    5.6696258100000003    1.6242438699999999    2.6256736900000002   -1.5858639305059834   -1.8214075589170609    1.2682856314644768
  29 1    5.3494679300000003    1.7250430200000000    7.5813982700000002    1.6918446845871808    0.6530419253658569    2.0282131156030005
  30 1    1.4256022800000001    8.9866387299999992    2.5796010100000002   -1.8635441395145740    3.3569622704941326   -0.7879680796728168
  31 1    3.3299887699999999   10.9341262399999994    5.2506655200000001    3.5415328443843332   -1.4918882032308358   -1.1665418778345775
  32 1    3.7357748000000002    3.6106027200000002   10.2165931000000008   -2.4035708304390493   -1.0791901470612870   -2.1802974241510258
  33 1    7.1817182600000002   10.9535638199999994   10.5472857399999995    3.5428598811868168    1.9476682209301810   -2.0614360057839227
  34 1    9.0363334999999996    1.7914524800000000    2.5222215200000000    0.9294006713714715   -0.3390186766718299    2.3516838870841328
  35 1    5.4428051599999998    5.4758693899999997    7.8838400899999996   -1.8530839886220205   -0.2094879178040161   -1.1463898688179426
  36 1    9.0497654500000007    1.7001676400000001    7.7713846300000000   -1.2888893289048360   -0.2230662735319229    3.1899731743293342
  37 2   10.5057749000000005    9.5845480799999994    1.6476423200000001    0.9801715114263394   -0.2509891307882479   -1.0316200847351242
  38 2    5.0698647899999996    7.1086391100000004    3.3652439699999999    2.9500705166933043   -0.1997826553401530   -2.4579500184599250
  39 2   10.8249983400000005    5.5721666000000001    4.0577155600000001    0.4630492931958886   -2.9408250217801148   -0.9285807546155853
  40 2   10.5201266100000002    1.7316611000000000    4.2294791399999996    1.1154538898301083   -1.9729742270375559   -0.0330230870367051
  41 2    1.7629813400000001   10.8695582599999998    3.8848047999999999    0.0294660628570509    1.3224532228605088   -1.7419555905104120
  42 2    1.7024185500000000    0.0846790300000000    1.1687234900000001   -0.6647662060935317   -1.0969856558659810   -2.9318519143832029
  43 2    2.1226030599999999    3.9810609000000001    0.6740873500000000   -1.9417398776949071   -1.0723942251487031    1.5526768293714597
  44 2    0.4495063800000000    1.9355864400000000    9.7257516200000005   -0.4461186171455083   -0.8936744090322123   -0.2465063054512834
  45 2    1.7441040500000000   10.8285213500000008    8.9739178099999997   -0.2397566172821553    0.3666822726559532   -0.3336828349772337
  46 2    1.7574875700000001   10.4756398799999992    6.2722654799999997   -4.1024262446928850    1.4522774788400632    1.1208308095377388
  47 2   10.9542293999999991    1.8100072300000001    6.7498245399999997    0.7693826197472029   -1.1337930391552242    1.6517281770921084
  48 2    1.8843236500000000    3.3871044800000001    3.3237903400000000   -1.1768506078277847   -0.0700150997600909    0.9615225227980175
  49 2    1.4719650000000000    7.5332583900000003    0.9597057000000000   -0.4823589306857259    0.9363070782160763   -0.2106635193815928
  50 2    1.8063053099999999    7.1928590899999998    8.9430213199999997   -0.2800441213586439    1.6002247239955960    0.0742354120734506
  51 2   10.7286291499999997    2.2867134199999999    1.6239633499999999    4.2061042379574936   -0.4174338309840800    0.3761170624121219
  52 2    3.7478391100000001    5.1082562500000002    6.4553532999999996   -1.7916371300387632    2.7942556345285174    2.1939761577111749
  53 2    3.5104206200000001    1.6528777100000001    6.7340960599999997   -1.4729632002020727    0.0724109859954395    0.5350847045234852
  54 2    5.3909712299999999    3.5057395499999999    8.6978579099999997   -0.4302960745803976    0.9249338236198370   -0.4248539465523855
  55 2   10.8328709900000000    5.2844045199999998    1.4801322500000000    0.0319814348424493    0.0395568344318360    0.1922678916718826
  56 2    2.3622152700000001    7.5195828899999997    5.9504287099999997   -3.9332242067198013    0.1727443144009721    1.4929929379666023
  57 2   10.8529835800000001    8.6150234799999996    6.8946615600000003   -0.0576008762557736    1.5842301706428719    0.5579473893696975
  58 2    3.8762220599999999    1.6630748900000001    4.1044106700000000   -1.0696914146251564   -0.5668669518326163    0.8728901372191142
  59 2    5.8673867599999996   10.6716270499999997    3.3763120500000001    0.7390104716931954    0.4551103420615878    0.2486573157337099
  60 2    5.5116577099999997   10.6540145099999997    0.7522161400000000   -1.6535785165199428   -1.2131164247489723    2.2418184766580271
  61 2    3.9002888900000001    1.6740566400000001    1.6405635100000000   -1.9192336919942299   -0.6481900599945177   -2.3903927444386666
  62 2    3.6148129999999998    1.6211643600000001    9.5406527899999993    0.6313947659433393    1.0186368304832851   -0.8653318272015377
  63 2    5.7888704700000000    0.0107577000000000    8.8401978700000008   -0.8442640476417180    1.8401455819199215    0.2259792535521554
  64 2   10.8968633500000003    9.1563911000000004    9.6441568300000000    0.3922158759177518   -1.5228874089959685   -1.4455192272489468
  65 2    3.4844188500000000    5.0834485799999998    3.7930377300000000    0.8287796045197733    0.8857238937264665    0.9170195016924614
  66 2    5.5925345699999998    3.3697822799999999    3.3712241600000001    0.0523905122052583    4.0327801449942058   -0.1300739281589889
  67 2    5.3253816100000000    4.1550901700000002    0.5425526300000000    0.5431294943998162    1.5254733226608443    2.2671854949205841
  68 2    8.9840330700000006    7.0992439000000003    6.2406166699999996    1.3172502902066858   -0.4337026414870520    1.7411362987299426
  69 2    3.5141731500000000    5.4887050000000004    9.1911944400000003    2.3669772586943827    0.6453928292036869    1.2270283041504353
  70 2    5.3005107200000001    3.7454195800000001    6.0235617599999998    3.1238535174559900   -3.3931498439156065   -0.0688406584108013
  71 2   10.9428808499999999    5.4587485600000001    9.1918897899999994   -0.1048056146530405   -0.5465325252716002    0.7164975305648930
  72 2    9.1598810299999993    0.0837115100000000    6.4382472000000002   -0.4049908625852539   -2.3279769913114343   -1.2134394090651737
  73 2    1.7347139899999999    3.5966836700000000    6.2946254899999996   -0.2948342188505331   -1.3410292627711446   -1.2695062268331296
  74 2    6.6201868800000003    1.9379128400000001    0.9569061200000000    1.1484567433429769   -0.1656447559204835    0.7828087567928270
  75 2    9.0192770899999992    0.7570895100000000    0.8552598300000001   -1.4783039787735457   -2.2003605140964897   -1.5842528653319143
  76 2    7.3258765400000003    8.7171040400000006    4.3839670799999997   -0.4895121240300351    2.8746742952682673   -0.4000652187862354
  77 2    7.5008020100000001    1.9078092600000001    3.9086825300000001   -2.0715922999432630   -2.6337977875230409    1.5836946456496954
  78 2    3.5114363499999999    9.5687969699999993    7.2567654399999997    2.7738499201551128    0.0420955560065008   -0.2537406239571879
  79 2    8.9451281999999992    7.2605082200000002    9.0573037999999997    1.5951596943397439   -0.3520059895204927   -4.3887030195909302
  80 2    7.3484578400000000    1.7218183400000000    9.3133880799999993    0.6250926458333605    0.3935669701175198   -0.2027984192496086
  81 2    7.7142563300000004    9.0940986899999992    9.6450297799999998   -1.6048274597419896    2.8376047072055472   -1.0340909585091154
  82 2    5.8448564000000003    7.2782907999999997    8.6964975100000004    0.5146436323621939   -0.4947934772060488    0.0462586550557410
  83 2    9.0571913199999994    7.2096918800000003    3.6427283600000000   -0.1298184708914927   -1.1267847605482741   -0.2762572527207198
  84 2    5.1491348400000003    7.4112087700000000    6.1715991800000003    2.7085874748007925   -1.4126793859526241    0.6582854959702589
  85 2    7.3006592200000000    8.9426611299999994    1.4384127900000001   -0.5897970473086519    0.7963869393855677    1.4954953978747134
  86 2    9.0891076799999997    7.3007725099999998    0.6677890300000000    3.9996169188922694   -0.7794187163633284    2.7125485345751827
  87 2    7.6362253999999998    5.2474180500000003    9.4663071900000002   -1.4545833124875542    1.1086341842531811   -0.6736011988625527
  88 2    4.0345408599999999    8.9785132099999991    9.6397276099999996   -1.2712320337024168    0.8149386889096275    1.7265977987976868
  89 2    9.3238728500000008   10.8999822999999996    9.0311523099999995    0.0349342896624441    0.5217827030776920   -1.3757876387985688
  90 2    7.2296911899999996    5.1815925399999996    6.8325191099999998   -0.8371858181017335    0.2693371494847528    1.6280174378993371
  91 2    5.4810941900000003    0.4163562700000000    5.9070828000000004   -2.4835603893886438   -0.5906876657536895    0.7509639220547076
  92 2    0.4158410100000000    5.6138053200000000    6.4924396900000003   -1.1540433530227330   -2.4682074929034306    3.1787092102246954
  93 2   10.8613636099999997    9.2070802399999998    4.0367162700000003   -0.0096681870740025   -1.3825487968495791    2.1647902422129901
  94 2    1.5810151100000001    7.3236430500000003    3.4513526899999998    1.1652576322951520   -3.2420757035751651    1.5566899146090458
  95 2    3.9574907100000001    9.0638144399999998    4.2112619899999997   -0.9667757499050377    1.2512498067462436    0.0115914242077529
  96 2    3.2360449099999999    5.9970761100000001    1.5488692500000001    1.1254793821070574   -0.6688042495978832    0.0384702594691954
  97 2    5.2545450400000000    7.1741711099999996    0.8439352700000000   -0.9009555564526257    0.6829704753490755   -0.3946250242692321
  98 2    9.1459865199999992   10.8676504900000008    3.5999253800000002   -2.2970086156918530    0.3832284264482194    0.7897210664945504
  99 2    9.1962395000000008    3.3834953600000000    9.0509243799999997    0.8473245490350920    1.0125925096093462   -0.8109064901389859
 100 2    7.1961840099999996    5.9043847300000003    1.6130177100000000   -0.3980344264507356   -2.3801956085571851    0.6758937100392337
 101 2    8.7533348699999998    3.6848508700000000    1.3186781700000001   -0.1154867784443733    0.0413399080271444   -2.1923413783143375
 102 2    9.0494758799999993    3.5659999700000000    3.5588294199999999    0.4475144757376874    2.8287006770372702    2.3374368185752599
 103 2    7.1367621699999999    5.2613336000000004    4.5414043599999996    0.5408090401092087    4.2379094825423032   -3.5686212681529788
 104 2    3.2418811700000001    9.3051311900000009    1.6329740900000000    2.0039515077116126   -0.5543827662039952   -0.5926532679782073
 105 2    9.1155543699999999    3.4867889600000002    6.2457008399999996   -2.5876103110149931    1.2475098123815012    2.5020917251996160
 106 2    7.2934387799999998    1.7093592799999999    6.7606757899999996   -0.4317964489118584    0.8088457615585889   -1.4214233252116948
 107 2    2.1277929200000001    3.5278868900000000    8.7864617900000006   -0.3050317034581232   -1.6445269407344287   -0.7112472850413631
 108 2    6.9259656700000001    9.2839186199999997    6.8249149100000004    5.0643962302886028    0.3774992159386757   -1.2327141299720574
