ITEM: TIMESTEP
0
ITEM: NUMBER OF ATOMS
108
ITEM: BOX BOUNDS pp pp pp
0.0000000000000000e+00 1.0956000000000000e+01
0.0000000000000000e+00 1.0956000000000000e+01
0.0000000000000000e+00 1.0629000000000000e+01
ITEM: ATOMS id type x y z fx fy fz
   1 1    1.9498426099999999    1.6123894800000000    2.2463115000000000    0.2934028330646929    2.2391463791157999    3.5805991258122449
   2 1    3.2310994800000001    7.2917578000000001   10.6101818899999998    2.5019366319969247    0.3079131021153753   -1.4811393670133706
   3 1    5.0867491899999999    5.3743590899999996    2.2430686899999999    0.9859633865471187    1.2623129738990910   -0.0724878733290010
   4 1    8.9265713699999996    5.1206595400000001    7.8247845199999997    2.2869528861406363    1.8107239315347339    2.9778492209872409
   5 1    0.2592721000000000    7.0133755899999999    5.3305418199999997   -0.5435944436929736    4.8617220212413219   -1.7159494443590466
   6 1   10.7365987599999997   10.8800927800000000   10.6153213300000004    0.2323767752270006    1.5272686719525739    0.6949390035185723
   7 1    7.1881782400000001    3.5480399000000000    5.1419050200000003   -0.8002883589431879   -2.2978909082364458    0.3721054619807906
   8 1    7.2680072800000000    7.1069656900000000    5.4505338700000001   -1.7465470603405922   -0.1412051582703655   -0.5735341457872460
   9 1    1.6494264599999999    5.2833683000000002    2.6433772400000000   -0.7644597248208100    0.1151103598885495   -0.6694519998325293
  10 1   10.7283949100000005    3.2646578100000001    5.3122076399999996    3.6158548108898589    2.5689349857519788   -2.8970957738860688
  11 1   10.8235741700000005    3.6351975099999998    0.1936622900000000    0.2493087632622435    0.5913220087412379   -2.1509310940533934
  12 1    1.9354248400000000    5.1519876800000004    7.7933675300000003    0.2084039970502960    2.4132132851444466   -0.6796567959327637
  13 1    8.9461627799999999    9.0473408899999992    8.0078490599999999    0.6308095163130653   -0.4422140828970450    0.1254871061453439
  14 1    1.7098071600000000    1.6894044600000000    7.9303547200000004    0.2057390464344211    0.5501147798540784    2.2154334083826779
  15 1    7.3893707199999996    7.2870110099999996   10.4758578999999994   -2.1964358991491721   -0.2635663953288939    1.0763947706847392
  16 1    8.7307771299999999    9.0393448700000008    2.9513383800000002    1.1622089915316223   -0.9353078635183378   -2.6980559547615930
  17 1    5.0789946400000003    8.9861253300000001    2.4193840299999998    1.6845572644885365   -0.6251057238057616    0.4314129966980638
  18 1    5.4426058800000003    9.3071524599999993    7.9839223300000004   -4.8551985873041490   -4.7797821799610043    0.7632089562341116
  19 1   10.9507573300000001   10.7516530699999997    5.3004673799999997   -1.3048269320166583    0.4280376260970702   -2.4263199501946673
  20 1    3.5276752199999999    3.4735595899999998    5.1816768299999998   -0.4953319868502848   -0.1227878092129262   -1.1914731182304021
  21 1   10.9538038699999998    7.2940740100000001   10.3258917399999994   -3.6315649365651894   -2.5260967870894149   -1.0213597147517852
  22 1    1.6456279000000000    9.0987234299999997    7.9318484199999997    1.6968017017140045   -0.8878953569838870   -0.7728381879476380
  23 1    7.2406413799999996    3.7825271200000001    0.0748470800000000    0.6082368209800406   -3.2263734923814344   -1.6310825397150988
  24 1    8.9499556299999998    5.4080370699999998    2.6872656600000000    0.9740246877559808    0.8743991031879383   -0.6672580195030042
  25 1    3.8236803699999999    6.9904107199999999    4.8131646100000003   -1.8839160394448000    0.4671371266448031    2.6896005702237828
  26 1    3.7737331799999998    0.0466739800000000    0.0220746300000000   -2.8426280532340495   -2.3860813311002071   -0.3619598311148999
  27 1    7.1999626299999999    0.0728454600000000    5.2426781499999997    2.0653976799064302   -1.9521394327363772   -1.4975960030876792
  28 1    5.6696258100000003    1.6242438699999999    2.6256736900000002   -1.4488936961066001   -1.4187129702321819    0.9229359280262566
  29 1    5.3494679300000003    1.7250430200000000    7.5813982700000002    1.9247026684961912    0.6653214912233363    1.7686794395301146
  30 1    1.4256022800000001    8.9866387299999992    2.5796010100000002   -1.9242853201340191    3.2112945016965280   -0.7286992158008574
  31 1    3.3299887699999999   10.9341262399999994    5.2506655200000001    3.4446211020264599   -1.7841769061148560   -1.2630096999906106
  32 1    3.7357748000000002    3.6106027200000002   10.2165931000000008   -2.3518327897610440   -0.7578038151706911   -2.0273826266228250
  33 1    7.1817182600000002   10.9535638199999994   10.5472857399999995    3.8867704643005214    1.7517538872737297   -2.1699459480643775
  34 1    9.0363334999999996    1.7914524800000000    2.5222215200000000    0.8913402091998130    0.0736805180996380    1.9464139846904522
  35 1    5.4428051599999998    5.4758693899999997    7.8838400899999996   -1.8376593620427732    0.1736556028679428   -1.1545576107197220
  36 1    9.0497654500000007    1.7001676400000001    7.7713846300000000   -1.1695218212403609   -0.4312894529309127    3.3400069291584478
  37 2   10.5057749000000005    9.5845480799999994    1.6476423200000001    0.9790245808545528   -0.3578097610569989   -1.0102325589805419
  38 2    5.0698647899999996    7.1086391100000004    3.3652439699999999    2.9789706311198945   -0.1687817119218318   -2.1796435604284961
  39 2   10.8249983400000005    5.5721666000000001    4.0577155600000001    0.5392535949174468   -2.9863297132360964   -0.9225416720449704
  40 2   10.5201266100000002    1.7316611000000000    4.2294791399999996    1.2355015225316555   -1.9299164544694591   -0.0124905560074520
  41 2    1.7629813400000001   10.8695582599999998    3.8848047999999999    0.1421885260260589    1.4194413203596739   -1.6749977028709673
  42 2    1.7024185500000000    0.0846790300000000    1.1687234900000001   -0.6300993152733534   -0.7736261920859349   -2.7253003829439861
  43 2    2.1226030599999999    3.9810609000000001    0.6740873500000000   -2.1014663002412526   -1.4049449688806928    1.2625977437311495
  44 2    0.4495063800000000    1.9355864400000000    9.7257516200000005   -0.4822776999501043   -0.8804194544441464   -0.3936539296438177
  45 2    1.7441040500000000   10.8285213500000008    8.9739178099999997   -0.2786953574436168    0.2930170765922308   -0.1637826348692218
  46 2    1.7574875700000001   10.4756398799999992    6.2722654799999997   -4.0303484638216549    1.4584355543662146    1.1461698836440177
  47 2   10.9542293999999991    1.8100072300000001    6.7498245399999997    0.8311030697950448   -1.0133038150825362    1.5376911654523728
  48 2    1.8843236500000000    3.3871044800000001    3.3237903400000000   -1.1804504935182283   -0.4205567085054855    1.0207183562288402
  49 2    1.4719650000000000    7.5332583900000003    0.9597057000000000   -0.3053181673752579    0.9487737968653865    0.0444591131135010
  50 2    1.8063053099999999    7.1928590899999998    8.9430213199999997   -0.1159273741169158    1.5818003581197120   -0.0158864607094649
  51 2   10.7286291499999997    2.2867134199999999    1.6239633499999999    4.1573340611569813   -0.4352743205027134    0.4088047531535963
  52 2    3.7478391100000001    5.1082562500000002    6.4553532999999996   -2.0486312002856479    2.7811546535869303    2.4197563629261158
  53 2    3.5104206200000001    1.6528777100000001    6.7340960599999997   -1.5715826650230182    0.1577397714426848    0.3350493935223779
  54 2    5.3909712299999999    3.5057395499999999    8.6978579099999997   -0.3997202592491067    0.8446119391163045   -0.3088323323914801
  55 2   10.8328709900000000    5.2844045199999998    1.4801322500000000   -0.0146755573373237   -0.0252878397179956   -0.0815697871457718
  56 2    2.3622152700000001    7.5195828899999997    5.9504287099999997   -3.9014984568307094    0.0527277516196816    1.4969963792486287
  57 2   10.8529835800000001    8.6150234799999996    6.8946615600000003    0.0801041089044882    1.5769862250766766    0.5204074745444525
  58 2    3.8762220599999999    1.6630748900000001    4.1044106700000000   -1.1558762787730217   -0.3493690776090108    0.7445185154939871
  59 2    5.8673867599999996   10.6716270499999997    3.3763120500000001    0.8538331998874062    0.6699437878501442    0.1931232779936048
  60 2    5.5116577099999997   10.6540145099999997    0.7522161400000000   -1.9640356870811440   -1.0471752256157414    2.2385672347713368
  61 2    3.9002888900000001    1.6740566400000001    1.6405635100000000   -1.9935701484958086   -0.5875440942205975   -2.1719134253340062
  62 2    3.6148129999999998    1.6211643600000001    9.5406527899999993    0.6932994603142668    0.8855198773786832   -0.9540174447703537
  63 2    5.7888704700000000    0.0107577000000000    8.8401978700000008   -1.1165292155834323    1.8009810067464578    0.1271137293122129
  64 2   10.8968633500000003    9.1563911000000004    9.6441568300000000    0.3439833358079828   -1.3179779333937529   -1.4418952392397113
  65 2    3.4844188500000000    5.0834485799999998    3.7930377300000000    0.7761822958247385    0.5931833798035482    0.9606722439097645
  66 2    5.5925345699999998    3.3697822799999999    3.3712241600000001    0.0001652139794692    3.7908467979160312    0.0443057564393759
  67 2    5.3253816100000000    4.1550901700000002    0.5425526300000000    0.5237954831975511    1.4668304145562554    2.0660333469498684
  68 2    8.9840330700000006    7.0992439000000003    6.2406166699999996    1.2488344277343777   -0.5906703218607641    1.7911315704565149
  69 2    3.5141731500000000    5.4887050000000004    9.1911944400000003    2.2000678814731556    0.4880736695507528    0.8871769640554469
  70 2    5.3005107200000001    3.7454195800000001    6.0235617599999998    3.2156557210557448   -3.8395021380345455    0.0267555804095373
  71 2   10.9428808499999999    5.4587485600000001    9.1918897899999994   -0.0987191117572874   -0.8908043400559331    0.5372527360097974
  72 2    9.1598810299999993    0.0837115100000000    6.4382472000000002   -0.3941062391924902   -2.0805632026322400   -1.1523374636242605
  73 2    1.7347139899999999    3.5966836700000000    6.2946254899999996   -0.1977312908729394   -1.4750509419383964   -1.1777613647436156
  74 2    6.6201868800000003    1.9379128400000001    0.9569061200000000    1.0248278223548337   -0.2003542334231143    0.9504448631187963
  75 2    9.0192770899999992    0.7570895100000000    0.8552598300000001   -1.2517986686183116   -2.1270072137275897   -1.4502021796634403
  76 2    7.3258765400000003    8.7171040400000006    4.3839670799999997   -0.5571846266306659    2.9801574493903153   -0.3305963533192521
  77 2    7.5008020100000001    1.9078092600000001    3.9086825300000001   -2.2752876682419698   -2.8267442914218215    1.5518381140980628
  78 2    3.5114363499999999    9.5687969699999993    7.2567654399999997    2.8979145015336063    0.2632598273407977   -0.3674260113137024
  79 2    8.9451281999999992    7.2605082200000002    9.0573037999999997    1.4697087599266785   -0.4180664653522120   -4.3135393181722224
  80 2    7.3484578400000000    1.7218183400000000    9.3133880799999993    0.6239276133344092    0.5494304841158111   -0.1371087834128315
  81 2    7.7142563300000004    9.0940986899999992    9.6450297799999998   -1.8659224585090761    2.7450211119624495   -1.0560238168816705
  82 2    5.8448564000000003    7.2782907999999997    8.6964975100000004    0.5651126208472719   -0.7162480625081844   -0.0140027069745321
  83 2    9.0571913199999994    7.2096918800000003    3.6427283600000000   -0.1615049425818456   -1.0731808242620140   -0.3934100188491512
  84 2    5.1491348400000003    7.4112087700000000    6.1715991800000003    2.8388125153704160   -1.5437159691888236    0.4399041699384998
  85 2    7.3006592200000000    8.9426611299999994    1.4384127900000001   -0.5349093574745720    0.8035788253548102    1.4816966218383953
  86 2    9.0891076799999997    7.3007725099999998    0.6677890300000000    3.9385907098286403   -0.7730228239568763    2.7623202010626891
  87 2    7.6362253999999998    5.2474180500000003    9.4663071900000002   -1.3286126749913916    1.0415190950323212   -0.6414935630370819
  88 2    4.0345408599999999    8.9785132099999991    9.6397276099999996   -1.2470911227496764    0.9498583191872785    1.6442619956911277
  89 2    9.3238728500000008   10.8999822999999996    9.0311523099999995    0.1851653819752833    0.4969129513738252   -1.4796586043000226
  90 2    7.2296911899999996    5.1815925399999996    6.8325191099999998   -0.8507008327718191    0.2933856797259348    1.6306536533511480
  91 2    5.4810941900000003    0.4163562700000000    5.9070828000000004   -2.3199859628356383   -0.6258015481877334    0.9777561259183273
  92 2    0.4158410100000000    5.6138053200000000    6.4924396900000003   -1.1373439247064818   -2.5306593263879460    3.0651799333272560
  93 2   10.8613636099999997    9.2070802399999998    4.0367162700000003   -0.1165651093866394   -1.2527156796333498    2.1691349732737253
  94 2    1.5810151100000001    7.3236430500000003    3.4513526899999998    1.1426408213412333   -2.9470434593910757    1.5271245557943720
  95 2    3.9574907100000001    9.0638144399999998    4.2112619899999997   -0.8455454186546567    1.4176695920634876    0.1614891547147821
  96 2    3.2360449099999999    5.9970761100000001    1.5488692500000001    0.8734092688877055   -0.7776304639782254    0.1806044541579711
  97 2    5.2545450400000000    7.1741711099999996    0.8439352700000000   -0.9352414784057135    0.8692970525213979   -0.4097538337498440
  98 2    9.1459865199999992   10.8676504900000008    3.5999253800000002   -2.1725002166655645    0.5480884054894217    0.8750676859161733
  99 2    9.1962395000000008    3.3834953600000000    9.0509243799999997    0.8795441733813365    0.9326884862754899   -1.0100778666879804
 100 2    7.1961840099999996    5.9043847300000003    1.6130177100000000   -0.3245114910887031   -2.5452536091588533    0.7071490394954807
 101 2    8.7533348699999998    3.6848508700000000    1.3186781700000001    0.1469309276437675    0.1484794756760929   -2.1376010682606248
 102 2    9.0494758799999993    3.5659999700000000    3.5588294199999999    0.5138537348520560    2.5757809526861668    2.7672776651221533
 103 2    7.1367621699999999    5.2613336000000004    4.5414043599999996    0.6266532751830018    4.5390509892030977   -3.7780555727047442
 104 2    3.2418811700000001    9.3051311900000009    1.6329740900000000    2.0188685772227903   -0.6950478556436447   -0.7356089824570927
 105 2    9.1155543699999999    3.4867889600000002    6.2457008399999996   -2.4630114841602051    1.2662416037310862    2.4546481125317459
 106 2    7.2934387799999998    1.7093592799999999    6.7606757899999996   -0.5539128837047038    0.8534391001532007   -1.4364064951526156
 107 2    2.1277929200000001    3.5278868900000000    8.7864617900000006   -0.2013605044087650   -1.7620995199178278   -0.7861252918413042
 108 2    6.9259656700000001    9.2839186199999997    6.8249149100000004    4.8265670648656700    0.3909400888143659   -1.3451879055652181
ITEM: TIMESTEP
50
ITEM: NUMBER OF ATOMS
108
ITEM: BOX BOUNDS pp pp pp
0.0000000000000000e+00 1.0956000000000000e+01
0.0000000000000000e+00 1.0956000000000000e+01
0.0000000000000000e+00 1.0629000000000000e+01
ITEM: ATOMS id type x y z fx fy fz
   1 1    1.8662552022518488    1.6547035929706304    2.3863998818307315    1.1920241118911603    1.8927756429481573   -0.3296002592410732
   2 1    3.4927033162722947    7.2441320688109290   10.5169327001011474   -2.1315878479198846    1.0123758217662315    0.4205280541618276
   3 1    5.0404463305061560    5.2497763978487777    2.3078879615374519    1.6444690179267767   -1.4479229605481134    2.2321648032556274
   4 1    9.0883779511364224    5.3609952753300316    7.9446174652635877   -2.5404654493996359   -2.6851218612425218   -0.3713654698937274
   5 1    0.0832079794634106    7.0580579294255390    5.4393573890111560   -0.4920905397804995   -0.5053873132613091   -0.1355231108763419
   6 1   10.7190290667592478   10.9130028938330295    0.0505847350743439    0.0275287745983237    0.3823194538585906    0.7633967164338407
   7 1    7.2656684297716509    3.3864701198858316    5.0246837959491026   -4.4113299826079793    2.4718541278099928    1.0377939929252979
   8 1    7.3438893755958352    7.1167400230319426    5.5038050050191467   -0.3809842582451344   -1.0690784869678747   -1.1033818850137305
   9 1    1.6577432182459635    5.2641733054303597    2.7474212416769515    2.3855844710886793   -0.9596041035190863    0.9229550083879809
  10 1   10.5044774484988217    3.4904572242003100    5.0659481011378542   -0.0846687317997130   -1.7539847114288207    5.0557467840239543
  11 1   10.8976969872159088    3.4544044157211387    0.1327266240909802    1.4709872093678427    0.4306404399310624   -1.5531049250878399
  12 1    1.7917788110120545    5.2758997262833551    7.5413022781438750    0.4240977924054634   -0.0449092629565890    0.3939551747400858
  13 1    9.0489610813093346    9.0519877905773232    8.2339137472925845   -0.9020630242014194    2.6632794358582421   -2.1575188253271924
  14 1    1.9259005570796746    1.7879319100099158    7.9760226602074553   -2.0869531951053721   -0.0689385555545925   -0.3747949591071685
  15 1    7.1843330949877835    7.2472691114081904   10.5320243944275944   -1.3594900439761419   -0.1922472883623144   -3.4351820163073175
  16 1    8.7101460234395063    8.8638537146241703    2.9456549503459035    1.2472514473316849    1.3487016200953370   -2.3958467646838906
  17 1    5.2986298666745384    9.0005533067597661    2.5511709731657213   -0.0185669833447260    1.8777010985808216   -0.6870677876013979
  18 1    5.4662618857522904    9.1315706555482858    7.7657228857995211    0.3089157776815822   -1.3854591109737064    1.6513809896063583
  19 1    0.0947801206843849   10.7195628004185028    5.0704425128982979   -0.5416053684001123   -0.8097670425396468    1.6374202434733549
  20 1    3.5911622819347366    3.5869638469243665    5.3055112234840029   -1.9159710444268212   -0.7143806665532383   -1.8812951646371066
  21 1   10.6906355824060668    7.0267232811834113   10.2210292919221111    2.8304387070611283    1.6007745284146719    2.6230729790406726
  22 1    1.7626314158006884    9.0998258066851374    7.9300086575819320   -0.3007065124349275   -0.7411707312483435    1.2375572692754897
  23 1    7.3366671096507385    3.6364241429056112    0.0112736141820005   -0.8241673119163637   -2.2389123649468972    0.3690541519918917
  24 1    8.9804412042967989    5.4833988986731095    2.2564344292134213    0.0385944394786082   -0.2689827289502642    1.7373896120579604
  25 1    3.7878467872904844    7.2640962529704165    4.7991719524781642   -1.0387376563387078   -0.5346634755999857    4.5034575714203520
  26 1    3.6957426017997670    0.0331878662908221   10.5764013476647172   -0.0527818608573142    0.1589661132172751    0.0394091444070389
  27 1    7.2822479883685194   10.8095697361607694    5.1629548689460147    1.2759075476134678    0.2539942917085313    1.5461160096156079
  28 1    5.3945568314519177    1.5332653359876516    2.7486809234262974   -0.6773521991766037    1.4287364585464755   -1.1018439708647489
  29 1    5.4331265399410702    1.8828235535815083    7.8557470052279355    1.2101717212607461   -0.8762561754361515   -0.6139909404942846
  30 1    1.4698241768789624    9.1327111477508698    2.4194426027714999    0.0413950390070916   -1.3512839609210217   -1.3914856705480387
  31 1    3.5365048589976009   10.8023649919801983    5.1753312307976111    1.4101191600544980    1.9509547887361955    0.9197506111714381
  32 1    3.6359460149565663    3.7739759073192536   10.0485845773295637   -1.0043482509768609   -0.5572460806331677    2.4422724972703573
  33 1    7.2250165783915890   10.9188310920165428    0.1112700116267473   -0.2889675100125948   -0.2332980033162368   -0.8708962646984453
  34 1    9.0591777862382141    1.8212262181486611    2.5168179345991271   -3.1555201769579160   -1.6133614158242118    2.8657699861328481
  35 1    5.3648510407270278    5.5631091677800333    7.8663661141604937    2.0385019932222539    2.5226017425857026    1.0639811989653010
  36 1    9.0967599844446152    1.7573163230020383    7.8754434400917219   -0.5731413495512075    0.3745947020577954   -1.1015525297902879
  37 2   10.4364598915569413    9.6401042222979108    1.8931121835277605    1.7500296425075330   -1.2130777492209148    0.1115009396173177
  38 2    5.1671871565537293    7.2281631851938259    3.4307880168922686   -0.0083203960720857   -0.6321978327398072   -2.3366817121661958
  39 2    0.2306976940971507    4.9896830321486103    4.1932665385635977   -0.1407476144738125    4.5460456088344703   -0.3655550656336297
  40 2   10.6249357655635652    1.5406739132756608    4.3988414336350061   -0.2177951581848383    3.4182865877583706   -1.9162428267945526
  41 2    1.7524541452035607   10.8218264104450927    3.6280076233415128   -1.0744399442321240    0.3450589082304943   -0.4753282541268644
  42 2    1.7095054196179134   10.8485866658660779    0.7861461225248634   -0.1788911869304146    0.6915826659458753    2.1454527079162338
  43 2    1.8203308855298177    3.4546918142386591    0.9429391784927419   -0.9328279743299159   -0.5979502452103274    0.6467633416563510
  44 2    0.3127398957674797    1.7441577892971829    9.8240920119915671    0.0566945748558116   -0.5269646633970244   -0.5535385069025955
  45 2    1.8057177375999662   10.8178288941770671    9.0311266733753452    0.5056174788496599   -0.2601781489732362   -2.2079266223700471
  46 2    1.8139950584087057   11.0438856502439648    6.1680625687251709   -1.3729515946697477   -0.6829830503205137    1.3131955732419258
  47 2    0.0217444314514947    2.3079620281860755    7.3272832645904797    0.1194520689865909   -2.0225772311891661   -1.4118057166051243
  48 2    2.0205395337815939    3.3608628470806554    3.7146058463323102   -0.8568959631339292   -0.7162653088980795   -2.2870461358202059
  49 2    1.3599611850051434    7.8278645145746113    0.6930050739454431    0.6301002002538512   -0.4370617341876846    0.5358634495288461
  50 2    1.6708238017554016    7.0364558554704946    8.8855020273344358   -0.9362207677630160    1.7527375594491530   -0.1524811742419370
  51 2   10.7435091220283088    1.6851950443744113    1.6738639899207959    5.9266097042763324    0.6074365723582993    0.0308126683879895
  52 2    3.8907746587522043    5.3129677002913267    6.7317858933914687   -3.3408315203624848   -0.9893990906527137   -1.2359605892890531
  53 2    3.6515774141971242    1.7418468525428508    6.7517614327480509   -1.1922743067643400   -0.4728053611210279    0.4628315427993321
  54 2    5.1673566775123421    3.7224056600222184    8.5691854731281811   -1.1573663097562967   -0.5409267189584820    0.8286203228634496
  55 2   11.0917364123533897    5.2998267611560532    1.5479359121491956   -3.1146911308600940    0.9945513445178937   -0.5226970378414513
  56 2    1.9601102732532214    6.9828249732426571    6.2646404492949799   -2.4985905556863810   -0.1991860788958064   -0.8000184999939662
  57 2   10.8348077140998260    9.0686329087957596    7.0440222121300620    1.0012684024386787   -0.7802636005542078    0.6582791131782550
  58 2    3.7295146632584757    1.5432008924402243    4.0229045897903548   -0.2997423223024005   -0.8544238521460430    0.4507227223405903
  59 2    5.6053461077116102   10.6976941548753661    3.7864429975917115   -0.2754204617703301   -0.2141069796145740    0.0076489279600819
  60 2    5.5366950826384462    0.0939943744985091    1.1862733867614346   -2.0249627442378002   -0.6356010669103231    0.5181595983003233
  61 2    3.6257570647257920    1.8750484398895328    1.3412880577552311    0.1835920679317762   -2.2588284207415681    0.5652717052319169
  62 2    3.6130793017388791    1.8693763167503750    9.2806801914436186   -0.5366417848659164   -0.4713865212715765    0.4753831883853462
  63 2    5.4613110875596904    0.1582430822736537    9.3770315275065581   -0.5196133638058601    0.6934735360028386   -2.0631610381782703
  64 2   10.3743164336520746    9.0553557440343404    9.7585764726988291    1.4189194870110573    0.0089642764638400    0.5591692853621191
  65 2    3.4815302502989462    5.3727463921862011    4.3157865364540076    0.1981148546594363   -0.9599426681505576   -2.8482680477152527
  66 2    5.3475531585399647    3.5294251098076441    3.5028358808966549   -0.8486540810589708    2.1614327279969427   -1.9954603931254424
  67 2    5.1988926788268595    3.9659362814752974    0.7541858734321248    0.6556002026713204    0.1121230107131803   -0.6400389479043935
  68 2    9.2138200994721036    6.8607192817723703    6.3414560419847943    1.1806696927919407    0.8378078556370773    0.1861089717832872
  69 2    3.7926834047603184    5.6863558590604253    9.3228374059929831    0.3648237638425504    0.4190868350857938    0.4762855380133496
  70 2    5.3191836933376573    3.1870641205074857    5.9452485374373136    4.4078007681500235   -0.3356183202802490    2.0342452667347053
  71 2   10.8227880810723764    5.2160798599778291    9.5558365734791444   -1.4920103739155903    1.1296766896929467   -0.1773655934215781
  72 2    9.3775809926478804    0.1626116660381254    6.0262474517898310   -0.7423442666839403   -0.3591197659445722    0.7252938409727308
  73 2    1.7593267116368063    3.6544054486262452    6.2592660417516335    1.1309612717956223    0.1131967454768202    0.5683258878164904
  74 2    7.2270480366839491    2.0260387302688585    1.6574350742381283   -2.1322122036633804    0.6398624700459428   -2.9604925678761833
  75 2    8.9914655459194233    0.5029426109627728    1.0542711982257829   -1.3927164656958813   -1.4893675278023091   -3.7535566498941035
  76 2    7.1557123239364007    8.7725219140755275    4.3591117042021930    0.3187369483335045    2.1140567577788110   -1.3747451533285469
  77 2    7.0469320157971715    1.8093430342354575    3.9046852175227396    1.9415618959158960   -2.2103548457654965    2.5196607654904235
  78 2    3.4359638908130616    8.8681853835320918    7.0569989692379309    1.0235329929024495    1.1021789911195858   -0.3861225332843475
  79 2    8.9738952019453322    7.2001914358351078    9.0153105481791194   -0.4512201302567006   -1.0566099990391815   -0.4104172289212978
  80 2    7.0909268701004482    2.3791361645647906    9.0591603690973717    0.5965559991079799   -1.6996559113011469    1.1468252859181898
  81 2    7.0479842769622092    9.2851360212336616    9.4262681905984298    2.7355195035328235   -0.6532955154652655    1.2394627645765106
  82 2    5.8237029565629692    7.4385028825972466    8.8038371847281596   -0.6070905608841786   -2.6478216218503876    0.5139863206987294
  83 2    8.8604395391121766    7.0234888852605408    3.5443862617388509    1.8958418251515621   -1.7408453697511659    0.5032005635957950
  84 2    5.4696587300055164    7.4186539568422019    6.2466797285886289   -1.4330627695995677    1.3827799153867137   -0.2140290489794515
  85 2    7.2666326744956642    9.3545026681766750    1.5411593416391216   -0.1119002449728370   -1.4881761351722793    0.1811370643140615
  86 2    8.8244786470783225    7.1842467112739445    0.9542922444816820    2.8520184119289715   -0.1900331864009265    0.8193004066918670
  87 2    7.2091429377352583    5.2244330635123593    9.5275579415204845    0.6477137124823924    2.1518405284598887   -1.1874226735897082
  88 2    3.7467341619686976    9.0499918443248788    9.7431907764143819   -0.3567285451111346    0.6768800458445606   -0.5610237254029690
  89 2    9.0573446053769882    0.0473137603780127    9.0684095469407371    0.1460611530254791    0.5220790328430083   -0.0475107902263051
  90 2    7.0705252085312251    5.7148654914608876    6.9268906703206206    2.2857672531158473   -1.7341893734633631    1.1342798746730010
  91 2    5.3624732192517772   10.5395885030248824    6.4480013887162073   -0.3008549849947600    2.8522091088699018   -2.3119386819547758
  92 2   10.6402072874149258    4.8838760480951491    6.8711526410548265    2.9905102948491895    1.8276522721547395   -0.9999537054799807
  93 2   10.6293554301944493    8.7364217360347087    4.5694741229101519    0.4050607912859534    1.1276576794213549   -2.0131993907550223
  94 2    2.0563841921896588    7.3365402782506965    3.5684068920545808   -2.5568806502984347   -0.9016534926320309   -1.2938206927149423
  95 2    3.5536606764848950    9.1288127591465944    4.2351805849812836    1.0072097271183431    0.1670334327603663    0.6322897977196991
  96 2    3.1252901388947283    5.5813922083849379    1.2897024383909943    2.3429441857352113    1.0835598115480356    0.8007383174923178
  97 2    5.4968226112346850    7.5949004677666530    0.7946991750920060   -2.5548871307742389   -1.0631963340062285    1.5992004833259950
  98 2    8.7016914426520504   10.7740934384325548    3.3067326325913000   -0.7152954197228438    1.5701227843657883    3.5176365656258843
  99 2    9.4217620134101630    3.4303812456891984    8.9042662312819143   -1.3907284520444190    1.2312110887345624    2.1439597212958961
 100 2    7.2500793323237458    5.2383468833978091    1.2963501231668728   -1.0706008727512712    1.5580436434835025    2.1614671265841197
 101 2    9.1585981791081661    3.4450255652571786    1.2686765354692675   -0.1223203458848218    2.5650910200211512   -1.7719475251421748
 102 2    8.7342349917057565    3.9818904617383550    3.8355885415801283    3.2278530118669875   -1.3083467691458077   -1.4914555017584639
 103 2    6.9869886654686990    5.7116465100537734    4.2304243533844330   -1.0147215487502541   -2.4057321961614653    0.0058536816398493
 104 2    3.3627421528151893    9.3604261766408854    1.8865087887187144    2.9164433158036225   -0.3161840539622301   -1.8402203790961646