ITEM: TIMESTEP
0
ITEM: NUMBER OF ATOMS
95
ITEM: BOX BOUNDS xy xz yz pp pp pp
-1.7900940000000001e+00 1.0284637999999999e+01 0.0000000000000000e+00
0.0000000000000000e+00 1.0390295000000000e+01 -1.7900940000000001e+00
0.0000000000000000e+00 1.0500584999999999e+01 0.0000000000000000e+00
ITEM: ATOMS id type x y z fx fy fz
   1 1    3.0028553200000001    2.8161448299999998    4.0666762200000006    0.0078837762226339   -0.4910816514792100    1.1671054125106823
   2 1    2.0889445800000006    2.8336918500000001    9.4302086000000003   -0.6659899638084543   -0.8351559331606984   -1.4370534289074763
   3 1    3.0934681899999994    7.9517155199999996    4.1337153100000013   -0.7335300066818824    0.7424058510192402    0.5784871665410323
   4 1    2.1340426900000002    8.0171866400000003    9.4430420000000002   -0.5403925552418029    0.0057987873391017    0.1685447982473156
   5 1    8.1707829400000005    2.7463818899999999    4.1544045100000000   -0.4463578889002939    0.7241443531333487    0.7512537243117808
   6 1    7.2680806000000002    2.8131155400000001    9.4693111000000005    0.4576460557321318   -0.3619397389389770   -1.6867018979749486
   7 1    8.1106766199999996    7.9945290399999998    4.2066930100000013    0.7474455979771961    0.5637095757943478   -0.8714319780911961
   8 1    7.2845739299999988    8.0683090699999997    9.3766748399999997   -0.6690080847698150   -0.5353887669379283    0.5962576297591374
   9 1    0.7673900100000003    0.1758454600000000    3.7371081100000003    0.1970655484510115   -0.1003181944723088    0.0208235827135174
  10 1   -0.0365956299999997    0.1800218400000000    8.9472543600000005   -0.4444930727363434   -0.1377104910488420   -0.0870412613830278
  11 1    0.8066965599999997    5.4926494899999998    3.7009830600000004   -0.8812510115596580   -1.1561618615489031    0.1818624492545716
  12 1   -0.1242272399999997    5.4326584200000001    8.9575906100000005    0.2560947439322763    0.6683822619451891   -0.6239699454762322
  13 1    5.9354297400000000    0.1336629400000000    3.6761903300000012    0.1134011773911782    0.2565683014872334   -0.1251291009264927
  14 1    4.9978175499999988    0.3018648800000000    8.9798900699999997    0.7704917184759927   -0.6072788746152090   -0.1140575242628073
  15 1    5.9507283800000002    5.4108898200000004    3.6634232999999998    0.0203237398342748   -0.6841086515159805    0.4675142562676447
  16 1    4.9695029300000009    5.3447864499999991    9.0338157199999998    1.0476876857308770    1.5461541326551251   -0.6764730618863154
  17 1    1.2095670599999999    2.3754676899999998    1.0739110000000001    0.5417485783319569   -0.0556810629121128   -0.1608900257558268
  18 1    0.2768193200000004    2.3558957000000000    6.3243997500000004    1.2743398020323391    0.8192020125495276   -0.2502206570909105
  19 1    1.2633912199999999    7.6198939699999997    1.0727736800000003   -1.0518866964081159   -0.7269089219387798    0.5454350887380511
  20 1    0.4150114100000002    7.5643907800000001    6.2749023100000016   -1.2543795708114089    0.5183865585458508    0.6729903552285988
  21 1    6.3050119899999997    2.3824520400000000    1.0779082600000003    1.4417347128299107   -0.9713838924152105    0.8232182551366399
  22 1    5.4738214000000003    2.4461103700000000    6.2993881000000016    0.4621389781137714   -0.8217165446935611   -0.0439267719044309
  23 1    6.3745385199999998    7.5847936799999989    1.0791389300000001    0.3696269772523189    0.9205493264669874   -0.5145746673367637
  24 1    5.4908449299999997    7.5264866699999997    6.4301448500000014    0.0477221378131505   -0.2172111765633150   -0.4491826015409176
  25 1    3.4735548299999999    4.9749172000000002    1.5166047400000000   -0.6775557398845107    1.6542396605619238   -0.0984000254290395
  26 1    2.5492123300000005    4.9545872299999996    6.7992041800000020   -0.0033679237128527   -0.2685653217586862   -0.2981384987670276
  27 1    3.4219880100000002   10.1885721000000000    1.5610000600000002    0.3247477663064095   -0.9484437989076862   -0.4900320294903219
  28 1    2.5825322200000000   10.1707915000000000    6.8239413500000001    0.0686728736524590    0.1769830340145905   -0.6245456494726096
  29 1    8.5466280999999977    4.9870446499999996    1.5944611200000001    0.8879561914769336    0.5197907384218787   -0.5559893337866804
  30 1    7.6576943000000011    4.9823751400000003    6.8367720199999997    0.8729021001024501   -0.2216211473296743   -0.6280476483340018
  31 1    8.6636094899999954   10.2569239299999992    1.5329405000000005   -1.5280083740687624   -1.3735594794285024   -0.4274575875436556
  32 1    7.7439164299999970   10.1916758900000008    6.8120911300000015   -0.1717131068319873   -0.4274374253201853   -1.0609273682569056
  33 2    2.3933124499999998    1.2751677600000000    2.6375566799999999   -0.5007420576630719    0.5231304383920345    1.2001929031100751
  34 2    1.5267701100000002    1.2519257100000001    8.0607881500000005   -0.2017863505235689    0.5092993344522568   -0.1756807682648532
  35 2    2.3932496599999995    6.4994903799999992    2.7673610300000009    0.6723701242952284   -0.4646199967069017   -0.8673452436032948
  36 2    1.5147115499999990    6.4491789099999997    8.0478332600000027   -0.1093551431376828    0.3507968812483949   -0.7327066613432435
  37 2    7.4307099899999969    1.3365375200000000    2.7088358100000005    0.6271776596133274   -0.1245212971445435   -0.0179788155480727
  38 2    6.6417460999999989    1.2530614700000000    7.9333590300000001   -0.2553948668857831    0.9791087592815901    1.1218835710453425
  39 2    7.4723839400000003    6.5644048899999996    2.7532272400000002    0.1326840017132747   -0.7351786733653088   -0.2594785704589749
  40 2    6.6464461999999997    6.4706861900000003    8.0663917800000018   -0.4653373248244912    0.2270904723743539   -0.6173600103739170
  41 2    1.4619275799999998    3.9917061299999999    5.1504951500000002   -0.1500035007842133    0.0042757313806979   -0.7278922563253932
  42 2    0.6562813400000000    4.0485300300000002   10.3748925799999991   -0.0824087033494569   -0.9631110403706277    0.7933904168499507
  43 2    1.4288036400000002    9.1925641299999992    5.1794494599999998    0.3609087548174661   -0.4700422324410991    0.2419576288004158
  44 2    2.3023263500000000    9.0942053400000002    0.0059895300000000    0.1730592298138551    1.4204988724685796   -1.1020856811850961
  45 2    6.5838856400000001    3.9495691199999996    5.1505839900000012   -0.2353100325971004   -0.0597511633959486   -0.2564699453041614
  46 2    5.6760931300000008    3.8583232100000000   10.2932455900000015   -0.5415393012679517    0.7009802054774695    1.8164995682030314
  47 2    6.6149338600000007    9.1189814200000008    5.1081965900000004   -1.0413967858241613    0.2197681268604832    0.3846973007943894
  48 2    5.5648262999999982    9.2378083600000007   10.3430171100000017    0.8186950143292667   -0.9072500873244466    0.4094280116262427
  49 2    1.8830856600000003    3.8480365100000000    2.4553666999999999   -0.2810480756717630   -0.2278515147946988    0.4293760334257606
  50 2    1.0154707999999999    3.7457467499999999    7.7804972899999996   -0.1168348297139790    0.4711536182086029   -0.0744259252724229
  51 2    1.7787203599999999    8.9745663899999997    2.6407952699999999    0.3898878008820914    0.2779034241783456   -0.9135350379526658
  52 2    1.0157186400000002    9.0074028399999992    7.7684900800000003    0.0031816554822869   -0.0926811251358879    0.3093090451911301
  53 2    7.0321526700000003    3.7945870600000000    2.5719921800000005   -0.4369549381962774    0.2803353465262304   -1.1578766730004133
  54 2    6.1267641900000003    3.8534289700000000    7.7779854500000010   -0.0356077238908296   -0.4697428700071241    0.0816397007628473
  55 2    7.1150701499999984    9.0199424700000002    2.4695953099999999   -0.9580462341797592    0.2246347083257770    0.2930649807474701
  56 2    6.2217169999999999    9.0153789500000006    7.7758281000000009   -0.9549969449956874   -0.1135726890059666   -0.3819257373903249
  57 2    2.8432769699999998    1.2874414000000001    0.1686243800000000   -0.3299806987285728    0.3836551569301355   -0.9061902009302807
  58 2    1.9547901899999989    1.3195748399999998    5.3334905300000006    0.1681553206323612   -0.3899671631610872    0.1831457614736302
  59 2    2.8400921600000006    6.5699274299999990    0.1414272300000000   -0.5527845717506626   -0.8946754261368670    0.1403435299854280
  60 2    1.9587258199999997    6.4856703500000004    5.3354674700000011    0.1217783853912174   -0.0575698629002114    0.3689116412807782
  61 2    7.9343871599999991    1.3073284199999999    0.0791928900000000   -0.1528311315299691    0.5433742525257554    0.5143600144578183
  62 2    7.1605691599999997    1.2718969000000000    5.4554949300000004   -0.6231841749562207    0.3454404761182204   -1.4768245011016046
  63 2    7.9253692899999981    6.5320696699999994    0.0863707800000000   -0.0939870959315552   -0.8537528626060599    0.6519342574279636
  64 2    6.9939635399999993    6.4448478199999997    5.3590162900000005    0.5447442794722611    0.1841193910374416    0.3648677002932652
  65 2    3.7850080400000001    3.5348950399999999    5.9724310699999998    0.1355704517850440   -0.4743283632021652   -0.4437974014865387
  66 2    4.5802289999999974    8.4971346200000006    0.9463977700000001   -0.0847596062156688    0.8627018322211760   -0.6407180693985154
  67 2    3.8095621000000004    8.6130467799999995    6.0521734499999997   -0.3634940989572241    0.5014951040767923    0.2825747775231389
  68 2    9.7834995300000003    3.5198647499999995    0.8046471200000000    0.3028621598814614   -0.3960000392273806   -0.1594149786011412
  69 2    8.8470899799999998    3.3790667000000001    6.1047612200000021   -0.0540979351366548    0.7368358627776073   -0.0886928038807144
  70 2    9.8148791899999939    8.7591070000000002    0.7856917800000002    0.0772470291576579   -0.5658114602788238   -0.7651297433920563
  71 2    8.9485517899999998    8.7555783500000004    5.9064278500000000    0.6861481025120387   -0.4483640413894894    0.9281977476115145
  72 2    0.0517218000000002    0.8862711800000000    1.7780266800000004    0.6084710763532559    0.7717183350867952    0.3479447853271896
  73 2   -0.7556026199999997    0.8190797299999999    6.9531270100000002   -0.0681030434136430   -0.5645507086610593    1.1852146611316507
  74 2    0.0944747600000001    6.0166994999999996    1.7884640500000004   -0.5756210416763529    0.4672580066815895   -0.0708672191149167
  75 2   -0.8470142400000000    6.1013516200000000    7.0314589600000001    0.0888276674540200   -0.1892389648388053    0.0370154844873191
  76 2    5.2166626200000010    0.7567013900000000    1.7131853500000005    0.0976422292131771    0.7203179212530688    0.0317525028642553
  77 2    4.2435890000000001    0.9458193100000000    7.1608724700000010    0.2194014202008024    0.4842721647921349   -1.0684901061836163
  78 2    5.3310057199999985    5.9223026299999999    1.6583526600000000   -0.7786653117392656   -0.7215905283539388    0.1991878252505277
  79 2    4.3392795199999998    5.9185998399999997    7.0685461800000002    0.1921547716505428    1.0222111614918947   -0.1691509194445726
  80 2   -0.3096692699999999    1.8217274100000000    4.3747420700000008   -0.4604089543224150   -0.3187305208516655   -0.4565673330177529
  81 2   -1.2993820199999999    1.6190276100000001    9.6420677799999996   -0.0619433387926427    0.6381143086812759    0.5453625597413295
  82 2   -0.3980778799999998    6.9416332799999996    4.4529859199999997    0.1876591632035352   -0.2601757947614336   -0.4383803162425188
  83 2   -1.3498491999999989    6.8837807399999997    9.6102680100000004    0.6023476801044050    0.2770899746768611    1.0786561827422432
  84 2    4.8427237099999978    1.7095086900000001    4.3225950099999997   -0.8678090401166109    0.3503408432425317    0.7965774663556578
  85 2    3.7917982099999996    1.7871846700000000    9.7558885499999999   -0.0678856716585285    0.2660015219809908    0.1311486945031378
  86 2    4.7754204799999993    6.8898814000000002    4.3715342399999999   -0.0310796868424293   -0.1759129648819768    0.0594274911851721
  87 2    3.7602822400000004    6.9613784699999997    9.6218266400000001    1.6929353691480380   -0.9697629022135549    0.0990606248929117
  88 2    4.2409360600000001    4.2267407300000004    3.2646683099999998    0.4821892681860064    0.1459809565122169    0.2516173728557992
  89 2    3.3585448200000001    4.2617565400000004    8.6949809499999997   -1.1263254259151396   -0.5720164103668165    0.0973772412359739
  90 2    4.1744459999999997    9.4705512800000005    3.3179881800000000    0.8336027661437163    0.2064540409606788    1.2550215288589950
  91 2    3.2884953999999995    9.6012010300000004    8.7340659200000008   -0.2675302661504786   -0.5466633700332409    0.1191724091393039
  92 2    9.2354782100000001    4.4084284399999998    3.4444137600000002    0.8318735278393208   -0.2300004585471729    0.3225082270905194
  93 2    8.4867937999999992    4.3300054100000001    8.6680139799999996   -0.2458247889727625   -0.7526457825115167    0.4597828980112673
  94 2    9.3142603199999989    9.5434871000000001    3.3662337500000001    0.5582675531004120    0.1999889058963524    0.7723339951592114
  95 2    8.5632333700000007    9.3932767899999998    8.5322739700000003    0.7215400676931221    0.5390925195489151    0.9147467222830242
