(written by ASE)

95 atoms
2 atom types

0.0      10.284637999999999  xlo xhi
0.0               10.390295  ylo yhi
0.0      10.500584999999999  zlo zhi
                      0     -1.7900940000000001                       0  xy xz yz
Masses 

1 178.49 # element 72 
2 15.999 # element 8 

Atoms # atomic

     1   1      3.0028553200000001      2.8161448299999998      4.0666762199999997
     2   1      2.0889445800000002      2.8336918500000001      9.4302086000000003
     3   1      3.0934681899999998      7.9517155199999996      4.1337153100000004
     4   1      2.1340426899999998      8.0171866400000003      9.4430420000000002
     5   1      8.1707829400000005      2.7463818899999999              4.15440451
     6   1      7.2680806000000002      2.8131155400000001      9.4693111000000005
     7   1      8.1106766199999996      7.9945290399999998      4.2066930100000004
     8   1      7.2845739299999996      8.0683090699999997      9.3766748399999997
     9   1     0.76739000999999996     0.17584546000000001      3.7371081099999999
    10   1   -0.036595629999999997     0.18002183999999999      8.9472543600000005
    11   1     0.80669656000000001      5.4926494899999998              3.70098306
    12   1             -0.12422724      5.4326584200000001      8.9575906100000005
    13   1              5.93542974     0.13366294000000001      3.6761903299999998
    14   1      4.9978175499999997              0.30186488      8.9798900699999997
    15   1      5.9507283800000002      5.4108898200000004      3.6634232999999998
    16   1              4.96950293              5.34478645      9.0338157199999998
    17   1      1.2095670599999999      2.3754676899999998      1.0739110000000001
    18   1     0.27681931999999998               2.3558957      6.3243997500000004
    19   1      1.2633912199999999      7.6198939699999997      1.0727736800000001
    20   1     0.41501141000000003      7.5643907800000001      6.2749023099999999
    21   1      6.3050119899999997              2.38245204      1.0779082600000001
    22   1      5.4738214000000003              2.44611037      6.2993880999999998
    23   1      6.3745385199999998      7.5847936799999998      1.0791389300000001
    24   1      5.4908449299999997      7.5264866699999997      6.4301448499999996
    25   1      3.4735548299999999      4.9749172000000002              1.51660474
    26   1              2.54921233      4.9545872299999996      6.7992041800000003
    27   1      3.4219880100000002              10.1885721              1.56100006
    28   1              2.58253222              10.1707915      6.8239413500000001
    29   1      8.5466280999999995      4.9870446499999996      1.5944611200000001
    30   1      7.6576943000000002      4.9823751400000003      6.8367720199999997
    31   1      8.6636094900000007      10.256923929999999               1.5329405
    32   1      7.7439164299999996      10.191675890000001      6.8120911299999998
    33   2      2.3933124499999998              1.27516776      2.6375566799999999
    34   2              1.52677011      1.2519257100000001      8.0607881500000005
    35   2      2.3932496599999999      6.4994903800000001              2.76736103
    36   2      1.5147115499999999      6.4491789099999997      8.0478332600000009
    37   2      7.4307099900000004              1.33653752      2.7088358100000001
    38   2      6.6417460999999998              1.25306147      7.9333590300000001
    39   2      7.4723839400000003      6.5644048899999996      2.7532272400000002
    40   2      6.6464461999999997      6.4706861900000003              8.06639178
    41   2              1.46192758      3.9917061299999999      5.1504951500000002
    42   2     0.65628134000000005      4.0485300300000002      10.374892579999999
    43   2      1.4288036399999999      9.1925641299999992      5.1794494599999998
    44   2              2.30232635      9.0942053400000002   0.0059895299999999999
    45   2      6.5838856400000001              3.94956912      5.1505839900000003
    46   2      5.6760931299999999              3.85832321             10.29324559
    47   2      6.6149338599999998      9.1189814200000008      5.1081965900000004
    48   2               5.5648263      9.2378083600000007             10.34301711
    49   2      1.8830856600000001              3.84803651      2.4553666999999999
    50   2      1.0154707999999999      3.7457467499999999      7.7804972899999996
    51   2      1.7787203599999999      8.9745663899999997      2.6407952699999999
    52   2              1.01571864      9.0074028399999992      7.7684900800000003
    53   2      7.0321526700000003              3.79458706      2.5719921800000001
    54   2      6.1267641900000003              3.85342897      7.7779854500000001
    55   2      7.1150701500000002      9.0199424700000002      2.4695953099999999
    56   2      6.2217169999999999      9.0153789500000006               7.7758281
    57   2      2.8432769699999998      1.2874414000000001     0.16862437999999999
    58   2              1.95479019              1.31957484      5.3334905299999997
    59   2      2.8400921600000002      6.5699274299999999     0.14142722999999999
    60   2              1.95872582      6.4856703500000004      5.3354674700000002
    61   2              7.93438716      1.3073284199999999    0.079192890000000002
    62   2      7.1605691599999997               1.2718969      5.4554949300000004
    63   2      7.9253692899999999      6.5320696700000003    0.086370779999999994
    64   2      6.9939635400000002      6.4448478199999997      5.3590162899999996
    65   2      3.7850080400000001      3.5348950399999999      5.9724310699999998
    66   2      4.5802290000000001      8.4971346200000006     0.94639777000000003
    67   2               3.8095621      8.6130467799999995      6.0521734499999997
    68   2      9.7834995300000003              3.51986475     0.80464712000000005
    69   2      8.8470899799999998      3.3790667000000001      6.1047612200000003
    70   2      9.8148791899999992      8.7591070000000002     0.78569177999999995
    71   2      8.9485517899999998      8.7555783500000004              5.90642785
    72   2    0.051721799999999998     0.88627118000000005              1.77802668
    73   2             -0.75560262     0.81907973000000001      6.9531270100000002
    74   2    0.094474760000000005      6.0166994999999996              1.78846405
    75   2    -0.84701424000000003              6.10135162      7.0314589600000001
    76   2      5.2166626200000001     0.75670139000000003      1.7131853500000001
    77   2      4.2435890000000001     0.94581930999999997      7.1608724700000002
    78   2      5.3310057200000003      5.9223026299999999              1.65835266
    79   2      4.3392795199999998      5.9185998399999997      7.0685461800000002
    80   2             -0.30966927              1.82172741      4.3747420699999999
    81   2     -1.2993820199999999      1.6190276100000001      9.6420677799999996
    82   2             -0.39807788      6.9416332799999996      4.4529859199999997
    83   2              -1.3498492      6.8837807399999997      9.6102680100000004
    84   2      4.8427237099999996      1.7095086900000001      4.3225950099999997
    85   2      3.7917982100000001              1.78718467      9.7558885499999999
    86   2      4.7754204800000002      6.8898814000000002      4.3715342399999999
    87   2              3.76028224      6.9613784699999997      9.6218266400000001
    88   2      4.2409360600000001      4.2267407300000004      3.2646683099999998
    89   2      3.3585448200000001      4.2617565400000004      8.6949809499999997
    90   2      4.1744459999999997      9.4705512800000005              3.31798818
    91   2               3.2884954      9.6012010300000004      8.7340659200000008
    92   2      9.2354782100000001      4.4084284399999998      3.4444137600000002
    93   2      8.4867937999999992      4.3300054100000001      8.6680139799999996
    94   2      9.3142603200000007      9.5434871000000001      3.3662337500000001
    95   2      8.5632333700000007      9.3932767899999998      8.5322739700000003
