96
Lattice="10.28463786 0.0 0.0 0.0 10.39029534 0.0 -1.79009414 0.0 10.50058508" Properties=species:S:1:pos:R:3:forces:R:3 stress="-0.009481677720658948 0.001127303092900056 0.00048100445980493495 0.001127303092900056 -0.003476848936429069 -0.0022227008144843855 0.00048100445980493495 -0.0022227008144843855 0.0007586628741299881" pbc="T T T" energy=-972.80084712 free_energy=-972.80084712 config_type=crystal 
Hf       0.79586754       0.25293376       3.57679235      -0.16292899      -1.15955844       1.22517708 
Hf      -0.08837789       5.43954155       8.91339833       0.03045877       0.35023577       0.61824890 
Hf       0.38121578       7.58040455       6.14532818      -0.68497443       0.54600433       0.98756078 
Hf       5.97012652       5.37033688       3.79484046      -1.14025767      -0.40734830       0.00154065 
Hf       8.55291985      10.17165402       1.52079480      -0.07356004       0.54641211       0.31653754 
Hf       8.08873250       8.00759905       4.07759864       0.69068087       0.73328016       1.84491741 
Hf       6.32936409       7.54561150       1.09733046      -0.21282386      -0.31615188       0.84782657 
Hf       1.24525867       7.60705067       1.10027273      -0.50027828      -0.75972757      -0.04814957 
Hf       3.08280627       7.98597082       4.11854158       0.54601703       0.61567931       0.21714006 
Hf       3.48801643      10.17388606       1.43121841      -1.12898958       0.35274420       0.97555369 
Hf       0.88509439       5.40611119       3.63429135      -0.93652666      -0.27903711       1.23599486 
Hf       5.53498721       2.41848795       6.42314689       0.00655331      -0.86609460      -0.37489187 
Hf       2.51652515      10.18435272       6.80989750       0.72093562      -1.11215126      -1.20234237 
Hf       5.87231122       0.25965234       3.64899112       0.17530110      -0.46913716       1.15926613 
Hf       5.05550093       5.38598435       9.06715956      -0.44773899       0.50461130      -1.04902569 
Hf       7.65821152      10.18452759       6.80333401      -0.30657972      -1.18101717      -1.25302601 
Hf       7.31737489       2.87522933       9.43918846      -0.95788115      -0.85547088      -0.30641755 
Hf       2.08997313       2.80843553       9.39724818      -0.26622553      -0.57992320       0.48447824 
Hf       3.50196384       4.97532933       1.49406021      -0.16753821      -0.71536600       1.03312773 
Hf       3.05941148       2.78922751       4.27643310       0.22943069       0.38030594      -1.04237811 
Hf       1.19269633       2.40404367       1.09849561       0.75206344      -0.53228290      -0.37215459 
Hf       4.98183951       0.22964880       8.94593713       0.96125710      -0.49143522      -0.00862894 
Hf       7.78073840       5.03110714       6.78018442      -0.73169633       0.14499067       0.11581601 
Hf       0.36489325       2.36985212       6.37356984      -0.38157415       0.02737341      -1.32213875 
Hf       8.20097264       2.79693139       4.22398604      -0.79980338      -0.38361560      -0.77033157 
Hf       6.35055457       2.36670552       1.06516654       0.26715780       0.15333701      -0.09395341 
Hf       5.46566720       7.61663010       6.44360150      -0.35470982      -0.75114453      -1.77999009 
Hf       7.23747815       8.00815462       9.49497670       0.74367780      -0.30102793      -0.76171671 
Hf      -0.18772213       0.17497538       8.88566440       0.72033410       0.28354498       0.43917635 
Hf       2.57724785       4.97064965       6.87426294      -0.18564093       0.23777790      -1.16970903 
Hf       8.56805954       4.94640213       1.66885872      -0.09671303       0.52788404      -1.31383800 
Hf       2.08962214       7.97077958       9.40830330      -0.05883505      -0.06537236      -0.41916673 
O       8.89321600       3.38539969       6.06904615       0.03623104       0.88620254       0.41707758 
O       3.79762349       1.61037795       9.67832679      -0.73204475       1.04715493       0.38153673 
O       6.09340509       3.86059538       7.84071359       0.43301966       0.10626615      -0.11707073 
O       8.43805918       4.40818649       8.73120688       0.46776019       0.11785059      -0.69827636 
O       4.29298970       0.85825325       7.04764724      -0.16165383      -0.17751294       0.65934822 
O       6.56535680       3.93065226       5.22531648       0.54220408       0.50777892      -0.12351981 
O       6.62912711       1.30849623       8.01570185      -0.33486083       0.13111233      -0.17810720 
O       9.33945504       9.53152881       3.37581577      -0.14619869      -0.15508477      -0.01519749 
O       5.70562124       3.93577883      10.39392570      -0.49000841       0.27633116       0.68800605 
O       6.66120575       6.47741298       8.02718413      -0.50366957       0.14507483       0.20523310 
O       6.09290352       8.97213661       7.84144170       0.09946667       0.64517686       0.28580586 
O       3.76404149       6.85304564       9.78129154       0.36869428      -0.03170697      -0.35567422 
O       8.88249953       8.62197368       5.97670579       0.07306432       0.52632635       0.09134766 
O       8.47466424       9.48791855       8.61051452      -0.86615616      -0.74934082       0.81739483 
O       4.18981942       6.08967022       7.11306588       1.67216193       0.70022836       0.48627482 
O       7.09503058       1.33478524       5.43328277      -0.00065478      -0.35035318      -0.91486806 
O       6.54005122       9.12075513       5.18320451      -0.15846170       0.72745167      -0.14701570 
O       7.40745748       6.45917521       2.80368898       1.18696820       0.82162013      -0.90506662 
O       6.95575575       9.08513512       2.58615823       0.28923068      -0.75591592      -1.02405592 
O       4.85728970       6.90034237       4.43669545      -1.28982942       0.91173675       0.13365493 
O       9.78362414       8.67664284       0.86138242       0.36837842      -0.36627209      -0.55979890 
O       7.99879176       1.29516195       0.03621778      -0.73058350      -0.16662080       0.62349131 
O       5.24876315       5.87284689       1.77662980       0.24457596       1.41642033      -0.18266991 
O       7.86658013       6.54959343       0.14458172       1.01126584      -1.05398852      -0.04951505 
O       7.38572168       1.34706168       2.62971045       0.80488490      -0.14356425       0.78914713 
O       0.53413207       9.06718048      10.36786913       0.02837609       0.68863791      -0.22842685 
O       4.71734460       1.63532983       4.54051022      -0.15633980       0.71839516      -0.10759585 
O       1.88226887       1.24679876       5.36894485      -0.09166160       0.18871631      -0.31999080 
O       1.43387324       1.35450051       7.88048340      -0.12653403      -0.25405553       0.98735977 
O       0.94294275       3.88402799       7.76194030       0.08146743      -0.57438789       0.09765199 
O      -1.33612525       1.69677191       9.66845634       0.31752956       0.14372765      -0.07870340 
O       3.82549341       3.46295951       6.10525501      -0.62722118       0.28136095       0.34723686 
O       3.26466279       4.31744295       8.78408205       0.52103300       0.08976455      -0.27849241 
O      -0.96225913       0.83423058       6.99241993       1.97794176       0.96125644       0.39898498 
O       1.51641278       3.94007553       5.18898655      -0.62424687      -0.28226408      -0.00151579 
O       2.76744662       1.25977946       0.03419264       0.02510008      -0.45522977       0.11112216 
O       2.36961103       1.22311585       2.69017261      -0.05811509       1.17080611      -0.06544422 
O       1.88711205       3.76952475       2.56696998       0.14352052       0.41812745      -0.40883518 
O      -0.41136404       1.72680776       4.31462604       0.30180942       0.27585255       0.84928000 
O       4.57998824       3.41335260       0.82805094       0.52500613      -0.28030822      -0.45755505 
O       4.21792084       4.37302397       3.52253614      -1.07376650      -0.86519335      -0.28830256 
O      -0.05955438       0.93437692       1.74937143       0.69510041       0.08591087       0.19954080 
O       0.55511554       3.86627617      10.34392129      -0.66303306       1.16723004       0.15920604 
O       0.01468672       6.01397380       1.76869965       0.47831883       0.73665769      -0.01382605 
O       4.20325345       9.57506643       3.38059301      -0.55192458      -0.97255319      -0.25371522 
O       4.73779802       8.72426302       0.83929370      -0.60226487      -0.23184647      -0.65262636 
O       9.78387187       3.54393721       0.81090705       0.47528417      -0.63266738      -0.06145565 
O       9.39075717       4.33958935       3.40501937      -0.74657132      -0.83860028       0.92695307 
O       5.05882485       0.97517026       1.79259079       0.64656658      -0.15086611       0.20119301 
O       7.10767179       6.54120877       5.37700867       0.03996082      -1.13068451       0.87201438 
O       1.94298679       6.43017548       5.37633883       0.26360944      -0.17144482      -0.97977627 
O       1.53401725       6.55785828       7.96319377      -0.49928458      -0.78430226       0.43527264 
O       0.96541874       8.94763743       7.70044477      -0.05657902       1.41230652       0.18657567 
O       6.91036932       3.79738218       2.53494677       1.17540355       0.26271659       0.36360737 
O      -1.23537085       6.95674338       9.67929914      -0.45745315       0.09560650      -0.05296069 
O       3.27034026       9.42772944       8.66369820       0.59324640       0.68987784      -0.11081915 
O      -0.76559556       6.05076917       6.97243228      -0.24145156      -0.44381480       0.44121351 
O       1.59324825       9.10328520       5.06249598      -1.74479695       0.62558599       0.01630973 
O       2.86658329       6.49241875       0.17332140      -0.21608242      -0.61377634      -0.48909910 
O       2.32959172       6.50194270       2.70294510       0.76910647       0.40896007      -0.11321205 
O       1.84437539       9.04474731       2.49141134       0.51063920      -0.22307275      -0.51340975 
O      -0.40038125       6.92420306       4.33460624       0.30928755      -0.28924422      -0.40265693 
O       3.72952097       8.70189801       5.95114685       1.31931101      -0.42812309       1.24019729 
O       5.73914412       9.15277033      10.44779475      -1.01424755       0.12675277      -0.35166966 

