ITEM: TIMESTEP
0
ITEM: NUMBER OF ATOMS
96
ITEM: BOX BOUNDS xy xz yz pp pp pp
-1.7900941399999999e+00 1.0284637860000000e+01 0.0000000000000000e+00
0.0000000000000000e+00 1.0390295340000000e+01 -1.7900941399999999e+00
0.0000000000000000e+00 1.0500585080000000e+01 0.0000000000000000e+00
ITEM: ATOMS id type x y z fx fy fz
   1 1    0.795867540000000261990464878    0.252933759999999951961768829    3.576792349999998954501734261   -0.108361307051474398122081766   -0.901198836743956954720147223    1.306571088973625283102819594
   2 1   -0.088377889999999181824819061    5.439541549999999503484104935    8.913398329999999702977220295    0.150012904518289857946911070    0.280448765684190193248070955    0.603490047940838936213481247
   3 1    0.381215780000000226124257097    7.580404549999999019860297267    6.145328179999999029803348094   -0.527493960583825804988578057    0.330335349336979611223341635    1.213759652444262426840282387
   4 1    5.970126519999998215837422322    5.370336879999997314882875799    3.794840460000000081919324657   -0.946627619921467600150322141   -0.674095128868659188015044492   -0.190431523128585744597529583
   5 1    8.552919850000000323575477523   10.171654019999998297407728387    1.520794800000000002171418600   -0.155030337497658932122135411    0.557746715041986362848547287    0.176937019528888267450028593
   6 1    8.088732500000002545448296587    8.007599049999997831150722050    4.077598639999999718952494732    0.667278756576569653802266657    0.592724544438936851165067310    1.826518860261923338228484681
   7 1    6.329364090000000331315277435    7.545611499999998805776613153    1.097330460000000007525500223   -0.270931267518582596931508988   -0.281700318083794309931278121    0.744801966380739477457950670
   8 1    1.245258670000000122968231153    7.607050669999997793979673588    1.100272729999999921091102806   -0.511052388812477054180760661   -0.768131725037353829677044814   -0.200982167530571520508431149
   9 1    3.082806269999999848607785680    7.985970819999999470439888682    4.118541579999999591166215396    0.487609889317761391325234399    0.488716130797648751205031203    0.104218017475304264296553924
  10 1    3.488016429999999612476813127   10.173886059999995623570612224    1.431218410000000051951474234   -1.205078853982244346809693525    0.385322267749530933400592403    0.806078987843676375568691128
  11 1    0.885094390000000452722872524    5.406111189999998956068338885    3.634291349999999365394387496   -1.006346830150687710059287383   -0.441383386119717946449725332    1.327383102610880882821220439
  12 1    5.534987209999999713261331635    2.418487949999999386818672065    6.423146889999999942233444017   -0.029791208568363453101923710   -0.846139766937892168208179555    0.043172322411540398068297009
  13 1    2.516525150000000099481667348   10.184352719999997916033862566    6.809897499999999936903805065    0.666199539806400897745675138   -0.998825873708609535128744028   -1.105986827603451017054680960
  14 1    5.872311220000000275831553154    0.259652339999999925979068394    3.648991119999999810374902154    0.206249097812972070897785670   -0.450494852808117407505505980    1.074426092662180032277774444
  15 1    5.055500930000000003872173693    5.385984349999999309943632397    9.067159560000000340096448781   -0.391994789308540259042956677    0.410123046845177696706485904   -1.085374943668548475272928044
  16 1    7.658211520000000049890331866   10.184527589999998298253558460    6.803334009999999487661170861   -0.354227312101054292448054639   -1.011026763761552871301319101   -1.243309738006820097666604852
  17 1    7.317374889999999965084498399    2.875229329999998917344328220    9.439188460000000446825652034   -0.994411333102324546118211401   -0.763955406040396023392702318   -0.280353296424893538851819130
  18 1    2.089973130000001066974846253    2.808435529999999236139274217    9.397248179999998285438778112   -0.268039293765726327478660096   -0.580123732717205631281842670    0.353213020993128123947712993
  19 1    3.501963840000000161012394528    4.975329329999999217193362711    1.494060209999999999652686711   -0.132705092498900723008148361   -0.700705630335650031526029125    0.946554924126388641525409184
  20 1    3.059411479999999627921170031    2.789227509999999021772509877    4.276433100000000209206518775   -0.020615964721850298796423928    0.301919612065366105291275289   -1.137008643170270616451489332
  21 1    1.192696329999999971249735609    2.404043669999999632835852026    1.098495610000000066719394454    0.754961861490100138993852852   -0.479253779783735844866043863   -0.467261624937992836592570711
  22 1    4.981839510000001247647105629    0.229648799999999903009850755    8.945937130000000792051650933    1.102398984761328915027434050   -0.409266856704494808028016450    0.117265573682971746549696945
  23 1    7.780738399999999721501353633    5.031107139999998700830019516    6.780184419999998546302322211   -0.739036257242754679452900746    0.078271568770009403159804151    0.233085925997177090263079435
  24 1    0.364893249999999946808770801    2.369852119999999562338643955    6.373569839999999153690168896   -0.363892301093937220457519288    0.121093373847421359457143808   -1.203995627944235868866940109
  25 1    8.200972639999999813653630554    2.796931389999999684192744098    4.223986039999999775318428874   -0.705362089384498514021970550   -0.282490246054306060052851990   -0.895423479490774165689970232
  26 1    6.350554569999999898755049799    2.366705519999999118851974345    1.065166540000000106047650661    0.309113304138761590955652991    0.198999116123515451537429044   -0.290908166382276789363459102
  27 1    5.465667200000000391924004361    7.616630099999998293469616328    6.443601499999999759893398732   -0.309329083721655961891627840   -0.946414925028148168451025413   -1.625268450224386374003415767
  28 1    7.237478150000002052877334791    8.008154619999997336776687007    9.494976700000000491286300530    0.686289948788726289485850884   -0.464918778120211206861256414   -0.740041387213246637521990579
  29 1   -0.187722130000000042571173253    0.174975379999999930413778770    8.885664399999999574220055365    0.868387806997188427260425669    0.391895982300216716431862096    0.603133368186926976939332690
  30 1    2.577247850000000450876314062    4.970649649999998587190930266    6.874262939999998600626440748   -0.373558496766542291744883642    0.014511089799101477282317063   -1.061012176138750318088455060
  31 1    8.568059540000000140480551636    4.946402129999998287246398831    1.668858720000000017691377252   -0.139706862543673038246083706    0.359463777351407554050410909   -1.673312222643760671658696992
  32 1    2.089622140000001238036020368    7.970779579999999420181211462    9.408303300000000035652192309   -0.172803756981207257137356237   -0.125203884807761622877109176   -0.340154378213591346291622131
  33 2    8.893216000000000676095623930    3.385399689999999406353481390    6.069046150000000139357325679   -0.076295339932695549478580688    0.903404013094354807478225666    0.437284900718867219904240073
  34 2    3.797623489999998547261839121    1.610377949999999502850300814    9.678326789999999846259015612   -0.783290598330677267924215812    1.029291009374651011398782430    0.324840064727681010481319390
  35 2    6.093405090000000967620508163    3.860595379999999465781002073    7.840713589999999122426288523    0.469887119401551867081678893    0.098085935790663172917369650   -0.221428991559458610005606261
  36 2    8.438059179999999770416252431    4.408186489999999402300545626    8.731206880000000225550138566    0.435033882447024344841679522    0.125230756880272742215254311   -0.751759014784745827064682544
  37 2    4.292989699999999686497176299    0.858253249999999856534316223    7.047647239999998092230271141   -0.227114358424128803815023048   -0.224196365953222787048559894    0.675433979886637780865044078
  38 2    6.565356800000002657213826751    3.930652259999999564854533673    5.225316480000000041172825149    0.493843056893755627534403629    0.474458809809176540461805871   -0.183556073470987068940729614
  39 2    6.629127109999998879175109323    1.308496229999999815873934494    8.015701849999999240026227199   -0.317496258361844752027280947    0.118471523361032129995074058   -0.264733384489717171739187052
  40 2    9.339455040000000707323124516    9.531528809999997520208125934    3.375815769999999993444816937   -0.223829612887470275062185010   -0.146342253326913307454049118    0.086889120631245223003169542
  41 2    5.705621240000000149450443132    3.935778829999999395283794001   10.393925700000000489353624289   -0.565615378692250980741107469    0.302221215541242538282773467    0.755671579275474458725625482
  42 2    6.661205750000002367983142904    6.477412979999999542712885159    8.027184130000000195082066057   -0.508689271921774377460678807    0.241784453396938048275188748    0.123441777856767409549121339
  43 2    6.092903520000000128220563056    8.972136609999997958198036940    7.841441699999998071746176720    0.126925739994222075424090690    0.640983262452641033846134633    0.256951766825821659168127553
  44 2    3.764041489999999878790504226    6.853045639999998606128883694    9.781291539999999784527062729    0.280136588885916193447656042    0.003501654746166732445900038   -0.378195161546194258406217159
  45 2    8.882499530000000476093191537    8.621973679999998196876731527    5.976705789999999574035882688    0.061408211617884456146043703    0.503458903057782847234591372   -0.029897055948984271878110519
  46 2    8.474664240000000958730197453    9.487918549999998063526618353    8.610514520000000615596036369   -0.943611381032012142000553467   -0.808339213392736066765564829    0.824195566167663984380453712
  47 2    4.189819420000001848336523835    6.089670219999998579396560672    7.113065879999998841753949819    1.775880364907546526964665645    0.787707904734864516882453245    0.383328630396294500748410883
  48 2    7.095030580000001307894308411    1.334785239999999761906224194    5.433282769999999040066995803   -0.083696188458440956559059032   -0.417808314455800022813036776   -1.028300642312073298612062899
  49 2    6.540051220000001386267740600    9.120755129999997379286469368    5.183204510000000375669060304   -0.113877252306409548765486761    0.769899720504888862571135633   -0.223977077665984403154197935
  50 2    7.407457480000001481812432758    6.459175209999997946397343185    2.803688979999999553172074229    1.199960738878130150908418727    0.941934394409925324076482411   -0.808495708049041583720395465
  51 2    6.955755749999999792976268509    9.085135119999998565276655427    2.586158230000000113335545393    0.347274701457134071791443830   -0.859494111197172783178643840   -1.006130603063417616738206561
  52 2    4.857289699999999932344962872    6.900342369999998837215571257    4.436695450000000207069206226   -1.361687375208051609121184811    1.001591248356237473515761849    0.179143936504138984178169380
  53 2    9.783624140000000579675543122    8.676642839999997747213456023    0.861382419999999870974249916    0.313570805436469646210184692   -0.193698023352258552609583830   -0.506366495021766449546873901
  54 2    7.998791759999998696173406643    1.295161949999999784211013321    0.036217779999999991091819140   -0.812030754876320814972245898   -0.212990042082494723807428727    0.722517262426932482810570946
  55 2    5.248763150000001154182882601    5.872846889999997266329501144    1.776629799999999592685639982    0.160109327524626227079451724    1.542412174912248579161655471   -0.156345316574918902219337724
  56 2    7.866580130000000004031335266    6.549593429999998939194938430    0.144581719999999996906225874    1.083365205740511871823628098   -1.113877989595447370874126136    0.037097351146409801581071974
  57 2    7.385721679999999622623363393    1.347061679999999705970026298    2.629710449999999699599584346    0.777636511614343550746752953   -0.248222621259462594700551108    0.923909084331505869869261005
  58 2    0.534132070000000291898345495    9.067180479999997544382495107   10.367869130000000765789991419    0.037005217748619367856832696    0.690959788431203647540712609   -0.249082665363365041155674362
  59 2    4.717344599999999665840277885    1.635329829999999873280103202    4.540510219999999819151526026   -0.162374318765352299021031968    0.834733698434857895875893519   -0.221970271584390782537710152
  60 2    1.882268870000000093867242867    1.246798759999999672842818654    5.368944850000000101886143966    0.036814010784040264445682311    0.143469020843201150450241244   -0.461605899297685640103594551
  61 2    1.433873239999999826821408533    1.354500509999999824373162483    7.880483400000000138163613883   -0.123938212397190647418021570   -0.354612007800069573004719814    1.084662439787107635069673961
  62 2    0.942942749999999829668695384    3.884027989999998542458570228    7.761940300000000014790657588    0.092325361816317508267815128   -0.568821256532236474434682805    0.111586028815248844425767061
  63 2   -1.336125249999999375916104327    1.696771909999999827789451956    9.668456340000000537315827387    0.431620237291894470743613965    0.051721832870722850294953332   -0.111068504674506796092714467
  64 2    3.825493409999999983028828865    3.462959509999999685447846787    6.105255009999999593617303617   -0.551014389967380502355354110    0.330375377057870789343496654    0.301658494308428670738209121
  65 2    3.264662790000000036627625377    4.317442949999999335375377996    8.784082050000000307932168653    0.568887419799626758987187714    0.097783966435875030454027979   -0.266507536311615111923600807
  66 2   -0.962259129999999851534653317    0.834230579999999943829891436    6.992419929999998728931132064    1.912581238689165630262323248    0.974011012749082749628826150    0.344115996482816488555300793
  67 2    1.516412780000000015689920474    3.940075529999999659480636183    5.188986550000000086413365352   -0.568026151875204665664398362   -0.227799237632780871010140800   -0.186692500633830194001205882
  68 2    2.767446619999999413153091155    1.259779459999999851049778954    0.034192640000000003308588958   -0.036642571279864477595822336   -0.512688408014162599890539695    0.191380976148381620749461263
  69 2    2.369611030000000173600938069    1.223115849999999671382511224    2.690172609999999853158669794   -0.017115346738931936504402032    1.202611274497360938084966619   -0.017420398645085662103770829
  70 2    1.887112050000000040839154281    3.769524749999999535532424488    2.566969980000000095543555290    0.269321233111932178960756801    0.551338006883314912798255136   -0.361812818034154548563208209
  71 2   -0.411364039999999708818734234    1.726807759999999358768718594    4.314626040000000273266778095    0.234193585997359177142129738    0.195569594411466485261996695    0.819022525533740441971986002
  72 2    4.579988239999999599660895910    3.413352599999999181790144576    0.828050940000000013085923456    0.545307778201099768722315275   -0.319595794812765232606466270   -0.318173532729112917838421026
  73 2    4.217920840000000559655290999    4.373023969999999316371486202    3.522536140000000148830849866   -1.072371809350583182762761680   -0.886858264008341001805035830   -0.246499649103005952222034125
  74 2   -0.059554379999999962347345672    0.934376919999999722143968484    1.749371430000000060545062297    0.696151946164450752263519462    0.047802017491372028601404054    0.126164283278831168555456088
  75 2    0.555115540000001406184537700    3.866276169999999456905470652   10.343921290000000823283698992   -0.718978148448996434716207204    1.251396146586868374228629364    0.254490476130375453678311715
  76 2    0.014686720000000152985819568    6.013973799999998703924575238    1.768699650000000067606720222    0.547167934652555310037769232    0.676454345625950970166684328    0.096018574343312096397440314
  77 2    4.203253450000000057684701460    9.575066429999996131527950638    3.380593010000000120385266200   -0.471598428699721072820949530   -1.030245334615627728069853219   -0.148123318809473658586028932
  78 2    4.737798019999999610263330396    8.724263019999998647335814894    0.839293700000000031380409382   -0.558691158880610938552990774   -0.255617823546221700770075813   -0.630051267051284114018017135
  79 2    9.783871870000000470213308290    3.543937209999999726761643615    0.810907049999999962608399073    0.506315950462532637921242440   -0.589672336689696097167256994    0.064077578657655009930493861
  80 2    9.390757170000000542131601833    4.339589349999998901807884977    3.405019370000000211717861021   -0.802289728348316355521774312   -0.807530147783983132114826731    1.016251584718328437872969516
  81 2    5.058824850000000594718585489    0.975170259999999844424678486    1.792590789999999545401010437    0.617065092469644804751283118   -0.166464562151642070375601179    0.262621643305051000183425458
  82 2    7.107671790000001266207618755    6.541208769999999006472535257    5.377008670000000378763616027   -0.091172777056533871320453954   -1.036255467115347217443854788    0.837462983835374874530543821
  83 2    1.942986789999999963640675560    6.430175479999998167102148727    5.376338829999999902042873146    0.237794052127186461564889441   -0.067816016330089684549520257   -0.989961912392209875122262019
  84 2    1.534017250000000665011157253    6.557858279999997819231793983    7.963193770000000171194187715   -0.510954768516128865485370625   -0.761549954698140796338634573    0.405708538932835316437319761
  85 2    0.965418740000000052958739616    8.947637429999998559537743859    7.700444769999999827803094377   -0.043392135472143156249558160    1.366090075228309386190517216    0.052265692657975704182859999
  86 2    6.910369319999999149217728700    3.797382179999999163300117289    2.534946769999999904854348642    1.187843578309108139023919648    0.326162118168531800499465589    0.485465445054743205410829887
  87 2   -1.235370849999999798285443831    6.956743379999997145546331012    9.679299139999999468386704393   -0.434545324615595141004575908    0.158364463585516479504633480    0.030951990686302891658820968
  88 2    3.270340260000000220941274165    9.427729439999998461985342146    8.663698200000000682052814227    0.606987901150073949629870640    0.730099278781298544060973654   -0.150346977508303614179396845
  89 2   -0.765595559999999730749209448    6.050769169999998808862073929    6.972432279999998705477537442   -0.059495243189607194267409795   -0.264058675419703237086110903    0.374476621926395081274563381
  90 2    1.593248250000000920678644434    9.103285199999998411612978089    5.062495979999999562437551504   -1.825713595804467903604972889    0.700170611236271334121283871    0.018848568621292943747747017
  91 2    2.866583289999999895059090704    6.492418749999998794919520151    0.173321399999999986585308420   -0.253287179839106091350231509   -0.706407237796312870159454178   -0.467191419130154050876058136
  92 2    2.329591720000000698576059222    6.501942699999998076521023904    2.702945099999999989393018041    0.845513815915304056680668054    0.375847291262798810507206326   -0.079141058220470544837255034
  93 2    1.844375390000000392021206608    9.044747309999996431884028425    2.491411339999999974281763571    0.616856431919320935541861672   -0.236737172989944427703434826   -0.535288756052720748890294544
  94 2   -0.400381250000000021849189125    6.924203059999997300621998875    4.334606240000000276779701380    0.241362817426301889955908564   -0.293410554979664839336805926   -0.434904887305764931149099084
  95 2    3.729520969999999380206645583    8.701898009999998961916389817    5.951146849999999766112068755    1.435124080141655156239721691   -0.376251524304531237419269019    1.232011040553212533055216227
  96 2    5.739144120000000626191649644    9.152770329999997400705069595   10.447794749999999908141035121   -1.044542566188135568339134807    0.111722362341879391522958542   -0.344702926136703446946540907
