LAMMPS (2 Aug 2023 - Development - patch_2Aug2023-219-g06e2d5d306)
# Siviraman GAP test

units          metal
boundary       p p p
atom_style     atomic

read_data      mod_test_nonorthog_DATA
Reading data file ...
  triclinic box = (0 0 0) to (10.284638 10.390295 10.500585) with tilt (0 -1.7900941 0)
  1 by 1 by 1 MPI processor grid
  reading atoms ...
  96 atoms
  read_data CPU = 0.017 seconds

pair_style     quip
pair_coeff     * * ../../../lammps_related/hfo2_gap/siviraman_gap/gap.xml "Potential xml_label=GAP_2020_2_11_0_18_44_47_601" 72 8

variable dumpf    equal  1

thermo       1
thermo_style custom step temp pe ke etotal press pxx pyy pzz pxy pxz pyz

fix thermo_out all print 1 "$(step) $(pe) $(pxx) $(pyy) $(pzz) $(pxy) $(pxz) $(pyz)" file thermo.dat screen no title "step pe pxx pyy pzz pxy pxz pyz"

dump           run_forces all custom ${dumpf} dump_run_forces.custom id type x y z fx fy fz
dump           run_forces all custom 1 dump_run_forces.custom id type x y z fx fy fz
dump_modify    run_forces sort id format line "%4d %1d %32.27f %32.27f %32.27f %32.27f %32.27f %32.27f"

run 0
WARNING: No fixes with time integration, atoms won't move (src/verlet.cpp:60)
Neighbor list info ...
  update: every = 1 steps, delay = 0 steps, check = yes
  max neighbors/atom: 2000, page size: 100000
  master list distance cutoff = 6
  ghost atom cutoff = 6
  binsize = 3, bins = 5 4 4
  1 neighbor lists, perpetual/occasional/extra = 1 0 0
  (1) pair quip, perpetual
      attributes: full, newton on
      pair build: full/bin/atomonly
      stencil: full/bin/3d
      bin: standard
Per MPI rank memory allocation (min/avg/max) = 3.085 | 3.085 | 3.085 Mbytes
   Step          Temp          PotEng         KinEng         TotEng         Press           Pxx            Pyy            Pzz            Pxy            Pxz            Pyz      
         0   0             -972.43831      0             -972.43831     -2937.6293      5615.1679     -785.97103     -13642.085     -3449.6825      1165.0775      4210.6424    
Loop time of 3.33e-07 on 1 procs for 0 steps with 96 atoms

300.3% CPU use with 1 MPI tasks x no OpenMP threads

MPI task timing breakdown:
Section |  min time  |  avg time  |  max time  |%varavg| %total
---------------------------------------------------------------
Pair    | 0          | 0          | 0          |   0.0 |  0.00
Neigh   | 0          | 0          | 0          |   0.0 |  0.00
Comm    | 0          | 0          | 0          |   0.0 |  0.00
Output  | 0          | 0          | 0          |   0.0 |  0.00
Modify  | 0          | 0          | 0          |   0.0 |  0.00
Other   |            | 3.33e-07   |            |       |100.00

Nlocal:             96 ave          96 max          96 min
Histogram: 1 0 0 0 0 0 0 0 0 0
Nghost:            826 ave         826 max         826 min
Histogram: 1 0 0 0 0 0 0 0 0 0
Neighs:              0 ave           0 max           0 min
Histogram: 1 0 0 0 0 0 0 0 0 0
FullNghs:         7416 ave        7416 max        7416 min
Histogram: 1 0 0 0 0 0 0 0 0 0

Total # of neighbors = 7416
Ave neighs/atom = 77.25
Neighbor list builds = 0
Dangerous builds = 0
Total wall time: 0:00:02
