(written by ASE)

96 atoms
2 atom types

0.0             10.28463786  xlo xhi
0.0             10.39029534  ylo yhi
0.0             10.50058508  zlo zhi
                      0     -1.7900941399999999                       0  xy xz yz

Atoms # atomic

     1   1     0.79586754000000004     0.25293375999999995      3.5767923499999998
     2   1   -0.088377890000000001      5.4395415499999995      8.9133983299999997
     3   1              0.38121578       7.580404549999999      6.1453281799999999
     4   1              5.97012652      5.3703368799999991      3.7948404600000001
     5   1      8.5529198500000003      10.171654019999998               1.5207948
     6   1      8.0887325000000008      8.0075990499999978      4.0775986399999997
     7   1      6.3293640900000003      7.5456114999999988              1.09733046
     8   1      1.2452586699999999      7.6070506699999987      1.1002727299999999
     9   1      3.0828062699999998      7.9859708199999995      4.1185415799999996
    10   1      3.4880164300000001      10.173886059999997      1.4312184100000001
    11   1     0.88509439000000001       5.406111189999999      3.6342913499999998
    12   1      5.5349872099999997      2.4184879499999994      6.4231468899999999
    13   1      2.5165251500000001      10.184352719999998      6.8098974999999999
    14   1      5.8723112200000003     0.25965233999999993      3.6489911199999998
    15   1              5.05550093      5.3859843499999993      9.0671595600000003
    16   1              7.65821152      10.184527589999998      6.8033340100000004
    17   1              7.31737489      2.8752293299999994      9.4391884600000004
    18   1      2.0899731300000002      2.8084355299999997      9.3972481800000001
    19   1      3.5019638400000002      4.9753293299999992              1.49406021
    20   1      3.0594114800000001      2.7892275099999995      4.2764331000000002
    21   1              1.19269633      2.4040436699999996      1.0984956100000001
    22   1      4.9818395100000004     0.22964879999999996      8.9459371300000008
    23   1      7.7807383999999997      5.0311071399999987      6.7801844200000003
    24   1              0.36489325      2.3698521199999996              6.37356984
    25   1      8.2009726399999998      2.7969313899999997      4.2239860399999998
    26   1      6.3505545699999999      2.3667055199999996      1.0651665400000001
    27   1      5.4656672000000004      7.6166300999999992      6.4436014999999998
    28   1      7.2374781500000003      8.0081546199999973      9.4949767000000005
    29   1    -0.18772212999999999     0.17497537999999999      8.8856643999999996
    30   1              2.57724785      4.9706496499999995      6.8742629400000004
    31   1      8.5680595400000001      4.9464021299999992              1.66885872
    32   1      2.0896221399999999      7.9707795799999994               9.4083033
    33   2      8.8932160000000007      3.3853996899999994      6.0690461500000001
    34   2      3.7976234899999999      1.6103779499999997      9.6783267899999998
    35   2      6.0934050900000001      3.8605953799999995              7.84071359
    36   2      8.4380591799999998      4.4081864899999994      8.7312068800000002
    37   2      4.2929896999999997     0.85825324999999986      7.0476472399999999
    38   2               6.5653568      3.9306522599999996              5.22531648
    39   2      6.6291271099999998      1.3084962299999998      8.0157018499999992
    40   2      9.3394550400000007      9.5315288099999975              3.37581577
    41   2      5.7056212400000001      3.9357788299999994              10.3939257
    42   2      6.6612057499999997      6.4774129799999995      8.0271841300000002
    43   2      6.0929035200000001       8.972136609999998      7.8414416999999998
    44   2      3.7640414899999999      6.8530456399999995      9.7812915399999998
    45   2      8.8824995300000005      8.6219736799999982      5.9767057899999996
    46   2      8.4746642399999992      9.4879185499999981      8.6105145200000006
    47   2      4.1898194200000001      6.0896702199999995      7.1130658799999997
    48   2      7.0950305800000004      1.3347852399999998      5.4332827699999999
    49   2      6.5400512199999996      9.1207551299999974      5.1832045100000004
    50   2      7.4074574799999997      6.4591752099999988              2.80368898
    51   2      6.9557557499999998      9.0851351199999986      2.5861582300000001
    52   2      4.8572896999999999      6.9003423699999988      4.4366954500000002
    53   2      9.7836241400000006      8.6766428399999977     0.86138241999999998
    54   2      7.9987917599999996      1.2951619499999998    0.036217779999999998
    55   2      5.2487631500000003       5.872846889999999               1.7766298
    56   2              7.86658013      6.5495934299999989              0.14458172
    57   2      7.3857216799999996      1.3470616799999997      2.6297104500000001
    58   2     0.53413206999999996      9.0671804799999975      10.367869130000001
    59   2      4.7173445999999997      1.6353298299999999      4.5405102199999998
    60   2      1.8822688700000001      1.2467987599999997      5.3689448500000001
    61   2              1.43387324      1.3545005099999998      7.8804834000000001
    62   2     0.94294275000000005      3.8840279899999994               7.7619403
    63   2             -1.33612525      1.6967719099999998      9.6684563400000005
    64   2              3.82549341      3.4629595099999997      6.1052550099999996
    65   2              3.26466279      4.3174429499999993      8.7840820500000003
    66   2    -0.96225912999999996     0.83423057999999994      6.9924199299999996
    67   2              1.51641278      3.9400755299999997      5.1889865500000001
    68   2      2.7674466199999999      1.2597794599999999    0.034192640000000003
    69   2      2.3696110300000002      1.2231158499999997      2.6901726099999999
    70   2              1.88711205      3.7695247499999995      2.5669699800000001
    71   2    -0.41136403999999999      1.7268077599999998      4.3146260400000003
    72   2      4.5799882399999996      3.4133525999999996     0.82805094000000001
    73   2      4.2179208399999997      4.3730239699999993      3.5225361400000001
    74   2   -0.059554379999999997     0.93437691999999994      1.7493714300000001
    75   2     0.55511553999999996      3.8662761699999995      10.343921290000001
    76   2              0.01468672      6.0139737999999987      1.7686996500000001
    77   2      4.2032534500000001      9.5750664299999979      3.3805930100000001
    78   2      4.7377980199999996      8.7242630199999986     0.83929370000000003
    79   2      9.7838718700000005      3.5439372099999997     0.81090704999999996
    80   2      9.3907571700000005      4.3395893499999989      3.4050193700000002
    81   2      5.0588248499999997     0.97517025999999984              1.79259079
    82   2      7.1076717900000004       6.541208769999999      5.3770086700000004
    83   2              1.94298679      6.4301754799999991      5.3763388299999999
    84   2              1.53401725      6.5578582799999987      7.9631937700000002
    85   2     0.96541874000000005      8.9476374299999986      7.7004447699999998
    86   2              6.91036932      3.7973821799999996      2.5349467699999999
    87   2             -1.23537085      6.9567433799999989      9.6792991399999995
    88   2      3.2703402600000002      9.4277294399999985      8.6636982000000007
    89   2    -0.76559555999999995      6.0507691699999988      6.9724322799999996
    90   2              1.59324825      9.1032851999999984      5.0624959799999996
    91   2      2.8665832899999999      6.4924187499999988     0.17332139999999999
    92   2      2.3295917199999998       6.501942699999999               2.7029451
    93   2      1.8443753899999999      9.0447473099999982              2.49141134
    94   2    -0.40038125000000002      6.9242030599999991      4.3346062400000003
    95   2      3.7295209699999998       8.701898009999999      5.9511468499999998
    96   2      5.7391441199999997      9.1527703299999974             10.44779475
