LAMMPS (27 Jun 2024)
OMP_NUM_THREADS environment is not set. Defaulting to 1 thread. (src/comm.cpp:98)
  using 1 OpenMP thread(s) per MPI task
Reading data file ...
  orthogonal box = (0 0 0) to (22.422218 22.19224 20.321894)
  5 by 2 by 2 MPI processor grid
  reading atoms ...
  448 atoms
  read_data CPU = 0.005 seconds
**************** Begin of POD Potentials ****************
species: Hf 
periodic boundary conditions: 1 1 1
number of environment clusters: 8
number of principal compoments: 2
inner cut-off radius: 1
outer cut-off radius: 5
cut-off function type: 1
gaussian_exponents: 
polynomial_degrees: 
bessel polynomial degree: 4
inverse polynomial degree: 10
one-body potential: 1
two-body radial basis functions: 8
three-body radial basis functions: 8
three-body angular degree: 6
four-body radial basis functions: 7
four-body angular degree: 5
five-body radial basis functions: 0
five-body angular degree: 0
six-body radial basis functions: 0
six-body angular degree: 0
seven-body radial basis functions: 0
seven-body angular degree: 0
number of local descriptors per element for one-body potential: 1
number of local descriptors per element for two-body potential: 8
number of local descriptors per element for three-body potential: 56
number of local descriptors per element for four-body potential: 112
number of local descriptors per element for five-body potential: 0
number of local descriptors per element for six-body potential: 0
number of local descriptors per element for seven-body potential: 0
number of local descriptors per element for all potentials: 177
number of global descriptors: 1409
**************** End of POD Potentials ****************

**************** Begin of Model Coefficients ****************
total number of coefficients for POD potential: 1409
total number of elements for PCA projection matrix: 352
total number of elements for PCA centroids: 16
**************** End of Model Coefficients ****************


CITE-CITE-CITE-CITE-CITE-CITE-CITE-CITE-CITE-CITE-CITE-CITE-CITE

Your simulation uses code contributions which should be cited:
- Type Label Framework: https://doi.org/10.1021/acs.jpcb.3c08419
The log file lists these citations in BibTeX format.

CITE-CITE-CITE-CITE-CITE-CITE-CITE-CITE-CITE-CITE-CITE-CITE-CITE

Neighbor list info ...
  update: every = 1 steps, delay = 0 steps, check = no
  max neighbors/atom: 2000, page size: 100000
  master list distance cutoff = 7
  ghost atom cutoff = 7
  binsize = 3.5, bins = 7 7 6
  1 neighbor lists, perpetual/occasional/extra = 1 0 0
  (1) pair pod, perpetual
      attributes: full, newton on
      pair build: full/bin/atomonly
      stencil: full/bin/3d
      bin: standard
Setting up Verlet run ...
  Unit style    : metal
  Current step  : 0
  Time step     : 0.001
Per MPI rank memory allocation (min/avg/max) = 2.586 | 2.586 | 2.586 Mbytes
   Step          Temp          TotEng         PotEng         KinEng         Press          Volume    
         0   300           -3231.7429     -3249.0767      17.333785      27701.818      10112.159    
       100   317.19783     -3235.7935     -3254.1209      18.327464      9277.4149      10112.159    
       200   243.74627     -3236.3964     -3250.4799      14.083485      10214.177      10112.159    
       300   355.95542     -3235.181      -3255.7479      20.56685       8951.8313      10112.159    
       400   331.88622     -3237.6411     -3256.8172      19.176148      8760.6119      10112.159    
       500   313.31103     -3240.0971     -3258.2         18.102887      8443.6224      10112.159    
       600   258.7177      -3241.5912     -3256.5397      14.948524      8443.6042      10112.159    
       700   269.46837     -3240.8585     -3256.4282      15.56969       8768.3076      10112.159    
       800   319.83848     -3239.4542     -3257.9343      18.480039      8517.0345      10112.159    
       900   304.65171     -3238.9959     -3256.5985      17.602558      8593.3463      10112.159    
      1000   317.24237     -3238.9677     -3257.2977      18.330037      8299.6313      10112.159    
      1100   292.27911     -3239.8764     -3256.7641      16.887678      8770.6748      10112.159    
      1200   301.51485     -3240.2957     -3257.717       17.421312      8593.6503      10112.159    
      1300   296.33739     -3240.88       -3258.0022      17.122163      7964.5124      10112.159    
      1400   314.29636     -3240.4114     -3258.5713      18.159819      8311.8388      10112.159    
      1500   309.78497     -3239.0277     -3256.9269      17.899154      8719.4745      10112.159    
      1600   312.53179     -3238.0519     -3256.1097      18.057863      8665.6937      10112.159    
      1700   295.86129     -3238.7168     -3255.8114      17.094654      9150.0861      10112.159    
      1800   279.67997     -3239.6189     -3255.7786      16.159709      8857.2238      10112.159    
      1900   308.47231     -3239.8334     -3257.6567      17.82331       8679.7476      10112.159    
      2000   299.84354     -3240.1876     -3257.5124      17.324745      8314.5559      10112.159    
      2100   312.8123      -3239.967      -3258.041       18.074071      8458.4697      10112.159    
      2200   272.4647      -3240.4063     -3256.1491      15.742815      8832.0514      10112.159    
      2300   300.33017     -3240.3956     -3257.7485      17.352863      8401.974       10112.159    
      2400   300.45466     -3240.1739     -3257.5339      17.360055      8798.4791      10112.159    
      2500   312.40333     -3239.4553     -3257.5058      18.050441      8791.7824      10112.159    
      2600   312.50207     -3238.4792     -3256.5354      18.056146      8907.9029      10112.159    
      2700   305.29801     -3238.6358     -3256.2757      17.639901      8868.8794      10112.159    
      2800   290.79653     -3240.4594     -3257.2614      16.802016      8685.8188      10112.159    
      2900   303.09779     -3241.1262     -3258.639       17.512774      8222.5292      10112.159    
      3000   294.4121      -3240.7316     -3257.7425      17.01092       8391.9313      10112.159    
      3100   301.42207     -3239.8083     -3257.2242      17.415952      9031.2579      10112.159    
      3200   293.53777     -3239.7811     -3256.7415      16.960402      9130.0327      10112.159    
      3300   313.65947     -3239.3498     -3257.4728      18.12302       8478.6984      10112.159    
      3400   305.77377     -3238.6188     -3256.2861      17.66739       9111.8274      10112.159    
      3500   325.19045     -3237.863      -3256.6522      18.789271      9125.2488      10112.159    
      3600   299.28509     -3239.2573     -3256.5497      17.292478      9101.7041      10112.159    
      3700   306.40124     -3239.924      -3257.6277      17.703645      8626.0213      10112.159    
      3800   286.42038     -3240.4773     -3257.0265      16.549164      8535.5186      10112.159    
      3900   304.0798      -3240.3341     -3257.9036      17.569513      8496.4706      10112.159    
      4000   305.87992     -3239.394      -3257.0675      17.673523      8926.2834      10112.159    
      4100   299.03754     -3238.4591     -3255.7373      17.278175      8911.4914      10112.159    
      4200   329.0423      -3237.8979     -3256.9097      19.011829      8833.9704      10112.159    
      4300   291.6819      -3239.5909     -3256.4441      16.853172      9081.815       10112.159    
      4400   306.35284     -3240.0796     -3257.7804      17.700848      8500.9584      10112.159    
      4500   291.59581     -3240.4245     -3257.2727      16.848197      8428.6376      10112.159    
      4600   312.73646     -3239.9641     -3258.0338      18.069689      8550.9601      10112.159    
      4700   293.45999     -3239.1027     -3256.0586      16.955909      9104.3103      10112.159    
      4800   318.14585     -3237.6561     -3256.0384      18.38224       9158.4962      10112.159    
      4900   308.69364     -3238.2529     -3256.089       17.836097      9080.5543      10112.159    
      5000   312.3484      -3239.5995     -3257.6468      18.047267      8823.7854      10112.159    
      5100   288.90837     -3240.3769     -3257.0699      16.692919      8852.4573      10112.159    
      5200   296.40444     -3239.9052     -3257.0313      17.126037      8376.28        10112.159    
      5300   294.83409     -3239.3997     -3256.435       17.035303      9106.1076      10112.159    
      5400   312.44664     -3239.0683     -3257.1213      18.052943      8503.5644      10112.159    
      5500   305.38679     -3239.4229     -3257.0679      17.64503       8913.7873      10112.159    
      5600   318.19902     -3240.159      -3258.5443      18.385312      8393.4241      10112.159    
      5700   276.77009     -3241.2294     -3257.221       15.991578      8395.3115      10112.159    
      5800   285.79374     -3240.7475     -3257.2605      16.512958      8480.2096      10112.159    
      5900   300.36509     -3239.4184     -3256.7733      17.35488       8403.6075      10112.159    
      6000   316.28734     -3239.0136     -3257.2885      18.274856      8963.1713      10112.159    
      6100   303.30139     -3239.5291     -3257.0536      17.524538      8859.1432      10112.159    
      6200   296.19816     -3240.3197     -3257.4339      17.114118      8687.2894      10112.159    
      6300   274.87227     -3240.7664     -3256.6484      15.881923      8928.1963      10112.159    
      6400   330.83538     -3238.911      -3258.0264      19.115432      8669.1626      10112.159    
      6500   300.24642     -3238.2041     -3255.5521      17.348023      9236.7947      10112.159    
      6600   325.58116     -3238.3071     -3257.119       18.811847      8940.4196      10112.159    
      6700   296.48776     -3239.3674     -3256.4982      17.13085       8788.2967      10112.159    
      6800   301.16985     -3239.5535     -3256.9549      17.401379      8900.7898      10112.159    
      6900   302.18642     -3240.273      -3257.7331      17.460115      8580.9659      10112.159    
      7000   292.63584     -3240.9264     -3257.8347      16.908289      8400.7205      10112.159    
      7100   296.4785      -3240.2534     -3257.3837      17.130316      9008.2767      10112.159    
      7200   310.46558     -3238.4962     -3256.4347      17.938479      8942.5044      10112.159    
      7300   307.35173     -3238.3484     -3256.1069      17.758563      9391.4555      10112.159    
      7400   303.80774     -3239.4317     -3256.9855      17.553794      9136.8386      10112.159    
      7500   299.56339     -3239.8467     -3257.1552      17.308559      8734.636       10112.159    
      7600   310.67621     -3239.9675     -3257.9181      17.950649      8887.9254      10112.159    
      7700   287.12729     -3240.5069     -3257.097       16.59001       8688.3046      10112.159    
      7800   299.5899      -3239.7249     -3257.035       17.31009       8707.9204      10112.159    
      7900   310.60813     -3238.4092     -3256.3559      17.946716      9375.0861      10112.159    
      8000   312.01365     -3238.6126     -3256.6405      18.027925      9304.3308      10112.159    
      8100   295.28268     -3240.2957     -3257.3569      17.061222      8228.7852      10112.159    
      8200   294.89788     -3240.7504     -3257.7894      17.038989      8754.406       10112.159    
      8300   284.27764     -3240.542      -3256.9674      16.425359      8871.1047      10112.159    
      8400   309.27344     -3239.5073     -3257.3769      17.869598      8801.7536      10112.159    
      8500   305.61645     -3239.0965     -3256.7548      17.6583        9098.156       10112.159    
      8600   309.68153     -3239.3737     -3257.2669      17.893178      8896.3199      10112.159    
      8700   264.51398     -3241.4909     -3256.7743      15.283429      8663.415       10112.159    
      8800   297.71889     -3241.0689     -3258.2708      17.201985      8334.6366      10112.159    
      8900   313.86639     -3240.0114     -3258.1463      18.134975      8700.7899      10112.159    
      9000   302.54701     -3239.0672     -3256.5481      17.48095       8954.0504      10112.159    
      9100   298.5912      -3238.7984     -3256.0508      17.252386      9332.9066      10112.159    
      9200   304.90909     -3239.4771     -3257.0945      17.617429      8994.6396      10112.159    
      9300   296.09071     -3241.4135     -3258.5214      17.107909      8362.3067      10112.159    
      9400   287.28695     -3241.2366     -3257.8359      16.599234      8450.9846      10112.159    
      9500   295.66313     -3240.2683     -3257.3515      17.083204      8780.8439      10112.159    
      9600   296.40927     -3239.2006     -3256.3269      17.126316      8944.5866      10112.159    
      9700   302.2745      -3238.7971     -3256.2623      17.465204      9112.4087      10112.159    
      9800   309.6715      -3239.423      -3257.3156      17.892598      8755.4683      10112.159    
      9900   298.08037     -3240.281      -3257.5039      17.22287       8569.3956      10112.159    
     10000   293.89931     -3240.4977     -3257.479       16.981292      8577.1964      10112.159    
     10100   296.70476     -3240.0323     -3257.1757      17.143389      8956.2237      10112.159    
     10200   292.42718     -3239.4465     -3256.3428      16.896234      8948.6625      10112.159    
     10300   312.89757     -3238.8692     -3256.9482      18.078998      8753.4792      10112.159    
     10400   310.89651     -3239.2009     -3257.1642      17.963378      8971.1404      10112.159    
     10500   288.72284     -3240.8125     -3257.4947      16.682199      8602.7977      10112.159    
     10600   292.93594     -3240.8959     -3257.8216      16.925629      8860.9494      10112.159    
     10700   293.64341     -3240.3165     -3257.2831      16.966506      8795.3043      10112.159    
     10800   318.89382     -3238.7266     -3257.1521      18.425457      8466.0931      10112.159    
     10900   302.15372     -3238.5002     -3255.9584      17.458226      9167.658       10112.159    
     11000   305.09641     -3239.0891     -3256.7173      17.628252      9041.4931      10112.159    
     11100   302.64643     -3240.0652     -3257.5519      17.486694      8982.0677      10112.159    
     11200   290.02149     -3240.7784     -3257.5356      16.757234      8658.6824      10112.159    
     11300   297.97781     -3240.8311     -3258.048       17.216944      8522.6312      10112.159    
     11400   291.21218     -3240.3898     -3257.2159      16.826031      8914.9856      10112.159    
     11500   300.79247     -3239.8109     -3257.1905      17.379574      8948.7194      10112.159    
     11600   306.94166     -3239.3263     -3257.0611      17.73487       9142.9319      10112.159    
     11700   291.27745     -3239.1537     -3255.9835      16.829803      9322.7052      10112.159    
     11800   300.89628     -3239.7873     -3257.1729      17.385572      9297.7311      10112.159    
     11900   298.70064     -3240.864      -3258.1227      17.258709      8635.4594      10112.159    
     12000   293.33427     -3241.2493     -3258.198       16.948644      8388.2108      10112.159    
     12100   290.08516     -3240.423      -3257.1839      16.760913      9071.8044      10112.159    
     12200   302.83721     -3238.8021     -3256.2998      17.497718      9161.7626      10112.159    
     12300   304.67264     -3238.8576     -3256.4614      17.603767      9257.6527      10112.159    
     12400   307.40473     -3239.7193     -3257.481       17.761626      8833.3252      10112.159    
     12500   299.97461     -3240.5176     -3257.8499      17.332318      8593.1674      10112.159    
     12600   287.81356     -3240.8863     -3257.516       16.629662      8666.1824      10112.159    
     12700   311.60431     -3240.0584     -3258.0627      18.004274      8566.8032      10112.159    
     12800   298.76588     -3238.6256     -3255.8881      17.262479      9495.8263      10112.159    
     12900   323.33884     -3237.9452     -3256.6275      18.682287      9012.1614      10112.159    
     13000   312.92251     -3239.071      -3257.1515      18.080439      8802.5025      10112.159    
     13100   284.30125     -3240.2957     -3256.7224      16.426723      8944.0765      10112.159    
     13200   302.93579     -3240.4213     -3257.9247      17.503413      8491.1018      10112.159    
     13300   281.21441     -3240.5894     -3256.8378      16.248368      8844.5185      10112.159    
     13400   326.79125     -3239.0864     -3257.9681      18.881765      8899.3468      10112.159    
     13500   307.84653     -3238.884      -3256.6712      17.787153      8903.1303      10112.159    
     13600   303.33897     -3239.3432     -3256.8699      17.526709      9018.2111      10112.159    
     13700   285.27487     -3239.791      -3256.2739      16.482978      8838.6924      10112.159    
     13800   305.31769     -3239.5924     -3257.2334      17.641038      8843.4711      10112.159    
     13900   300.30377     -3239.9273     -3257.2787      17.351337      8490.6089      10112.159    
     14000   307.76279     -3240.1138     -3257.8961      17.782314      8614.3644      10112.159    
     14100   280.09775     -3240.5902     -3256.774       16.183848      9041.7733      10112.159    
     14200   291.6421      -3240.8394     -3257.6902      16.850872      8501.8322      10112.159    
     14300   306.035       -3240.1934     -3257.8759      17.682483      8555.9369      10112.159    
     14400   310.58096     -3238.9623     -3256.9074      17.945145      9081.8365      10112.159    
     14500   310.94718     -3238.7129     -3256.6792      17.966306      9055.8697      10112.159    
     14600   305.9144      -3239.8346     -3257.5101      17.675515      8624.3274      10112.159    
     14700   285.8944      -3241.4545     -3257.9732      16.518774      8468.924       10112.159    
     14800   280.1095      -3241.2641     -3257.4486      16.184527      8394.0037      10112.159    
     14900   307.2668      -3239.9322     -3257.6858      17.753656      8483.9427      10112.159    
     15000   294.45148     -3239.6351     -3256.6483      17.013196      8766.8708      10112.159    
     15100   312.89031     -3239.3063     -3257.3849      18.078578      8802.3441      10112.159    
     15200   290.91314     -3240.168      -3256.9768      16.808753      8909.22        10112.159    
     15300   283.92791     -3241.3686     -3257.7737      16.405152      8555.9032      10112.159    
     15400   299.79506     -3241.1727     -3258.4947      17.321944      8416.4977      10112.159    
     15500   301.28731     -3239.5159     -3256.924       17.408165      8638.3952      10112.159    
     15600   308.33838     -3238.9884     -3256.8039      17.815571      8751.9647      10112.159    
     15700   288.83598     -3239.959      -3256.6477      16.688736      9120.5494      10112.159    
     15800   296.25886     -3240.5313     -3257.6489      17.117625      8891.2519      10112.159    
     15900   298.00941     -3240.4477     -3257.6665      17.21877       8724.1699      10112.159    
     16000   298.24707     -3239.3031     -3256.5356      17.232503      9133.2229      10112.159    
     16100   309.38166     -3238.318      -3256.1939      17.875851      9145.6794      10112.159    
     16200   308.94824     -3238.9572     -3256.808       17.850808      9054.2666      10112.159    
     16300   298.10789     -3240.847      -3258.0715      17.224461      8414.0682      10112.159    
     16400   286.42562     -3241.1379     -3257.6873      16.549467      8518.4324      10112.159    
     16500   314.46711     -3240.2054     -3258.3751      18.169685      8656.4113      10112.159    
     16600   300.04218     -3239.3791     -3256.7153      17.336223      8673.1785      10112.159    
     16700   305.76362     -3238.5704     -3256.2372      17.666803      9316.1448      10112.159    
     16800   305.12461     -3238.9835     -3256.6134      17.629881      9347.9426      10112.159    
     16900   294.04512     -3241.1987     -3258.1885      16.989717      8403.8772      10112.159    
     17000   295.84168     -3241.0651     -3258.1586      17.093521      8519.1066      10112.159    
     17100   304.23196     -3239.9005     -3257.4788      17.578305      8937.3508      10112.159    
     17200   297.03398     -3239.0683     -3256.2307      17.162411      9019.026       10112.159    
     17300   306.17365     -3238.9597     -3256.6502      17.690495      8999.7124      10112.159    
     17400   292.34095     -3240.2887     -3257.1799      16.891251      8645.8917      10112.159    
     17500   290.62123     -3241.6247     -3258.4166      16.791887      8212.2934      10112.159    
     17600   289.35173     -3241.4813     -3258.1998      16.718536      8487.3892      10112.159    
     17700   295.08402     -3240.6628     -3257.7125      17.049744      8713.7654      10112.159    
     17800   290.98468     -3239.8104     -3256.6233      16.812887      8987.9021      10112.159    
     17900   309.51485     -3239.0651     -3256.9486      17.883547      8910.3868      10112.159    
     18000   314.27349     -3238.9295     -3257.088       18.158498      8787.7515      10112.159    
     18100   287.64479     -3240.0889     -3256.7088      16.61991       8932.3496      10112.159    
     18200   291.93838     -3241.4288     -3258.2968      16.867991      8593.959       10112.159    
     18300   288.35814     -3241.267      -3257.9282      16.661127      8531.8991      10112.159    
     18400   301.36896     -3239.9764     -3257.3893      17.412883      8804.3927      10112.159    
     18500   305.40236     -3239.3751     -3257.021       17.64593       8614.0823      10112.159    
     18600   304.08252     -3239.5806     -3257.1502      17.569671      9260.5765      10112.159    
     18700   289.66534     -3240.4023     -3257.139       16.736656      8681.4868      10112.159    
     18800   298.03361     -3240.8255     -3258.0456      17.220169      8856.4282      10112.159    
     18900   277.55716     -3241.531      -3257.5681      16.037054      8700.4261      10112.159    
     19000   290.62022     -3240.7256     -3257.5175      16.791828      8786.3124      10112.159    
     19100   299.42678     -3239.6086     -3256.9093      17.300665      8832.1139      10112.159    
     19200   311.65195     -3239.0296     -3257.0366      18.007027      8959.7263      10112.159    
     19300   310.94198     -3238.9375     -3256.9035      17.966005      8828.4842      10112.159    
     19400   298.14078     -3240.3271     -3257.5535      17.226361      8650.9461      10112.159    
     19500   282.72546     -3241.3255     -3257.6611      16.335675      8564.9746      10112.159    
     19600   290.79229     -3240.7301     -3257.5319      16.801771      9046.9851      10112.159    
     19700   293.14443     -3239.6118     -3256.5495      16.937676      9183.3         10112.159    
     19800   319.61534     -3238.9333     -3257.4004      18.467146      9175.2719      10112.159    
     19900   301.77441     -3239.4135     -3256.8498      17.436309      8938.0097      10112.159    
     20000   295.83217     -3240.0535     -3257.1465      17.092971      8678.0525      10112.159    
     20100   293.18204     -3240.766      -3257.7058      16.939849      9130.3739      10112.159    
     20200   284.68978     -3241.2554     -3257.7046      16.449172      8674.207       10112.159    
     20300   316.54789     -3239.9771     -3258.267       18.289911      8653.6515      10112.159    
     20400   296.54063     -3239.1291     -3256.263       17.133906      9194.3155      10112.159    
     20500   311.68116     -3238.9195     -3256.9283      18.008714      9221.7572      10112.159    
     20600   298.69561     -3240.0161     -3257.2745      17.258419      8929.3901      10112.159    
     20700   289.7432      -3241.0044     -3257.7455      16.741155      8596.0549      10112.159    
     20800   280.51725     -3242.379      -3258.587       16.208086      8196.3414      10112.159    
     20900   255.49512     -3243.0952     -3257.8575      14.762325      8419.8407      10112.159    
     21000   300.07022     -3241.5499     -3258.8878      17.337843      8630.3884      10112.159    
     21100   291.17096     -3240.6361     -3257.4598      16.82365       8307.3529      10112.159    
     21200   318.90345     -3239.2737     -3257.6997      18.426013      8927.0748      10112.159    
     21300   292.13171     -3239.4845     -3256.3636      16.879161      9078.1401      10112.159    
     21400   297.56689     -3239.8396     -3257.0328      17.193202      8969.8888      10112.159    
     21500   294.89597     -3240.6736     -3257.7125      17.038879      8785.1989      10112.159    
     21600   282.90154     -3241.7196     -3258.0655      16.345849      8304.289       10112.159    
     21700   297.55446     -3240.9046     -3258.0971      17.192484      8879.2357      10112.159    
     21800   302.6549      -3239.636      -3257.1232      17.487184      8970.6048      10112.159    
     21900   304.70854     -3239.476      -3257.0819      17.605842      8676.1623      10112.159    
     22000   308.57012     -3239.5706     -3257.3995      17.828961      8914.2029      10112.159    
     22100   272.68595     -3240.5653     -3256.3209      15.755599      8983.8848      10112.159    
     22200   310.33211     -3241.2903     -3259.221       17.930768      8372.2678      10112.159    
     22300   278.11855     -3242.3965     -3258.466       16.069491      8444.0998      10112.159    
     22400   281.19832     -3241.0843     -3257.3318      16.247438      8968.9013      10112.159    
     22500   309.74318     -3240.1668     -3258.0635      17.89674       9061.582       10112.159    
     22600   287.84475     -3240.2403     -3256.8718      16.631464      8702.5334      10112.159    
     22700   307.7239      -3239.5696     -3257.3497      17.780067      8845.8643      10112.159    
     22800   303.29988     -3239.0182     -3256.5427      17.52445       9137.8408      10112.159    
     22900   316.27192     -3238.1987     -3256.4727      18.273965      9050.6869      10112.159    
     23000   288.26973     -3239.2972     -3255.9532      16.656019      9318.4621      10112.159    
     23100   303.12896     -3240.3979     -3257.9125      17.514575      8422.9626      10112.159    
     23200   288.43283     -3240.8103     -3257.4757      16.665443      8520.8859      10112.159    
     23300   295.19775     -3240.2083     -3257.2646      17.056315      8945.535       10112.159    
     23400   315.96288     -3239.0309     -3257.287       18.256109      8854.3203      10112.159    
     23500   321.49472     -3237.8793     -3256.455       18.575735      9183.4889      10112.159    
     23600   327.30825     -3236.4625     -3255.3741      18.911636      10021.356      10112.159    
     23700   307.41906     -3237.7086     -3255.4711      17.762454      9363.0404      10112.159    
     23800   312.51777     -3239.1415     -3257.1985      18.057053      9222.3869      10112.159    
     23900   299.09493     -3240.357      -3257.6385      17.281491      8302.6834      10112.159    
     24000   305.28688     -3240.8231     -3258.4623      17.639258      8457.3059      10112.159    
     24100   288.11818     -3240.5518     -3257.199       16.647262      8758.7666      10112.159    
     24200   302.35436     -3239.137      -3256.6069      17.469819      8836.6365      10112.159    
     24300   298.30565     -3239.0164     -3256.2523      17.235887      9367.7751      10112.159    
     24400   324.80716     -3239.114      -3257.8812      18.767126      8814.8819      10112.159    
     24500   297.60909     -3239.9033     -3257.0989      17.195641      9203.1788      10112.159    
     24600   299.04199     -3239.9763     -3257.2547      17.278432      9057.4199      10112.159    
     24700   291.19738     -3240.1011     -3256.9263      16.825176      8963.2402      10112.159    
     24800   299.58177     -3239.8788     -3257.1884      17.309621      8968.772       10112.159    
     24900   300.49492     -3239.115      -3256.4774      17.362381      9134.0383      10112.159    
     25000   323.92042     -3238.0502     -3256.7661      18.71589       9116.442       10112.159    
     25100   311.21294     -3238.8087     -3256.7903      17.981661      8894.1984      10112.159    
     25200   281.33563     -3240.4032     -3256.6586      16.255372      9109.1871      10112.159    
     25300   302.85822     -3240.4048     -3257.9038      17.498931      8813.2728      10112.159    
     25400   300.2386      -3240.361      -3257.7085      17.347572      8351.0546      10112.159    
     25500   300.78283     -3239.8611     -3257.2401      17.379017      8979.9519      10112.159    
     25600   312.89402     -3238.4031     -3256.4819      18.078793      9140.2591      10112.159    
     25700   309.08262     -3237.6962     -3255.5548      17.858573      9331.9837      10112.159    
     25800   308.24512     -3238.5247     -3256.3349      17.810182      9256.0727      10112.159    
     25900   309.18096     -3240.1992     -3258.0634      17.864255      8566.3876      10112.159    
     26000   304.54769     -3240.3799     -3257.9764      17.596548      8705.4176      10112.159    
     26100   295.81018     -3240.3457     -3257.4374      17.091701      8919.948       10112.159    
     26200   288.92349     -3240.0433     -3256.7371      16.693793      8877.3788      10112.159    
     26300   314.76713     -3238.6919     -3256.8789      18.187019      9180.6102      10112.159    
     26400   319.34181     -3238.5713     -3257.0227      18.451341      8749.639       10112.159    
     26500   302.24595     -3239.9914     -3257.455       17.463555      8781.0458      10112.159    
     26600   288.75294     -3241.2222     -3257.9061      16.683938      8682.9046      10112.159    
     26700   286.24773     -3241.0405     -3257.5797      16.539189      8722.2361      10112.159    
     26800   286.78655     -3240.4747     -3257.045       16.570322      8781.5634      10112.159    
     26900   318.63741     -3239.4188     -3257.8294      18.410642      8807.1649      10112.159    
     27000   301.81335     -3239.1549     -3256.5935      17.438559      9180.8327      10112.159    
     27100   298.16215     -3238.9762     -3256.2038      17.227596      9380.9633      10112.159    
     27200   296.26989     -3239.5262     -3256.6445      17.118263      8823.5912      10112.159    
     27300   301.35178     -3240.4336     -3257.8455      17.41189       8676.394       10112.159    
     27400   294.8076      -3240.8649     -3257.8987      17.033772      8713.5529      10112.159    
     27500   307.33322     -3240.3139     -3258.0714      17.757494      8757.0381      10112.159    
     27600   286.80825     -3239.5025     -3256.0741      16.571576      9262.4861      10112.159    
     27700   315.68092     -3238.1857     -3256.4255      18.239818      9175.2187      10112.159    
     27800   317.07043     -3237.7317     -3256.0518      18.320102      9050.1695      10112.159    
     27900   312.90349     -3239.43       -3257.5093      18.07934       9272.7495      10112.159    
     28000   291.24896     -3240.591      -3257.4192      16.828157      8991.9536      10112.159    
     28100   284.93835     -3240.7802     -3257.2438      16.463534      8738.8559      10112.159    
     28200   311.94413     -3239.9567     -3257.9806      18.023909      8584.0485      10112.159    
     28300   299.73569     -3239.3446     -3256.6631      17.318514      9242.3056      10112.159    
     28400   295.9338      -3239.1283     -3256.2271      17.098844      9073.2715      10112.159    
     28500   321.20801     -3238.7947     -3257.3539      18.559169      9015.0783      10112.159    
     28600   308.14205     -3239.2493     -3257.0535      17.804227      9113.3153      10112.159    
     28700   288.58732     -3240.3999     -3257.0743      16.674369      8972.3913      10112.159    
     28800   288.30649     -3241.1507     -3257.8089      16.658143      8614.889       10112.159    
     28900   292.82155     -3240.9473     -3257.8663      16.91902       8619.8357      10112.159    
     29000   308.01319     -3238.9526     -3256.7494      17.796782      8956.6481      10112.159    
     29100   290.49249     -3238.7382     -3255.5227      16.784448      9178.9695      10112.159    
     29200   325.31856     -3238.9079     -3257.7046      18.796673      8679.3241      10112.159    
     29300   291.71334     -3240.3646     -3257.2196      16.854988      8396.9706      10112.159    
     29400   305.66056     -3240.4249     -3258.0857      17.660848      8702.0583      10112.159    
     29500   287.60001     -3240.0388     -3256.6562      16.617323      8806.9728      10112.159    
     29600   300.14305     -3239.4983     -3256.8403      17.342051      9212.557       10112.159    
     29700   302.04035     -3239.6453     -3257.0969      17.451676      8508.1326      10112.159    
     29800   315.33157     -3239.6096     -3257.8292      18.219632      8690.3992      10112.159    
     29900   301.04162     -3239.7506     -3257.1446      17.39397       8749.1292      10112.159    
     30000   300.77506     -3239.9868     -3257.3653      17.378568      8918.4813      10112.159    
     30100   279.01561     -3241.2469     -3257.3682      16.121323      8476.0839      10112.159    
     30200   306.13357     -3241.2546     -3258.9428      17.688179      8180.8205      10112.159    
     30300   297.49619     -3239.7969     -3256.986       17.189117      8915.2418      10112.159    
     30400   295.77265     -3238.8859     -3255.9755      17.089532      9382.6624      10112.159    
     30500   310.54592     -3239.0282     -3256.9713      17.943121      8789.0693      10112.159    
     30600   295.53793     -3239.8602     -3256.9362      17.07597       8834.6091      10112.159    
     30700   306.08619     -3240.8249     -3258.5104      17.685441      8333.8389      10112.159    
     30800   279.32288     -3241.8962     -3258.0353      16.139076      8510.6078      10112.159    
     30900   289.24249     -3241.3556     -3258.0678      16.712224      8768.5755      10112.159    
     31000   296.69929     -3240.3891     -3257.5322      17.143073      8707.1752      10112.159    
     31100   303.02938     -3239.8847     -3257.3936      17.508821      8796.0451      10112.159    
     31200   300.7281      -3239.7204     -3257.0963      17.375854      8816.0139      10112.159    
     31300   299.4884      -3239.3025     -3256.6067      17.304225      9192.9077      10112.159    
     31400   310.41603     -3238.4518     -3256.3874      17.935616      9082.7197      10112.159    
     31500   316.54458     -3238.5135     -3256.8033      18.289719      9192.9649      10112.159    
     31600   295.62753     -3240.2137     -3257.2949      17.081148      8958.0996      10112.159    
     31700   294.21516     -3240.9193     -3257.9189      16.999542      8971.4447      10112.159    
     31800   295.44305     -3240.5844     -3257.6549      17.070488      8760.8855      10112.159    
     31900   305.15275     -3239.3799     -3257.0114      17.631507      9205.1119      10112.159    
     32000   303.87104     -3238.5587     -3256.1162      17.557451      9473.7883      10112.159    
     32100   324.63129     -3237.5785     -3256.3354      18.756964      9504.7336      10112.159    
     32200   324.66605     -3237.2229     -3255.9818      18.758972      9540.5653      10112.159    
     32300   304.59184     -3239.0753     -3256.6744      17.599099      9206.4896      10112.159    
     32400   297.36848     -3240.3414     -3257.5232      17.181738      8850.8475      10112.159    
     32500   310.09101     -3240.6497     -3258.5665      17.916837      8476.2289      10112.159    
     32600   273.80196     -3240.682      -3256.502       15.820081      8694.8904      10112.159    
     32700   308.15161     -3239.1328     -3256.9376      17.80478       9326.4215      10112.159    
     32800   308.05076     -3239.0869     -3256.8858      17.798953      9254.324       10112.159    
     32900   301.11898     -3239.562      -3256.9605      17.398439      8654.3955      10112.159    
     33000   307.50445     -3239.9533     -3257.7207      17.767387      8770.7295      10112.159    
     33100   293.96179     -3240.5467     -3257.5316      16.984902      8921.334       10112.159    
     33200   270.03033     -3241.5524     -3257.1546      15.60216       8713.087       10112.159    
     33300   290.30638     -3241.5579     -3258.3316      16.773695      8271.5792      10112.159    
     33400   293.17932     -3240.4998     -3257.4395      16.939691      8573.0984      10112.159    
     33500   315.12341     -3239.2272     -3257.4348      18.207605      9102.9175      10112.159    
     33600   293.63332     -3239.1946     -3256.1605      16.965923      9179.0045      10112.159    
     33700   296.99573     -3239.2465     -3256.4067      17.160201      9010.3491      10112.159    
     33800   286.39207     -3240.7391     -3257.2866      16.547529      8796.25        10112.159    
     33900   291.92308     -3241.4533     -3258.3204      16.867107      8712.8015      10112.159    
     34000   286.6669      -3240.8793     -3257.4427      16.563408      8763.7507      10112.159    
     34100   309.81566     -3239.5813     -3257.4823      17.900927      9263.1227      10112.159    
     34200   292.19653     -3239.708      -3256.5909      16.882907      9040.8743      10112.159    
     34300   292.25334     -3239.7969     -3256.6831      16.886189      9357.5578      10112.159    
     34400   308.68527     -3239.7234     -3257.559       17.835614      8684.6417      10112.159    
     34500   301.4789      -3240.1757     -3257.595       17.419235      8610.0305      10112.159    
     34600   303.48889     -3240.5803     -3258.1157      17.535371      9086.4891      10112.159    
     34700   265.7951      -3241.0423     -3256.3997      15.357451      9039.0974      10112.159    
     34800   306.29454     -3239.821      -3257.5184      17.69748       8804.7849      10112.159    
     34900   317.40597     -3238.9951     -3257.3346      18.33949       8988.5595      10112.159    
     35000   308.53807     -3239.1183     -3256.9454      17.827109      9069.236       10112.159    
     35100   277.40718     -3240.9565     -3256.9849      16.028388      8740.9687      10112.159    
     35200   277.39748     -3241.5629     -3257.5907      16.027828      8786.2238      10112.159    
     35300   301.90453     -3240.5508     -3257.9946      17.443828      8681.5803      10112.159    
     35400   301.19852     -3239.8466     -3257.2496      17.403035      8798.5208      10112.159    
     35500   298.55971     -3239.6312     -3256.8818      17.250567      9022.9921      10112.159    
     35600   308.30875     -3239.3185     -3257.1324      17.813859      8788.3618      10112.159    
     35700   301.97368     -3239.5012     -3256.949       17.447823      8884.2905      10112.159    
     35800   281.47245     -3241.0155     -3257.2788      16.263277      8669.028       10112.159    
     35900   294.20357     -3240.9171     -3257.916       16.998872      8468.8797      10112.159    
     36000   304.25073     -3239.8063     -3257.3857      17.57939       8686.6992      10112.159    
     36100   303.19331     -3239.1377     -3256.656       17.518293      9342.2665      10112.159    
     36200   289.34353     -3239.2039     -3255.9219      16.718062      9147.3465      10112.159    
     36300   308.41919     -3239.986      -3257.8063      17.82024       9060.9167      10112.159    
     36400   279.91084     -3241.2563     -3257.4293      16.173048      8340.4539      10112.159    
     36500   309.95703     -3240.8497     -3258.7588      17.909096      8429.417       10112.159    
     36600   301.13188     -3239.5888     -3256.988       17.399185      9059.1822      10112.159    
     36700   300.61082     -3238.9392     -3256.3083      17.369078      9436.1818      10112.159    
     36800   287.35769     -3239.6025     -3256.2059      16.603322      9309.4591      10112.159    
     36900   287.29744     -3240.1377     -3256.7375      16.59984       9134.8603      10112.159    
     37000   300.93766     -3240.1625     -3257.5504      17.387963      8855.1745      10112.159    
     37100   318.62076     -3239.6826     -3258.0922      18.40968       8507.351       10112.159    
     37200   292.21504     -3239.1989     -3256.0829      16.883976      9572.3712      10112.159    
     37300   305.22727     -3238.7778     -3256.4137      17.635813      9268.8706      10112.159    
     37400   303.2534      -3239.7566     -3257.2784      17.521765      8785.9086      10112.159    
     37500   297.39215     -3240.8568     -3258.0399      17.183106      8449.2985      10112.159    
     37600   301.11895     -3240.6409     -3258.0394      17.398438      8691.8355      10112.159    
     37700   299.27738     -3239.7105     -3257.0025      17.292033      9005.6671      10112.159    
     37800   282.81712     -3239.3562     -3255.6972      16.340971      9486.5643      10112.159    
     37900   304.76487     -3239.0909     -3256.7         17.609096      9136.3528      10112.159    
     38000   319.4646      -3239.5685     -3258.027       18.458436      8824.2242      10112.159    
     38100   284.40262     -3240.8447     -3257.2773      16.43258       8837.1058      10112.159    
     38200   295.94228     -3240.3359     -3257.4352      17.099334      8881.8755      10112.159    
     38300   296.10565     -3239.7473     -3256.8561      17.108773      8794.4014      10112.159    
     38400   310.46104     -3239.3965     -3257.3347      17.938217      9064.0089      10112.159    
     38500   300.69036     -3239.7207     -3257.0943      17.373674      8853.6577      10112.159    
     38600   301.34661     -3239.8256     -3257.2372      17.411592      9066.8023      10112.159    
     38700   295.10022     -3239.921      -3256.9716      17.05068       9162.5423      10112.159    
     38800   309.93171     -3239.3441     -3257.2518      17.907633      9069.3052      10112.159    
     38900   301.1711      -3238.0304     -3255.4318      17.401451      9569.7424      10112.159    
     39000   314.88593     -3237.6836     -3255.8775      18.193884      9385.7026      10112.159    
     39100   310.57257     -3239.1946     -3257.1393      17.944661      9152.9531      10112.159    
     39200   294.58203     -3240.4318     -3257.4525      17.020739      8841.5672      10112.159    
     39300   302.85775     -3240.2906     -3257.7895      17.498904      8945.891       10112.159    
     39400   281.49753     -3240.0153     -3256.28        16.264726      8880.0679      10112.159    
     39500   310.83419     -3238.5914     -3256.5512      17.959777      9136.0821      10112.159    
     39600   309.88652     -3238.3203     -3256.2253      17.905021      9273.9452      10112.159    
     39700   313.63269     -3239.1266     -3257.2481      18.121473      9033.0304      10112.159    
     39800   303.5823      -3239.8771     -3257.4179      17.540768      8851.2765      10112.159    
     39900   302.75151     -3239.9748     -3257.4676      17.492766      8790.2762      10112.159    
     40000   298.7667      -3239.9382     -3257.2007      17.262526      9290.4746      10112.159    
     40100   284.77884     -3239.8393     -3256.2936      16.454318      9085.1798      10112.159    
     40200   321.77649     -3238.7279     -3257.3199      18.592016      9144.9643      10112.159    
     40300   303.32024     -3238.5379     -3256.0635      17.525627      9539.7516      10112.159    
     40400   308.75449     -3239.4416     -3257.2812      17.839613      9077.791       10112.159    
     40500   289.1378      -3241.0857     -3257.7919      16.706176      8740.1261      10112.159    
     40600   294.4374      -3240.835      -3257.8474      17.012382      8914.0477      10112.159    
     40700   307.08997     -3239.9747     -3257.7181      17.743439      8891.189       10112.159    
     40800   295.00069     -3239.1106     -3256.1556      17.044929      9346.3344      10112.159    
     40900   317.02337     -3238.1508     -3256.4682      18.317384      9204.1444      10112.159    
     41000   320.15312     -3238.4693     -3256.9675      18.498219      9388.881       10112.159    
     41100   295.18582     -3239.6855     -3256.7411      17.055625      9128.7933      10112.159    
     41200   290.67456     -3240.4803     -3257.2753      16.794968      8678.4433      10112.159    
     41300   296.00096     -3240.2173     -3257.3201      17.102724      8864.3197      10112.159    
     41400   307.81037     -3239.2068     -3256.9919      17.785063      9131.6557      10112.159    
     41500   304.82427     -3238.4099     -3256.0224      17.612529      9119.543       10112.159    
     41600   328.92339     -3237.0349     -3256.0398      19.004958      9654.6534      10112.159    
     41700   290.43832     -3238.1153     -3254.8966      16.781318      9332.8565      10112.159    
     41800   307.65927     -3239.4539     -3257.2302      17.776332      9014.699       10112.159    
     41900   295.99978     -3240.3259     -3257.4285      17.102656      9049.6868      10112.159    
     42000   306.00503     -3240.3698     -3258.0505      17.680752      8508.2985      10112.159    
     42100   291.48825     -3240.3118     -3257.1538      16.841982      8840.2858      10112.159    
     42200   315.97494     -3238.7349     -3256.9917      18.256806      9230.2175      10112.159    
     42300   310.95215     -3238.3666     -3256.3332      17.966593      9497.9757      10112.159    
     42400   295.25296     -3239.4446     -3256.5041      17.059505      9096.2274      10112.159    
     42500   298.34414     -3240.3582     -3257.5963      17.238111      8781.4694      10112.159    
     42600   309.08153     -3240.1039     -3257.9625      17.858509      8753.745       10112.159    
     42700   301.65945     -3239.7719     -3257.2015      17.429667      8974.6102      10112.159    
     42800   289.51468     -3240.0357     -3256.7636      16.727951      9184.9305      10112.159    
     42900   278.55428     -3241.0529     -3257.1476      16.094667      8823.075       10112.159    
     43000   297.41561     -3241.56       -3258.7445      17.184461      8408.8862      10112.159    
     43100   302.36701     -3241.161      -3258.6316      17.470549      8363.084       10112.159    
     43200   299.82762     -3239.6257     -3256.9495      17.323825      9006.4497      10112.159    
     43300   299.95804     -3238.8314     -3256.1628      17.331361      9365.0008      10112.159    
     43400   300.60617     -3239.0715     -3256.4403      17.36881       9260.6603      10112.159    
     43500   298.81268     -3240.3785     -3257.6437      17.265183      8808.4427      10112.159    
     43600   286.51017     -3240.7905     -3257.3449      16.554353      8683.2934      10112.159    
     43700   297.78513     -3240.3741     -3257.5799      17.205812      8887.7391      10112.159    
     43800   303.48781     -3239.6865     -3257.2219      17.535309      8883.6479      10112.159    
     43900   318.06629     -3238.9282     -3257.3058      18.377643      9016.1621      10112.159    
     44000   285.3087      -3239.9586     -3256.4435      16.484933      8847.9379      10112.159    
     44100   287.8991      -3241.446      -3258.0806      16.634604      8653.2559      10112.159    
     44200   287.37775     -3241.3969     -3258.0014      16.604481      8545.2406      10112.159    
     44300   314.62487     -3240.1248     -3258.3036      18.1788        8743.1357      10112.159    
     44400   301.69815     -3239.5651     -3256.997       17.431903      8984.2064      10112.159    
     44500   271.67314     -3239.8307     -3255.5278      15.69708       9732.9631      10112.159    
     44600   313.40662     -3239.521      -3257.6294      18.10841       8889.1016      10112.159    
     44700   307.74337     -3240.2884     -3258.0696      17.781192      8809.7235      10112.159    
     44800   287.20674     -3241.7075     -3258.3021      16.5946        8776.6767      10112.159    
     44900   278.3667      -3241.6085     -3257.6923      16.083829      8622.3043      10112.159    
     45000   296.81257     -3239.9646     -3257.1142      17.149618      9200.6616      10112.159    
     45100   298.18334     -3239.7846     -3257.0134      17.22882       9053.5         10112.159    
     45200   313.14051     -3239.551      -3257.6441      18.093034      9376.1892      10112.159    
     45300   288.06825     -3239.6341     -3256.2785      16.644377      9344.8998      10112.159    
     45400   311.39698     -3239.4091     -3257.4014      17.992295      9129.2667      10112.159    
     45500   298.55667     -3239.8282     -3257.0786      17.250391      9184.3365      10112.159    
     45600   291.89075     -3240.6198     -3257.4851      16.865238      8931.9227      10112.159    
     45700   301.92925     -3241.0483     -3258.4935      17.445256      8625.6729      10112.159    
     45800   287.19049     -3240.9622     -3257.5558      16.593661      9037.5744      10112.159    
     45900   301.00422     -3239.2884     -3256.6802      17.391809      9302.0103      10112.159    
     46000   304.86864     -3239.0302     -3256.6453      17.615092      9060.982       10112.159    
     46100   307.12496     -3239.5945     -3257.3399      17.745461      9150.5789      10112.159    
     46200   289.13933     -3240.8353     -3257.5416      16.706263      8708.8066      10112.159    
     46300   290.65863     -3241.442      -3258.236       16.794048      8533.219       10112.159    
     46400   293.8914      -3240.7794     -3257.7602      16.980835      8783.0651      10112.159    
     46500   293.64801     -3239.4048     -3256.3716      16.966772      9485.0685      10112.159    
     46600   321.09694     -3238.5418     -3257.0946      18.552752      9023.4602      10112.159    
     46700   305.55401     -3239.1126     -3256.7673      17.654692      8741.8817      10112.159    
     46800   296.44653     -3240.2918     -3257.4202      17.128469      8957.2818      10112.159    
     46900   286.1058      -3241.279      -3257.81        16.530988      8854.3871      10112.159    
     47000   296.44154     -3240.6369     -3257.7651      17.12818       8789.8995      10112.159    
     47100   291.74715     -3239.0575     -3255.9144      16.856942      9225.4222      10112.159    
     47200   327.55175     -3238.7944     -3257.7201      18.925706      8957.1981      10112.159    
     47300   297.30828     -3239.884      -3257.0622      17.17826       8666.492       10112.159    
     47400   284.40827     -3240.5887     -3257.0216      16.432906      8839.9465      10112.159    
     47500   310.0209      -3240.1892     -3258.102       17.912786      8790.0328      10112.159    
     47600   301.79143     -3238.9063     -3256.3436      17.437293      9228.5353      10112.159    
     47700   302.1044      -3237.9733     -3255.4287      17.455376      9201.7621      10112.159    
     47800   335.29165     -3238.4657     -3257.8386      19.372912      8909.3097      10112.159    
     47900   289.48213     -3240.1066     -3256.8326      16.72607       9000.8862      10112.159    
     48000   289.75766     -3240.0997     -3256.8417      16.74199       8752.1036      10112.159    
     48100   297.37091     -3239.7317     -3256.9135      17.181878      8529.5412      10112.159    
     48200   324.17155     -3239.0127     -3257.7431      18.7304        8720.4523      10112.159    
     48300   296.15957     -3239.1476     -3256.2595      17.111888      9016.5933      10112.159    
     48400   308.91302     -3240.202      -3258.0508      17.848774      8884.5326      10112.159    
     48500   280.01451     -3241.2708     -3257.4499      16.179038      8642.6948      10112.159    
     48600   284.62224     -3240.64       -3257.0853      16.44527       8828.7918      10112.159    
     48700   314.40481     -3239.4377     -3257.6038      18.166085      8886.5814      10112.159    
     48800   301.68272     -3239.4021     -3256.8331      17.431012      8999.9872      10112.159    
     48900   292.42264     -3239.6563     -3256.5523      16.895971      9180.7481      10112.159    
     49000   310.21362     -3239.9201     -3257.844       17.923921      8376.8232      10112.159    
     49100   292.70009     -3241.4643     -3258.3763      16.912002      8616.1653      10112.159    
     49200   274.78753     -3242.3206     -3258.1976      15.877027      8453.8998      10112.159    
     49300   289.94506     -3241.058      -3257.8108      16.752818      8832.058       10112.159    
     49400   300.01917     -3240.2342     -3257.5691      17.334893      8999.4627      10112.159    
     49500   297.04343     -3239.939      -3257.102       17.162957      8737.7725      10112.159    
     49600   307.21148     -3239.4826     -3257.2331      17.75046       9023.5483      10112.159    
     49700   309.02861     -3239.2017     -3257.0571      17.855452      9060.6005      10112.159    
     49800   281.30527     -3239.7761     -3256.0297      16.253618      9213.6644      10112.159    
     49900   304.7934      -3240.2811     -3257.8919      17.610745      8591.2777      10112.159    
     50000   296.79602     -3241.3862     -3258.5349      17.148662      8424.6639      10112.159    
     50100   288.87599     -3241.3976     -3258.0887      16.691048      8341.0043      10112.159    
     50200   289.82217     -3239.621      -3256.3667      16.745718      9305.7557      10112.159    
     50300   302.78213     -3239.2496     -3256.7442      17.494535      8992.419       10112.159    
     50400   312.42778     -3239.6225     -3257.6744      18.051854      8692.9119      10112.159    
     50500   291.2004      -3240.4197     -3257.245       16.825351      8739.062       10112.159    
     50600   292.61181     -3240.7848     -3257.6917      16.906901      8725.3745      10112.159    
     50700   286.85483     -3240.9587     -3257.533       16.574267      8728.6942      10112.159    
     50800   305.19129     -3239.8893     -3257.523       17.633734      9145.9163      10112.159    
     50900   309.56423     -3238.9444     -3256.8308      17.8864        8852.4629      10112.159    
     51000   315.80313     -3238.6477     -3256.8946      18.246879      8898.7246      10112.159    
     51100   278.54472     -3240.1044     -3256.1985      16.094115      8565.1394      10112.159    
     51200   295.04774     -3240.9142     -3257.9618      17.047648      8580.8175      10112.159    
     51300   286.31838     -3240.9718     -3257.5151      16.543271      8778.2548      10112.159    
     51400   300.09747     -3240.1253     -3257.4647      17.339417      8735.0458      10112.159    
     51500   303.53832     -3239.4917     -3257.03        17.538227      8883.4785      10112.159    
     51600   312.423       -3239.541      -3257.5926      18.051577      8786.8816      10112.159    
     51700   300.501       -3239.8417     -3257.2044      17.362733      8719.0524      10112.159    
     51800   282.50994     -3240.1771     -3256.5003      16.323222      8961.4732      10112.159    
     51900   305.47033     -3239.9219     -3257.5718      17.649857      8726.5654      10112.159    
     52000   305.42834     -3239.3308     -3256.9783      17.647431      8705.1176      10112.159    
     52100   293.77699     -3239.2418     -3256.216       16.974224      9107.71        10112.159    
     52200   302.52477     -3239.7569     -3257.2366      17.479665      8794.7933      10112.159    
     52300   301.65669     -3240.7912     -3258.2207      17.429508      8653.6642      10112.159    
     52400   293.55551     -3241.1132     -3258.0746      16.961428      8682.2695      10112.159    
     52500   301.17249     -3239.6627     -3257.0642      17.401531      8759.6424      10112.159    
     52600   303.60633     -3238.519      -3256.0611      17.542156      9022.4117      10112.159    
     52700   302.63523     -3238.986      -3256.4721      17.486047      9109.3206      10112.159    
     52800   316.16126     -3239.5065     -3257.774       18.267571      8872.8152      10112.159    
     52900   293.19543     -3240.1674     -3257.108       16.940622      8425.8581      10112.159    
     53000   291.89403     -3240.3823     -3257.2478      16.865428      8533.5506      10112.159    
     53100   308.72145     -3239.9933     -3257.831       17.837705      9002.6184      10112.159    
     53200   295.54809     -3240.0305     -3257.1071      17.076557      9160.42        10112.159    
     53300   281.54164     -3240.3522     -3256.6195      16.267275      8670.0693      10112.159    
     53400   314.45835     -3239.7882     -3257.9574      18.169178      8754.4986      10112.159    
     53500   318.66282     -3238.9029     -3257.3151      18.41211       9470.4522      10112.159    
     53600   318.09003     -3238.0455     -3256.4245      18.379015      9002.6662      10112.159    
     53700   310.11513     -3237.9137     -3255.832       17.918231      9412.9407      10112.159    
     53800   299.30686     -3239.5444     -3256.8381      17.293736      8838.0325      10112.159    
     53900   293.20373     -3240.7027     -3257.6439      16.941102      8582.5076      10112.159    
     54000   306.98348     -3240.582      -3258.3193      17.737286      8450.2032      10112.159    
     54100   302.34834     -3239.8632     -3257.3327      17.469471      8794.3365      10112.159    
     54200   289.52728     -3239.155      -3255.8837      16.728679      9501.9088      10112.159    
     54300   319.85579     -3237.821      -3256.3021      18.481039      9100.9327      10112.159    
     54400   337.35949     -3236.5844     -3256.0768      19.49239       9363.7636      10112.159    
     54500   318.3804      -3238.3466     -3256.7423      18.395792      9109.646       10112.159    
     54600   305.93502     -3239.1722     -3256.8489      17.676707      9122.3991      10112.159    
     54700   294.45972     -3240.0992     -3257.1129      17.013672      9194.8257      10112.159    
     54800   292.2875      -3240.913      -3257.8012      16.888163      8904.7377      10112.159    
     54900   292.14874     -3240.7755     -3257.6556      16.880145      8637.7094      10112.159    
     55000   310.14388     -3239.1545     -3257.0743      17.919891      8808.3726      10112.159    
     55100   309.40963     -3238.7713     -3256.6488      17.877467      9061.0251      10112.159    
     55200   297.05845     -3239.2952     -3256.4591      17.163825      9200.3277      10112.159    
     55300   298.76504     -3239.8897     -3257.1522      17.26243       8935.915       10112.159    
     55400   300.45265     -3240.1618     -3257.5217      17.359939      8831.4746      10112.159    
     55500   297.4156      -3240.2588     -3257.4433      17.184461      8795.3986      10112.159    
     55600   311.7031      -3239.6553     -3257.6653      18.009982      8696.8612      10112.159    
     55700   299.56953     -3238.3447     -3255.6536      17.308913      9344.1922      10112.159    
     55800   317.30943     -3238.0234     -3256.3573      18.333912      9242.2671      10112.159    
     55900   313.26095     -3239.1142     -3257.2142      18.099994      8909.0892      10112.159    
     56000   295.30054     -3240.6372     -3257.6994      17.062254      8751.5227      10112.159    
     56100   281.84218     -3240.7191     -3257.0037      16.284639      8509.7467      10112.159    
     56200   299.25874     -3239.8964     -3257.1874      17.290956      9112.3111      10112.159    
     56300   311.47848     -3239.3113     -3257.3083      17.997004      8681.2021      10112.159    
     56400   305.05788     -3238.9781     -3256.6041      17.626026      9081.6647      10112.159    
     56500   300.58362     -3238.5583     -3255.9258      17.367506      9315.8614      10112.159    
     56600   304.75683     -3238.8593     -3256.4679      17.608632      8812.8699      10112.159    
     56700   300.58677     -3240.2011     -3257.5688      17.367689      8665.3763      10112.159    
     56800   298.19984     -3240.9402     -3258.17        17.229773      8759.1124      10112.159    
     56900   280.80368     -3241.0788     -3257.3034      16.224636      8779.7069      10112.159    
     57000   311.15852     -3239.491      -3257.4696      17.978517      8745.8795      10112.159    
     57100   299.40485     -3238.4755     -3255.7749      17.299398      8987.748       10112.159    
     57200   300.37072     -3238.9373     -3256.2925      17.355206      9295.6158      10112.159    
     57300   292.53536     -3240.2428     -3257.1452      16.902484      9016.755       10112.159    
     57400   326.26974     -3240.1455     -3258.9972      18.851632      8434.0853      10112.159    
     57500   286.02069     -3240.493      -3257.0191      16.526071      8623.5293      10112.159    
     57600   298.67369     -3239.9956     -3257.2528      17.257152      8618.6448      10112.159    
     57700   308.2986      -3238.1831     -3255.9964      17.813272      9411.3278      10112.159    
     57800   312.7681      -3237.9068     -3255.9783      18.071517      9265.5706      10112.159    
     57900   326.86898     -3238.7594     -3257.6456      18.886256      9022.4836      10112.159    
     58000   299.04265     -3240.0991     -3257.3775      17.278471      9038.0079      10112.159    
     58100   293.05253     -3240.3938     -3257.3261      16.932366      8658.8648      10112.159    
     58200   294.77946     -3240.2181     -3257.2502      17.032146      8925.354       10112.159    
     58300   314.00453     -3239.2427     -3257.3857      18.142957      8893.7532      10112.159    
     58400   320.48561     -3238.1177     -3256.6351      18.517429      9209.5903      10112.159    
     58500   315.67232     -3238.0296     -3256.269       18.239321      9367.2236      10112.159    
     58600   297.48552     -3239.8801     -3257.0686      17.1885        8808.9558      10112.159    
     58700   298.35485     -3240.9336     -3258.1723      17.23873       8719.9315      10112.159    
     58800   294.10506     -3240.8931     -3257.8863      16.99318       8499.9229      10112.159    
     58900   302.59706     -3239.7851     -3257.2689      17.483842      8904.2242      10112.159    
     59000   311.15748     -3239.0652     -3257.0436      17.978456      8780.8385      10112.159    
     59100   301.34333     -3239.1132     -3256.5246      17.411402      9041.0021      10112.159    
     59200   285.07883     -3240.2583     -3256.73        16.471651      9213.6901      10112.159    
     59300   303.08237     -3241.1131     -3258.625       17.511883      8651.3869      10112.159    
     59400   288.57768     -3241.3823     -3258.0561      16.673812      8603.0397      10112.159    
     59500   285.63534     -3240.2562     -3256.76        16.503806      8794.6111      10112.159    
     59600   308.31399     -3239.0922     -3256.9064      17.814162      8798.8101      10112.159    
     59700   303.24435     -3239.2407     -3256.762       17.521242      9232.401       10112.159    
     59800   301.90892     -3239.6157     -3257.0598      17.444082      8984.6192      10112.159    
     59900   293.1604      -3241.0559     -3257.9945      16.938598      8880.101       10112.159    
     60000   294.81288     -3241.6593     -3258.6933      17.034077      8387.5998      10112.159    
     60100   285.45002     -3241.0134     -3257.5065      16.493098      8873.1557      10112.159    
     60200   310.6438      -3239.7544     -3257.7031      17.948776      8891.0574      10112.159    
     60300   303.00688     -3239.5762     -3257.0837      17.507521      9293.8072      10112.159    
     60400   283.07287     -3239.9154     -3256.2712      16.355748      9259.8458      10112.159    
     60500   311.86114     -3239.6998     -3257.7189      18.019113      8848.766       10112.159    
     60600   290.55579     -3240.0389     -3256.827       16.788106      9117.4275      10112.159    
     60700   303.22022     -3240.4214     -3257.9412      17.519847      8677.3273      10112.159    
     60800   287.43458     -3240.7364     -3257.3442      16.607764      8898.9605      10112.159    
     60900   291.56016     -3240.0999     -3256.946       16.846137      9095.4492      10112.159    
     61000   311.39365     -3238.7837     -3256.7758      17.992102      9259.6606      10112.159    
     61100   322.97703     -3238.2306     -3256.8919      18.661382      9057.7278      10112.159    
     61200   301.43371     -3239.2455     -3256.6621      17.416624      9325.6347      10112.159    
     61300   293.22339     -3241.2767     -3258.219       16.942238      8938.5804      10112.159    
     61400   278.7178      -3241.4628     -3257.5669      16.104115      9057.9067      10112.159    
     61500   306.83752     -3240.2332     -3257.9621      17.728852      9001.6826      10112.159    
     61600   298.8124      -3239.3958     -3256.661       17.265167      8898.2569      10112.159    
     61700   309.27766     -3238.6707     -3256.5406      17.869842      9463.0292      10112.159    
     61800   304.58583     -3239.0581     -3256.6568      17.598752      9133.5408      10112.159    
     61900   277.20387     -3241.0179     -3257.0346      16.016642      9095.0905      10112.159    
     62000   292.16975     -3241.088      -3257.9693      16.881359      8767.2813      10112.159    
     62100   306.4905      -3240.3385     -3258.0473      17.708802      8682.6565      10112.159    
     62200   303.66663     -3239.2849     -3256.8306      17.545641      9024.3656      10112.159    
     62300   318.02803     -3238.7521     -3257.1275      18.375432      9449.7335      10112.159    
     62400   298.25457     -3239.2137     -3256.4467      17.232936      9303.2619      10112.159    
     62500   299.30911     -3239.6051     -3256.8989      17.293867      9211.1428      10112.159    
     62600   303.30118     -3240.091      -3257.6155      17.524525      8845.0228      10112.159    
     62700   307.44699     -3240.2632     -3258.0272      17.764067      8595.3941      10112.159    
     62800   279.40516     -3240.049      -3256.1929      16.14383       9179.2046      10112.159    
     62900   295.55903     -3238.8507     -3255.9279      17.07719       9377.5346      10112.159    
     63000   332.14164     -3238.3825     -3257.5734      19.190907      8958.6717      10112.159    
     63100   300.89033     -3239.6964     -3257.0816      17.385228      9302.9436      10112.159    
     63200   302.69517     -3240.2644     -3257.7539      17.48951       8964.5926      10112.159    
     63300   289.28757     -3240.4168     -3257.1316      16.714829      9058.948       10112.159    
     63400   292.90406     -3240.3379     -3257.2617      16.923787      8962.2307      10112.159    
     63500   306.78897     -3239.8819     -3257.6079      17.726047      8628.1132      10112.159    
     63600   312.10142     -3239.466      -3257.499       18.032997      8986.3413      10112.159    
     63700   296.41355     -3239.4027     -3256.5292      17.126563      9458.9508      10112.159    
     63800   297.98156     -3239.4324     -3256.6496      17.217161      9345.1329      10112.159    
     63900   295.59774     -3240.1572     -3257.2366      17.079426      8799.2738      10112.159    
     64000   290.33163     -3240.7568     -3257.5319      16.775154      8949.2336      10112.159    
     64100   283.67228     -3241.0371     -3257.4275      16.390381      8606.8754      10112.159    
     64200   314.17769     -3239.6542     -3257.8072      18.152962      8943.9642      10112.159    
     64300   293.53821     -3239.0167     -3255.9772      16.960428      9417.2462      10112.159    
     64400   312.52265     -3238.3678     -3256.4252      18.057335      9422.0966      10112.159    
     64500   305.12039     -3238.7873     -3256.417       17.629638      9010.8979      10112.159    
     64600   297.10013     -3240.4161     -3257.5823      17.166233      8997.0388      10112.159    
     64700   284.82235     -3241.2248     -3257.6816      16.456831      8613.5267      10112.159    
     64800   295.19882     -3240.6627     -3257.7191      17.056377      8728.2914      10112.159    
     64900   309.52577     -3239.3242     -3257.2083      17.884177      8883.6181      10112.159    
     65000   300.71669     -3239.2897     -3256.6649      17.375195      9171.7833      10112.159    
     65100   305.16316     -3239.434      -3257.0661      17.632109      9103.2549      10112.159    
     65200   300.99519     -3240.092      -3257.4832      17.391287      8992.0474      10112.159    
     65300   289.07391     -3241.3112     -3258.0136      16.702484      8366.1         10112.159    
     65400   274.32222     -3242.9274     -3258.7775      15.850142      8272.7975      10112.159    
     65500   276.67789     -3242.703      -3258.6892      15.986251      8125.8347      10112.159    
     65600   291.48063     -3241.2828     -3258.1244      16.841542      8734.4347      10112.159    
     65700   287.90557     -3240.4153     -3257.0503      16.634978      9097.5573      10112.159    
     65800   304.24544     -3239.385      -3256.9641      17.579084      9211.0818      10112.159    
     65900   300.50931     -3238.8751     -3256.2383      17.363213      9208.4106      10112.159    
     66000   324.64187     -3238.6358     -3257.3934      18.757575      8819.7641      10112.159    
     66100   296.41143     -3240.3913     -3257.5178      17.12644       8774.4697      10112.159    
     66200   290.88037     -3240.717      -3257.5238      16.80686       8866.0275      10112.159    
     66300   290.61245     -3240.4334     -3257.2248      16.79138       9145.9078      10112.159    
     66400   302.41698     -3239.3314     -3256.8048      17.473437      8843.3825      10112.159    
     66500   313.26509     -3238.3738     -3256.4741      18.100233      9263.897       10112.159    
     66600   312.69636     -3238.7086     -3256.776       18.067372      8791.8758      10112.159    
     66700   308.37955     -3239.2463     -3257.0642      17.81795       8978.1448      10112.159    
     66800   287.1112      -3240.2149     -3256.804       16.58908       9247.2068      10112.159    
     66900   303.73548     -3240.4565     -3258.0061      17.549619      8589.1308      10112.159    
     67000   316.38883     -3239.9475     -3258.2283      18.280721      8786.6046      10112.159    
     67100   296.58527     -3238.4127     -3255.5492      17.136485      9474.6122      10112.159    
     67200   313.68955     -3237.8762     -3256.0009      18.124758      9442.4892      10112.159    
     67300   313.78284     -3239.2297     -3257.3599      18.130148      9179.2483      10112.159    
     67400   294.38694     -3240.1375     -3257.1469      17.009467      8875.0234      10112.159    
     67500   303.72042     -3239.8493     -3257.398       17.548748      9187.6845      10112.159    
     67600   291.65339     -3239.6997     -3256.5513      16.851524      9186.8642      10112.159    
     67700   309.43408     -3239.2128     -3257.0917      17.87888       8848.6013      10112.159    
     67800   309.57385     -3239.2689     -3257.1558      17.886955      9097.9572      10112.159    
     67900   295.96038     -3240.6979     -3257.7983      17.100379      8606.4047      10112.159    
     68000   304.18694     -3241.0476     -3258.6233      17.575704      8845.7341      10112.159    
     68100   268.55792     -3240.5452     -3256.0623      15.517084      9055.0658      10112.159    
     68200   300.99743     -3239.0796     -3256.471       17.391416      9243.7606      10112.159    
     68300   306.51901     -3239.2103     -3256.9208      17.710449      9133.8597      10112.159    
     68400   308.47176     -3240.0094     -3257.8327      17.823278      8677.2541      10112.159    
     68500   276.2968      -3241.0727     -3257.0369      15.964232      8518.3491      10112.159    
     68600   282.01898     -3240.7066     -3257.0014      16.294855      9038.4444      10112.159    
     68700   314.63842     -3239.1891     -3257.3687      18.179583      9049.6177      10112.159    
     68800   317.6445      -3238.6267     -3256.98        18.353272      8764.1042      10112.159    
     68900   307.53879     -3239.1915     -3256.9608      17.769371      9107.9513      10112.159    
     69000   293.80365     -3240.3215     -3257.2972      16.975765      8997.3919      10112.159    
     69100   296.81949     -3240.3812     -3257.5312      17.150018      8438.0999      10112.159    
     69200   304.86362     -3239.7343     -3257.3491      17.614802      9105.1404      10112.159    
     69300   304.96248     -3239.0669     -3256.6874      17.620514      9296.9808      10112.159    
     69400   319.75782     -3237.7531     -3256.2285      18.475378      9310.802       10112.159    
     69500   316.85933     -3238.2072     -3256.5151      18.307905      9234.3795      10112.159    
     69600   291.61084     -3239.7251     -3256.5742      16.849066      9015.5051      10112.159    
     69700   295.01051     -3240.1213     -3257.1668      17.045496      9225.797       10112.159    
     69800   297.57203     -3240.3784     -3257.5719      17.193499      8669.1981      10112.159    
     69900   295.80879     -3240.7613     -3257.8529      17.09162       8400.1403      10112.159    
     70000   275.66192     -3241.2479     -3257.1755      15.927548      8700.1038      10112.159    
     70100   300.65395     -3240.2551     -3257.6267      17.37157       8926.1393      10112.159    
     70200   294.11757     -3239.2084     -3256.2023      16.993903      9055.2646      10112.159    
     70300   323.23779     -3238.3063     -3256.9827      18.676448      8801.6973      10112.159    
     70400   308.9868      -3238.8868     -3256.7398      17.853036      8896.5026      10112.159    
     70500   305.8927      -3239.56       -3257.2342      17.674261      8982.361       10112.159    
     70600   296.6308      -3239.9546     -3257.0937      17.139116      9271.878       10112.159    
     70700   289.50877     -3240.4007     -3257.1283      16.72761       8931.8152      10112.159    
     70800   296.03063     -3240.4238     -3257.5282      17.104438      8438.6312      10112.159    
     70900   316.50025     -3238.9403     -3257.2274      18.287158      9086.9934      10112.159    
     71000   321.30623     -3238.1602     -3256.7251      18.564844      9473.3176      10112.159    
     71100   289.85167     -3239.4548     -3256.2022      16.747422      9043.3997      10112.159    
     71200   310.54568     -3239.8496     -3257.7927      17.943107      8817.161       10112.159    
     71300   304.42951     -3239.9725     -3257.5622      17.58972       8837.9563      10112.159    
     71400   301.78689     -3240.0267     -3257.4638      17.437031      8741.7696      10112.159    
     71500   283.60719     -3240.6945     -3257.0812      16.38662       8485.5917      10112.159    
     71600   287.02087     -3241.3152     -3257.899       16.583861      8558.695       10112.159    
     71700   300.68486     -3240.9642     -3258.3375      17.373356      8690.667       10112.159    
     71800   301.6605      -3239.6109     -3257.0406      17.429728      8847.6778      10112.159    
     71900   301.09051     -3239.1709     -3256.5677      17.396794      9266.7984      10112.159    
     72000   304.54626     -3239.4674     -3257.0639      17.596465      8844.7988      10112.159    
     72100   317.49504     -3239.7727     -3258.1173      18.344637      8666.5803      10112.159    
     72200   281.84647     -3241.342      -3257.6268      16.284888      8573.4922      10112.159    
     72300   280.11009     -3242.2909     -3258.4755      16.184561      8307.4007      10112.159    
     72400   279.65064     -3241.361      -3257.519       16.158014      8838.708       10112.159    
     72500   304.98657     -3240.2922     -3257.9141      17.621906      8654.2012      10112.159    
     72600   291.65617     -3240.0332     -3256.8849      16.851685      9137.8706      10112.159    
     72700   301.72643     -3239.4369     -3256.8705      17.433538      9073.152       10112.159    
     72800   303.37319     -3238.9582     -3256.4869      17.528686      8877.6821      10112.159    
     72900   316.37702     -3238.3399     -3256.6199      18.280038      9342.6121      10112.159    
     73000   305.97322     -3238.8831     -3256.562       17.678914      8934.7409      10112.159    
     73100   310.12301     -3240.3061     -3258.2248      17.918686      8898.9537      10112.159    
     73200   281.956       -3241.0711     -3257.3623      16.291216      8776.4192      10112.159    
     73300   305.00643     -3240.2952     -3257.9183      17.623053      8393.2437      10112.159    
     73400   293.82256     -3239.7851     -3256.762       16.976858      8750.6935      10112.159    
     73500   295.01699     -3239.4685     -3256.5144      17.045871      9136.0006      10112.159    
     73600   304.06319     -3239.4844     -3257.0529      17.568553      8820.2487      10112.159    
     73700   303.80522     -3239.5634     -3257.117       17.553648      8454.3786      10112.159    
     73800   313.6861      -3239.7624     -3257.887       18.124558      8917.5884      10112.159    
     73900   288.59545     -3240.7876     -3257.4624      16.674838      8745.722       10112.159    
     74000   275.99385     -3241.4776     -3257.4243      15.946727      8830.9561      10112.159    
     74100   286.63374     -3240.9516     -3257.5131      16.561492      9101.7943      10112.159    
     74200   318.60671     -3239.3878     -3257.7967      18.408868      8774.5607      10112.159    
     74300   327.89134     -3238.9085     -3257.8538      18.945327      8876.108       10112.159    
     74400   286.43594     -3239.6089     -3256.159       16.550064      9060.4377      10112.159    
     74500   286.13989     -3240.5028     -3257.0358      16.532958      8724.0879      10112.159    
     74600   302.05042     -3241.8408     -3259.293       17.452257      8395.7196      10112.159    
     74700   285.70542     -3241.9679     -3258.4757      16.507855      8142.9187      10112.159    
     74800   279.10619     -3241.0423     -3257.1688      16.126556      8875.2763      10112.159    
     74900   284.61809     -3240.6417     -3257.0867      16.44503       9437.7536      10112.159    
     75000   310.4179      -3239.6488     -3257.5845      17.935724      8780.3019      10112.159    
     75100   321.86864     -3238.9705     -3257.5678      18.59734       8491.2677      10112.159    
     75200   304.06686     -3239.3783     -3256.9471      17.568765      8965.0411      10112.159    
     75300   282.68449     -3240.8988     -3257.2321      16.333308      9130.1428      10112.159    
     75400   292.09298     -3241.5501     -3258.427       16.876923      8661.5144      10112.159    
[...]
    281800   311.49023     -3239.5637     -3257.5614      17.997682      8516.4737      10112.159    
    281900   302.84013     -3238.1833     -3255.6812      17.497886      9467.5553      10112.159    
    282000   325.86929     -3237.7066     -3256.5351      18.828495      9094.1607      10112.159    
    282100   305.95415     -3238.7933     -3256.4711      17.677812      9135.394       10112.159    
    282200   310.37365     -3239.1975     -3257.1306      17.933167      9093.0397      10112.159    
    282300   297.0538      -3240.189      -3257.3526      17.163556      8869.7259      10112.159    
    282400   279.16222     -3241.0965     -3257.2263      16.129794      8793.9639      10112.159    
    282500   318.88704     -3240.3171     -3258.7421      18.425065      8665.8188      10112.159    
    282600   302.12582     -3239.5112     -3256.9679      17.456614      9043.1302      10112.159    
    282700   297.11349     -3238.6206     -3255.7876      17.167005      9724.7927      10112.159    
    282800   338.72238     -3236.724      -3256.2951      19.571137      9415.7213      10112.159    
    282900   313.94559     -3237.7782     -3255.9177      18.139552      9154.0496      10112.159    
    283000   315.21586     -3238.9909     -3257.2038      18.212947      8849.6617      10112.159    
    283100   293.74535     -3240.1238     -3257.0962      16.972396      8966.6682      10112.159    
    283200   289.54418     -3240.5563     -3257.2859      16.729655      8844.8534      10112.159    
    283300   306.32213     -3240.0507     -3257.7498      17.699074      8730.5918      10112.159    
    283400   306.93238     -3238.7257     -3256.46        17.734333      9216.6967      10112.159    
    283500   319.43136     -3237.5776     -3256.0341      18.456516      9305.5849      10112.159    
    283600   301.45162     -3238.7591     -3256.1768      17.417659      9077.7771      10112.159    
    283700   303.55784     -3239.6239     -3257.1632      17.539355      8938.8562      10112.159    
    283800   297.05038     -3240.0637     -3257.2271      17.163358      8641.0947      10112.159    
    283900   301.10745     -3240.3976     -3257.7953      17.397773      8783.9943      10112.159    
    284000   294.61286     -3240.5435     -3257.566       17.022521      8955.4613      10112.159    
    284100   309.54726     -3239.555      -3257.4404      17.885419      9001.0889      10112.159    
    284200   305.82843     -3238.725      -3256.3955      17.670548      8915.4822      10112.159    
    284300   314.51015     -3238.6467     -3256.8189      18.172171      9056.3318      10112.159    
    284400   301.26812     -3240.0174     -3257.4245      17.407056      9028.1145      10112.159    
    284500   278.65914     -3241.2512     -3257.3519      16.100726      8693.4691      10112.159    
    284600   291.43503     -3240.9743     -3257.8132      16.838907      8662.3487      10112.159    
    284700   311.54886     -3240.0854     -3258.0865      18.00107       8695.6427      10112.159    
    284800   298.07473     -3239.8257     -3257.0482      17.222545      8647.0692      10112.159    
    284900   298.80635     -3239.7147     -3256.9795      17.264817      8949.0566      10112.159    
    285000   302.65896     -3239.5742     -3257.0616      17.487418      9175.0631      10112.159    
    285100   309.82269     -3239.5586     -3257.4599      17.901333      8784.3404      10112.159    
    285200   282.92702     -3240.7208     -3257.0681      16.347321      8600.4014      10112.159    
    285300   287.04003     -3241.356      -3257.941       16.584968      8624.5277      10112.159    
    285400   306.07546     -3240.7324     -3258.4172      17.684821      8719.7521      10112.159    
    285500   290.07919     -3239.3533     -3256.1138      16.760568      8814.0265      10112.159    
    285600   320.88912     -3238.5765     -3257.1172      18.540744      8775.6947      10112.159    
    285700   302.34923     -3239.0734     -3256.543       17.469522      9340.3948      10112.159    
    285800   300.28435     -3239.9843     -3257.3345      17.350215      8791.0898      10112.159    
    285900   292.36762     -3240.6369     -3257.5297      16.892792      8677.1562      10112.159    
    286000   307.47157     -3240.4658     -3258.2313      17.765487      8669.2979      10112.159    
    286100   293.80103     -3240.1185     -3257.0941      16.975613      8962.164       10112.159    
    286200   300.30883     -3239.9162     -3257.2678      17.35163       8919.2224      10112.159    
    286300   294.63501     -3240.1467     -3257.1705      17.0238        8658.8732      10112.159    
    286400   317.04667     -3239.821      -3258.1398      18.31873       9136.2442      10112.159    
    286500   301.73994     -3239.1071     -3256.5414      17.434318      9078.2037      10112.159    
    286600   312.84902     -3238.0231     -3256.0993      18.076193      8963.865       10112.159    
    286700   288.6788      -3238.9506     -3255.6302      16.679655      9432.5502      10112.159    
    286800   307.14308     -3239.959      -3257.7055      17.746507      8937.3968      10112.159    
    286900   302.04254     -3240.5895     -3258.0413      17.451802      8652.5411      10112.159    
    287000   289.51163     -3240.5209     -3257.2487      16.727775      9010.3185      10112.159    
    287100   293.9528      -3239.873      -3256.8573      16.984382      8989.4333      10112.159    
    287200   317.15687     -3239.0936     -3257.4187      18.325097      9223.7215      10112.159    
    287300   304.47902     -3239.2133     -3256.8059      17.59258       9041.0631      10112.159    
    287400   288.35067     -3241.0735     -3257.7342      16.660695      8905.9502      10112.159    
    287500   291.02484     -3241.8448     -3258.66        16.815207      8767.1048      10112.159    
    287600   296.13463     -3241.1531     -3258.2635      17.110447      8541.9444      10112.159    
    287700   297.92014     -3239.9329     -3257.1465      17.213613      8783.9233      10112.159    
    287800   295.5292      -3239.0268     -3256.1022      17.075466      9604.1461      10112.159    
    287900   318.42205     -3238.7297     -3257.1279      18.398198      9317.6237      10112.159    
    288000   293.34151     -3239.5983     -3256.5473      16.949063      9207.1042      10112.159    
    288100   301.32434     -3239.8427     -3257.253       17.410305      8812.4384      10112.159    
    288200   308.33256     -3240.1677     -3257.9829      17.815235      8803.4779      10112.159    
    288300   302.04138     -3240.4281     -3257.8799      17.451735      8958.7076      10112.159    
    288400   284.43084     -3240.3667     -3256.8009      16.434211      9098.5202      10112.159    
    288500   319.98283     -3238.9883     -3257.4767      18.488379      8987.0029      10112.159    
    288600   310.18675     -3238.737      -3256.6594      17.922369      9137.284       10112.159    
    288700   300.92252     -3239.4781     -3256.8651      17.387088      8734.4322      10112.159    
    288800   294.68254     -3240.6446     -3257.6712      17.026547      8955.5369      10112.159    
    288900   292.01567     -3241.337      -3258.2095      16.872457      8432.4667      10112.159    
    289000   302.77884     -3240.6343     -3258.1286      17.494345      8632.7089      10112.159    
    289100   297.73776     -3239.7975     -3257.0006      17.203075      9195.8419      10112.159    
    289200   295.56377     -3239.3139     -3256.3913      17.077463      9241.3569      10112.159    
    289300   305.63617     -3239.2855     -3256.945       17.659439      9075.3991      10112.159    
    289400   301.40661     -3239.9995     -3257.4146      17.415058      8981.0836      10112.159    
    289500   291.80508     -3241.1234     -3257.9837      16.860289      8569.4457      10112.159    
    289600   276.37823     -3241.8916     -3257.8606      15.968937      9051.2325      10112.159    
    289700   305.16277     -3240.1824     -3257.8144      17.632087      8609.2122      10112.159    
    289800   306.56562     -3239.4552     -3257.1684      17.713143      8933.6886      10112.159    
    289900   299.03602     -3239.4864     -3256.7645      17.278088      9164.2304      10112.159    
    290000   299.89275     -3239.3701     -3256.6977      17.327589      9505.8079      10112.159    
    290100   305.81906     -3239.5453     -3257.2153      17.670007      9165.8166      10112.159    
    290200   295.09281     -3240.7984     -3257.8487      17.050252      8648.4628      10112.159    
    290300   287.60331     -3241.4413     -3258.0588      16.617514      8319.2592      10112.159    
    290400   298.02386     -3240.4629     -3257.6825      17.219605      8744.1628      10112.159    
    290500   289.71577     -3239.0403     -3255.7798      16.73957       9626.6214      10112.159    
    290600   327.96395     -3238.7158     -3257.6654      18.949523      8730.5291      10112.159    
    290700   298.83454     -3239.6953     -3256.9618      17.266446      8773.8963      10112.159    
    290800   294.11315     -3240.3123     -3257.306       16.993647      8826.888       10112.159    
    290900   279.75373     -3240.6679     -3256.8319      16.163971      8638.0875      10112.159    
    291000   313.95023     -3239.8015     -3257.9413      18.13982       8601.6143      10112.159    
    291100   315.01427     -3238.843      -3257.0443      18.201299      9185.0746      10112.159    
    291200   312.6602      -3238.5325     -3256.5978      18.065283      9107.7695      10112.159    
    291300   314.25919     -3239.4069     -3257.5646      18.157671      8636.5957      10112.159    
    291400   272.36148     -3241.0505     -3256.7874      15.736851      8839.1377      10112.159    
    291500   300.56907     -3240.8973     -3258.2639      17.366666      8730.7105      10112.159    
    291600   300.48106     -3240.2736     -3257.6352      17.361581      8581.9522      10112.159    
    291700   316.94365     -3239.0281     -3257.3409      18.312778      9077.8593      10112.159    
    291800   299.92699     -3239.3899     -3256.7194      17.329567      9001.9658      10112.159    
    291900   293.73687     -3239.7792     -3256.7511      16.971906      8815.8607      10112.159    
    292000   318.34447     -3239.6837     -3258.0774      18.393716      8811.7781      10112.159    
    292100   287.44613     -3240.6164     -3257.2248      16.608432      8964.764       10112.159    
    292200   280.71133     -3242.0478     -3258.2671      16.2193        8663.9369      10112.159    
    292300   290.37352     -3241.8221     -3258.5997      16.777574      8522.8759      10112.159    
    292400   291.75043     -3240.5143     -3257.3715      16.857131      8746.6722      10112.159    
    292500   307.81626     -3239.698      -3257.4834      17.785403      8934.8623      10112.159    
    292600   286.42786     -3239.6935     -3256.2431      16.549597      9246.9577      10112.159    
    292700   293.67583     -3239.7913     -3256.7597      16.96838       9105.2301      10112.159    
    292800   299.76495     -3240.5426     -3257.8628      17.320204      8775.5462      10112.159    
    292900   278.1074      -3241.7783     -3257.8471      16.068847      8328.3117      10112.159    
    293000   296.97309     -3241.3251     -3258.484       17.158893      8482.4964      10112.159    
    293100   306.04876     -3239.6429     -3257.3262      17.683278      8939.6099      10112.159    
    293200   295.60458     -3239.1343     -3256.2141      17.079821      9613.3758      10112.159    
    293300   312.39104     -3239.2279     -3257.2776      18.049731      9424.999       10112.159    
    293400   284.84132     -3240.4032     -3256.8612      16.457928      8986.2331      10112.159    
    293500   303.3642      -3240.5526     -3258.0807      17.528166      8450.0837      10112.159    
    293600   281.27232     -3240.5186     -3256.7703      16.251714      8964.4204      10112.159    
    293700   330.19699     -3238.5301     -3257.6086      19.078546      8998.4254      10112.159    
    293800   301.4458      -3238.8101     -3256.2274      17.417323      9222.2968      10112.159    
    293900   309.81608     -3239.5812     -3257.4822      17.900952      8824.8307      10112.159    
    294000   299.72999     -3240.9015     -3258.2196      17.318184      8682.6349      10112.159    
    294100   286.51891     -3240.7762     -3257.3311      16.554857      8779.0322      10112.159    
    294200   299.5504      -3240.0926     -3257.4005      17.307808      9069.9591      10112.159    
    294300   286.08552     -3239.7689     -3256.2987      16.529817      8716.4032      10112.159    
    294400   317.26486     -3239.2265     -3257.5578      18.331336      8712.46        10112.159    
    294500   291.44218     -3239.7627     -3256.602       16.839321      8885.2886      10112.159    
    294600   311.78877     -3239.7052     -3257.7202      18.014932      8826.0888      10112.159    
    294700   283.03864     -3240.1639     -3256.5177      16.35377       9332.2992      10112.159    
    294800   295.53922     -3239.9755     -3257.0515      17.076045      8800.5333      10112.159    
    294900   325.88865     -3239.2686     -3258.0982      18.829613      8752.4422      10112.159    
    295000   291.55122     -3238.8717     -3255.7173      16.845621      9109.4168      10112.159    
    295100   317.55381     -3238.3019     -3256.6499      18.348032      9057.6502      10112.159    
    295200   306.17357     -3239.7724     -3257.4629      17.69049       9230.392       10112.159    
    295300   285.73058     -3240.6298     -3257.1391      16.509308      8724.4373      10112.159    
    295400   302.02218     -3240.3233     -3257.7739      17.450626      8580.2189      10112.159    
    295500   304.92602     -3239.7328     -3257.3512      17.618407      9024.5542      10112.159    
    295600   318.17535     -3238.4234     -3256.8073      18.383944      9235.218       10112.159    
    295700   304.354       -3238.0732     -3255.6586      17.585357      9258.2202      10112.159    
    295800   295.04797     -3239.3383     -3256.386       17.047661      9047.5294      10112.159    
    295900   310.33724     -3240.4363     -3258.3674      17.931064      8677.4364      10112.159    
    296000   285.89766     -3241.4213     -3257.9403      16.518962      9075.8938      10112.159    
    296100   286.65885     -3240.8864     -3257.4493      16.562943      8539.7931      10112.159    
    296200   305.86038     -3239.5713     -3257.2437      17.672394      8643.6416      10112.159    
    296300   316.01753     -3239.4026     -3257.6618      18.259267      8882.2589      10112.159    
    296400   287.46299     -3239.9294     -3256.5388      16.609406      9237.3303      10112.159    
    296500   292.76874     -3240.3806     -3257.2966      16.915968      8775.8115      10112.159    
    296600   294.54357     -3241.4896     -3258.5081      17.018517      8459.6741      10112.159    
    296700   273.76032     -3242.2799     -3258.0976      15.817676      8116.5891      10112.159    
    296800   313.29587     -3240.7405     -3258.8425      18.102012      8466.5099      10112.159    
    296900   287.93606     -3239.9479     -3256.5846      16.636739      9037.9719      10112.159    
    297000   309.30392     -3239.0319     -3256.9033      17.871359      8890.7401      10112.159    
    297100   308.32735     -3239.3331     -3257.148       17.814934      8726.0286      10112.159    
    297200   286.24299     -3240.2448     -3256.7837      16.538915      8832.1722      10112.159    
    297300   303.07836     -3240.5704     -3258.0821      17.511651      8679.078       10112.159    
    297400   291.00793     -3241.8524     -3258.6666      16.81423       8179.3059      10112.159    
    297500   299.11847     -3241.1066     -3258.3895      17.282851      8583.521       10112.159    
    297600   280.74164     -3240.1995     -3256.4205      16.221051      8878.4347      10112.159    
    297700   308.12222     -3239.461      -3257.2641      17.803082      9166.9626      10112.159    
    297800   304.0364      -3239.7174     -3257.2844      17.567006      8821.1938      10112.159    
    297900   308.03522     -3239.6655     -3257.4635      17.798055      8910.3778      10112.159    
    298000   300.04708     -3239.7564     -3257.0929      17.336506      9088.9354      10112.159    
    298100   296.65372     -3241.4549     -3258.5953      17.14044       8441.5837      10112.159    
    298200   270.62288     -3242.063      -3257.6994      15.636397      8717.5786      10112.159    
    298300   297.17027     -3240.8168     -3257.9871      17.170286      8673.3519      10112.159    
    298400   301.42966     -3239.9791     -3257.3954      17.41639       8424.1539      10112.159    
    298500   304.41211     -3239.6204     -3257.2091      17.588714      8969.1503      10112.159    
    298600   298.21658     -3239.7622     -3256.9929      17.23074       8712.7747      10112.159    
    298700   305.21591     -3239.8277     -3257.4628      17.635157      8796.1215      10112.159    
    298800   291.69793     -3239.9562     -3256.8103      16.854098      9234.6775      10112.159    
    298900   300.44889     -3239.8297     -3257.1894      17.359722      8809.773       10112.159    
    299000   304.59931     -3239.9252     -3257.5247      17.59953       8848.2678      10112.159    
    299100   294.24004     -3240.5879     -3257.5889      17.000979      8740.099       10112.159    
    299200   280.6369      -3240.8119     -3257.0269      16.214999      8795.7042      10112.159    
    299300   312.56442     -3239.6775     -3257.7372      18.059748      8563.6162      10112.159    
    299400   309.90619     -3238.6373     -3256.5435      17.906158      8980.2043      10112.159    
    299500   304.96418     -3238.4705     -3256.0911      17.620612      9507.3666      10112.159    
    299600   300.01726     -3240.292      -3257.6268      17.334783      8796.574       10112.159    
    299700   280.167       -3241.1683     -3257.3562      16.187849      8938.3541      10112.159    
    299800   301.98533     -3240.3254     -3257.7739      17.448496      8531.4875      10112.159    
    299900   306.43904     -3239.5218     -3257.2276      17.705828      8926.7178      10112.159    
    300000   318.53384     -3238.8802     -3257.2849      18.404657      8640.9926      10112.159    
Loop time of 2298.44 on 20 procs for 300000 steps with 448 atoms

Performance: 11.277 ns/day, 2.128 hours/ns, 130.523 timesteps/s, 58.474 katom-step/s
99.9% CPU use with 20 MPI tasks x 1 OpenMP threads

MPI task timing breakdown:
Section |  min time  |  avg time  |  max time  |%varavg| %total
---------------------------------------------------------------
Pair    | 1764.7     | 1996.6     | 2191.7     | 395.6 | 86.87
Neigh   | 20.549     | 26.923     | 34.956     |  97.8 |  1.17
Comm    | 68.478     | 271.8      | 510.21     |1102.3 | 11.83
Output  | 0.35965    | 0.57313    | 0.64382    |   7.5 |  0.02
Modify  | 2.1031     | 2.304      | 2.4445     |   6.0 |  0.10
Other   |            | 0.2795     |            |       |  0.01

Nlocal:           22.4 ave          24 max          17 min
Histogram: 1 0 1 0 3 2 0 0 2 11
Nghost:          498.3 ave         524 max         466 min
Histogram: 4 0 0 4 2 2 0 0 3 5
Neighs:              0 ave           0 max           0 min
Histogram: 20 0 0 0 0 0 0 0 0 0
FullNghs:       1281.6 ave        1379 max         973 min
Histogram: 1 0 0 2 2 1 1 0 2 11

Total # of neighbors = 25632
Ave neighs/atom = 57.214286
Neighbor list builds = 300000
Dangerous builds not checked
Total wall time: 0:38:18
