ITEM: TIMESTEP
1
ITEM: NUMBER OF ATOMS
108
ITEM: BOX BOUNDS pp pp pp
0.0000000000000000e+00 1.0956000000000000e+01
0.0000000000000000e+00 1.0956000000000000e+01
0.0000000000000000e+00 1.0629000000000000e+01
ITEM: ATOMS id type x y z fx fy fz
   1 1    1.952682408914854450543430175    1.791737743045012765108481290    2.576082604240391926708753090    1.198610991509219125816798623   -0.936048819419900035576631581   -1.127868320116181877210692619
   2 1    3.297428499834421433689612968    7.139776232039461767442389828   10.565361849135660676779480127    1.501156579726465434276860833    2.154101423337933862711679467   -0.346077175119033242367549974
   3 1    5.440984529889352216969200526    5.479701143196512802546749299    1.940549793835915082240717311    3.593626409237363095172668181    0.745513949142511789247578236    1.997143095728261208421372430
   4 1    8.868963752446623161063143925    5.103523977459642146925489214    8.055283821505907937421397946    1.750693823157599471329604057    4.100823561714701526170756551   -1.441822082450927799968098952
   5 1    0.291597794908243668210445776    6.839621898856467652194623952    4.998638730302245036796193745    1.175626943971441740188765834    0.539266933653294699979596771    3.261799568755316514057085442
   6 1   10.837106118648792474346009840    0.535798548506619232156822363    0.294573737370133981183784044   -3.344696702320644199346588721   -3.494364228819772044687397283   -0.517575026243273783599363469
   7 1    7.418796749334088502791928477    3.715302174134344159739384850    5.289774270826860913530254038   -0.452892699641250895403743471   -1.829271424471117679644294185   -2.781243721688748671283519798
   8 1    7.096636442234649955196346127    7.189576086128884213621859089    4.976479635982422600193331164    0.352892954529875568780994399   -1.454465260939902693237968379    1.758888012384318244585301727
   9 1    1.615272504780142392988295796    5.222883075717244416580342659    2.426190611505575578377147394   -1.462173651419583553234815554    0.782183548505907322301311524    0.818352201520847533089408898
  10 1   10.909340485830457012639271852    3.596407210151509215023679644    5.359123736856554742757907661    1.376407401371841032755583001   -0.868595964902996509060528751    0.815698926125550505261685430
  11 1   10.799912272112157651804409397    3.806821630918530097176244453   10.315000181544945689893211238    3.358037247103878186749170709   -0.596808500275746056651371418    0.188912423459211886722641793
  12 1    2.077102854418497290822642753    5.458364041188795923176257929    8.009070775828583066413557390   -3.523596604847987645570128734    0.990365708626417706739175628   -1.361154518060659679434820646
  13 1    9.251428540587472326706119929    8.666012555604684308718788088    7.208219888167917588361888193   -1.292755070659112881514829496   -0.801989185278620730912280123    4.737673151149433437012703507
  14 1    1.887917741059852883012126767    1.402735047257261724595878150    7.809746149773123313764244813   -0.107546065052653516680436496    1.743322250905424475320160127    0.514284499469627731649268298
  15 1    7.017506058067673357925286837    7.549455138299447476413206459   10.194460841261246741851209663    2.092721784016373653969367297    1.187476828263480888026037974   -2.690318526042577929047183716
  16 1    8.551860553640393547425446741    9.043132557470542565170035232    2.473202713977712630111227554    3.776513836145200198046723017    0.754070035561879015162389805   -0.538182763048797530025524338
  17 1    5.357338820476686080951367330    9.294707095351279591000093205    3.009534347783890950722707203   -0.832829010914433065515538601   -0.702314779102888531170378883    2.161310546088023532007582617
  18 1    5.089801370109001688035732514    9.052573568605779996687488165    7.968751669666817250003987283    2.602968772511270678648998000   -0.142094073834969303327113721   -0.204401695930008453494508558
  19 1   10.707017516470873630396454246   10.664869993340163389916597225    4.895344502155402288678942568    2.979324353119106483234190819    1.134958068487148530323338491    3.092982466740748392908244568
  20 1    3.343314614128132689074845985    3.736024916846760302036045687    5.065208009671769318060796650    0.890879579587351200231637449   -2.163493955601664353594060231    4.120428323100100875819862267
  21 1   10.867610066691634429503210413    7.326264536663413373673847673   10.281356350600612259427180106   -3.058883901425324847167530606    0.413273207040697476699619983   -2.545617016676031241217970091
  22 1    1.712448163225416930544042771    9.037000291098962634350755252    7.946548804000743260189665307    0.326760792824646095766638609    0.324511742886016307796381852    1.106029345564394583689704632
  23 1    7.271038928155304503775369085    3.484847556790267031345820214   10.319143690952794045756490959   -2.689198399275568363009369932    0.264581776837125137724626711    1.356376998967859570655036805
  24 1    9.106547847669707707041197864    5.567551430061277173422240594    2.743735369568415016772178205   -3.578706782312362388864812601   -0.331039858207984594162809344   -3.700554710997828511409579733
  25 1    3.400430656168079490697664369    7.173386795523573056243549217    5.101248662181864901299377379   -0.694097596651773729448109407   -5.321875440691957948047274840    3.291365842681294839877637060
  26 1    3.534380133220449415887287614    0.071173953890323729543077036    0.157382345806527823572906755    0.366353805119405739887383788   -0.271378360202929658218096165   -2.222097433488130935330673310
  27 1    7.278432581469014728270394698   10.734014812999204124821517325    5.554794992836393774382486299   -2.406409637671762524746554845   -0.668477935740276474341214907   -2.469630006140770994704780605
  28 1    5.441743688470023876391223894    2.158962580152341548256345050    2.758812502683487988264232627    0.421532210052816380674300945    1.218900027911716588135959682    0.376612001726274125967819373
  29 1    5.786853656482334073984930001    1.600944359458000398888088966    7.848341347183844796120411047   -2.805713646718666964829935750   -0.866245944187529537394709678    0.135383520788163402848169881
  30 1    1.053859319042510067632179016    8.764085222388963813955342630    2.149102096283101115403724179    2.594471232046361652834320921    0.102753686833798929534111721    0.087800507332664756710016718
  31 1    3.515886553076362996961279350   10.937979831607636427293073211    5.302724721419744824402187078    0.326990020505684153562242500   -0.492361832242764585476635375    1.918826133232960362562380396
  32 1    3.367123634128939002607694420    3.709812828612555346552426272    0.053801557705703197120872261    1.151455645338087308005015075    0.916996588195024164846813619   -0.794191580404748465049635797
  33 1    7.130312481960174864070722833    0.205214379447521966248757508    0.468392051612144366679046925    2.562288706448624608924546919   -1.158266911437604962387126761   -4.335761172362931681334430323
  34 1    9.240648986265899367253950913    1.724112495452588378341829412    2.895648719879021282253006575   -1.915344611765056104246696123    4.188585046802840494706288155   -0.194031335274415850378204595
  35 1    5.507889518644176973793946672    5.182321418946446378583914338    8.011143365008894789980331552   -1.407118833662967416486822003    0.124296485599306338887259926   -3.446391257549758613265566964
  36 1    9.263767985181397435212602431    1.259054552128906268038122107    7.846624147518682867996631103   -1.855208908128073819199244099    2.009608931938531295458005843    7.001111570078888846069276042
  37 2    0.320948903621743497627250008    9.376373697855337141504605825    0.351581440933871502974028544    0.234117645935746243601727201   -2.468910730209668891177443584    1.886172485479526317320164708
  38 2    5.862819057399913269534863502    7.198038504256976999329253886    3.068065880190425698259559795   -1.229849430958886324916079502    0.745192920175223871837033585    0.006569164600380747454089203
  39 2   10.864921918941840672800935863    5.695115480405351426895776967    3.453164652055577654721219005    2.390062578161850748159622526   -2.540952925634102133045644223    1.398824939784661713915170367
  40 2    0.048010723943921952694413591    1.494611009901378073649880207    4.067612222773349550664079288   -0.038987892918116329177280477    0.994924806710303810675100067   -0.196968741470077812749650548
  41 2    1.872304661638713341176298854   10.439047885756467692885962606    4.468570796115592713704245398   -2.176369022276037235030798911    0.477020844248671527232374956   -3.283599917130711975943313519
  42 2    3.914782896265454503748060233    9.496803083008030554879042029    1.745202697942445091427998705    1.892765084625782190386189541    5.740777313868086650927580195   -1.597418185452789352041236270
  43 2    1.843410908500663802911390121    3.706134892153801985159589094    1.248553602000922246872960386   -3.003572480338897676688247884   -2.180032964611604118232435212    2.063373477172008918500978325
  44 2    0.034336004834915063999023488    1.743317808901407861554844203    9.408383649797183778673570487    0.902488078297805529359720822    0.797782885290615473294906224   -1.749499803557223787109364821
  45 2    2.137588232684794142812734208   10.453135434777498957714669814    9.289744489811280203639398678   -0.210392552659342674248321714    1.391527396752913148247898789   -0.029835655411228123590205996
  46 2    1.868431038989718961929042962   10.770762114089828642704560480    6.684497145683066854360276920   -3.576004208648912996437729817    2.199135111111387264060113012    1.695620500283397502627735776
  47 2   10.724834343605342823479986691    1.232259961154669625216229178    6.787326143869027106347857625    5.556788413163977757847078465    3.713206328938567057917907732   -2.454439959362201939541137108
  48 2    1.485791034791886344734734848    3.302099095843924025928117771    3.675294161967711303873329598    0.466081886918960686116975012    1.682267463018643827155074177    1.236647770595214357314262088
  49 2    1.387013838056237124973790742    6.965459474112273063894917868    0.909793427957479639012206007   -0.824218980982716731276127575   -2.104926790642941192288617458    2.270278724528298042173446447
  50 2    1.798287534309784163610856922    7.122907650238793131336478837    9.217780242626487208212893165    1.563328036882639437976649788    1.611980347267491175955456129   -1.253850848663879524735875748
  51 2    1.738259522748268448566477673    0.537185696175941473917703206    0.931559186329110056057345446   -1.761802356219228649081287585   -0.862269338289947007147873137    2.646494522412817573808752059
  52 2    3.546045103585313107430465607    5.504589585287471109609214182    6.739526800545830198529984045    2.442144045854409029061571346   -2.249610978377115433346489226    0.390475969026586711141391106
  53 2    3.712768368360805038008720658    1.744436334422082124362418654    6.623532862309743585171872837   -0.826481919492323524600863038   -1.118680429004778265067443499    0.787344326229121871385530085
  54 2    5.390228436999137784368940629    3.307591297921587347730110196    8.922466153727544480034339358    2.078724752714759205218797433   -0.209942600405829349341502166   -1.567415088615526030935143353
  55 2   10.451748285104160984815280244    5.006501128115644405625062063    1.129012322569657111870355948   -1.214009831819764073657097470    1.037113997866335290964912019    1.494071071556404506353032957
  56 2    1.871515409182915368191402194    7.162513987226667211416497594    6.343248216069292233498799760    0.085909734291631123515031732    1.862799256460400343371475174    0.912651030964333642714336747
  57 2   10.630934658610236454023834085    8.404185651993888228616924607    5.915638158646097544135500357    1.678986823974039532814117592    4.421869992626149326042650500   -1.793901867016433282486786993
  58 2    3.786653154496290696329197090    1.500277861673803725395259789    3.651314326117971909013704135   -3.343408254746105257027011248    1.627206344627295298010949409    0.350644757199136625214208607
  59 2    5.288483013156467293924833939   10.690964359143455553180501738    6.606183440039619547690108448    2.412994849269814334746797613    0.941448545256797109104240917    2.559276737171932047942846111
  60 2    5.632292685287894506984684995    0.549856378755305019723209625    1.693300369717487985354864577    0.256561284692037649968199275   -2.075700802545329182180466887   -0.129849535004332217180689213
  61 2    3.463088251586260213343848591    1.962565530418557635528031824    1.140325806922000806409300822    1.590992260017187076570621684   -1.501397087057520618458283934    3.215669092872439183139476881
  62 2    2.734516940022208686400517763    2.403240517988860958098484844    9.585472831299528095883033529   -1.376304048465814444668353644   -4.226623784672401740181157948   -5.044680281577976543871955073
  63 2    5.001936133040439713681735157    0.338626697397930720434544583    9.477588350344333889552217443   -0.206346532521975961627092033    1.336573415136634412903049451   -1.144194097726404013570800089
  64 2   10.946953378508846199679283018    8.455873730010127431455657643    8.591000292106942382019951765   -2.671975520634223055793654567    0.730814499233692460578026839   -0.528708641018762803831521069
  65 2    2.324478766893458558939755676    5.287819812486221238145844836    4.484766178045895834713974182   -0.038370664261859366295226437    2.415384046828295439013345458   -0.697917793686155807364457360
  66 2    4.744929355390268277403720276    4.050436591048605983189645485    3.847036796832007610191794811    2.273783040438451141795894728   -0.012846874187240064912884918   -4.660357538180234904245935468
  67 2    5.234272310916477266573565430    3.401116230517861271920310173    0.577662357079570254470013424    3.420016104528573297471893966    1.722406689265055357296319016    3.757411468220630545999938477
  68 2    8.744594035528351128050417174    7.080974932809063204786070855    6.306361821197446815290277300   -1.527635293198545074488947648   -2.972778732913676336124808586   -3.508967209303119005880944314
  69 2    3.791235198650447557611187221    5.526304943355055065978831408    9.492156290835358944946165138    1.772524482140351631542785071   -1.270899690258362024763982845   -1.724789449315526468353709788
  70 2    5.415316691712753538467950420    3.523252942977102453170346053    6.071643586342385212617500656    1.346707959343037996902125997   -0.992523504708621939762736019    1.078596331363497862199096744
  71 2   10.708065853271373057964410691    5.555468862694270981705813028    9.086526802123843893355115142   -2.759660755158517275731355767   -0.714267422621158498685645100    0.972500865031168837404607075
  72 2    9.353930442294972280592446623   10.661318751299084794936788967    6.820425403086329829704936856   -1.683591033417690674411915097   -5.530514954105096414593845111   -2.572564103961080927973625876
  73 2    1.718160748773970514235998053    3.223557479438484030254130630    6.611467429183590205354903446   -1.403766980522642260353904931    0.752712662887123906685360453   -0.204470268097803664630873755
  74 2    7.688557546747159854305664339    2.297561841652420167037007559    1.112136661281803773348997311    0.654999005639508635745471565   -3.344529633072809815530490596    1.274627077413317710607998379
  75 2    9.209193397641358913574549661    0.039115599990416173581397885    1.849306164383856643240733320   -1.884126354612993159420852862   -1.701764200660745407489571335   -2.155078906271335803523925279
  76 2    7.147863062939086908897934336    9.172837814847692783359889290    4.063159103298956686955989426    2.211756397536449370022637595   -0.797658756120810163992018715   -1.422583108947774288566279210
  77 2    5.255651816607842086170876428   10.939791169909799606330125243    4.348386292229458049973800371    3.810640096484577465929532991   -1.714850278528992744142556148   -2.628438085456633821479499602
  78 2    3.243870309690771946975473838    9.296791226982062283923369250    6.915870630748270464493998588    6.601516674173304899397862755   -3.676466104635323972615879029   -1.797307566274861878596880160
  79 2    8.751984153725727466621719941    7.356257460220796851046998199    8.699473468037520973439313821   -0.821751855049157486909905401   -1.277615353497384420577986930    1.688696059325661913419480697
  80 2    7.253207438267090800820824370    1.078972372013429437132003841    9.218795904473896740682903328    0.107437053861868692106185108    2.568063148529767580896532309   -0.580021777571899987968606638
  81 2    6.689871489322586128878356249    9.247812882148064517195962253    9.230767213714127450430169119    0.335475387637135080698413958    0.190395722563792724191245043    0.822290652630244922605129432
  82 2    5.653837768123008089560244116    7.071608229036302262215940573    8.406640735570158895484382811   -0.036731518094690537856727985    1.440140407880093897929896229    0.064184849942074850837059330
  83 2    9.651030291373198011228851101    7.598289211835499656899628462    3.300649701470558916582831444   -1.995977383093870516361789669   -0.345133543707509427012070091    0.575084849667723552180120805
  84 2    5.547528550502806687916290684    6.860101670272080731649566587    5.940557081617018120311968232   -2.393642758374561640977162824    1.045355545485260551075157309   -1.059491407732347845183085155
  85 2    7.135306319397958674244364374    9.106510093005073969152363134    1.175852974508821757737564440   -3.062600459297002419845057375    1.848467887530842679311149368    0.506268805114773234876679453
  86 2    8.727967339430916737796906091    7.389551366475907379083309934    0.818266048820994074119994366    1.451607912073425765697720635   -0.084394987179989180980932417    0.642195194986002859671714305
  87 2    7.192916180635519296515667520    5.341254330328312427411674435    9.325771274519683018411342346    0.628921275558984471665269211   -0.806052805970238872568245370    0.070902194444982913346109399
  88 2    4.105078880837831789563097118    8.918435630379478951113014773    9.571851056023920278903460712   -2.895701675063460101000600844   -2.236664780744760605557530653    2.505206486059137649391459490
  89 2    9.153469663889616469987231540   10.633640001222078197429254942   10.083154668123146535663181567    0.132045556027056698589206007    1.602221122288997490201722940   -1.178288119795106947407248299
  90 2    7.285185409770268627482892043    5.041544557730984976728905167    6.564709843443995218592590390   -0.253825837688034572359185859    2.662170494929372743797557632    5.569947754490037539198965533
  91 2    7.655991624536480522067449783    1.320387394878551390320353676    6.624469775784750602554140642   -2.221126992656621723654097877    4.178234073385247882015391951    1.009359884215097036275210485
  92 2    0.164691222184792818161724881    5.586534457835762523814082670    6.729485410573341042095307785    0.010893669713846990121375313   -1.978887489155827683617872026   -2.757741156831328588339147245
  93 2   10.792820053961365900363489345    9.837906309536965210327252862    3.186238913504308101209971937   -1.146397166120903365893468617   -1.146912546928797294043533839   -1.306342957872976828781474978
  94 2    1.661500483761090940504345781    7.543243018823255319205145497    3.644287404796743956580939994    0.027415777737235969002682623   -0.386830615721319603927952357   -0.707579770516730044427333723
  95 2    3.706376417283303581484688038    8.721834124370291263517174229    4.350938922761722338350409700    3.998616865030080624876518414    6.038663357446058199684557621   -3.915044034492810354208813806
  96 2    3.501645802506367921580476832    5.342189555368690001557752112    1.858432103352485098568536159    0.169748541697476329481730772    1.955305840375512582696160280   -1.668835920220948842995767336
  97 2    5.360265632017523707020245638    6.794850795568246226707742608    0.360148612553121527657395973   -0.959858851575569715919300506    0.067243221079101134218802827    2.318677252704727465015821508
  98 2    8.839156177002172043444261362    0.327813636867874569347236502    4.086913330307978320377060300   -1.071793521988140707179582023   -4.901944241514696543049467437    5.524493018345608241759236989
  99 2    9.107867128508507548190209491    3.325536568678411963873031709    9.255789588214396346188550524   -1.802098975486771115228634699    1.418239662835746983660101250   -0.586795976719266199062019496
 100 2    7.358272138600828959908994875    4.767718179625704877366842993    1.553626163159553374981669549    0.010085227244583667982613662    0.381968025577931857839075747   -1.606481424401586144412590329
 101 2   10.491874483731063349978285260    2.237671215989715189920161720    1.435831835581732995876791392    2.081830561283408709272180204    0.462777947289282509668595367   -1.898347919005443529272270098
 102 2    9.269364439095220120634621708    3.901239432353115432761114789    3.877987305432041953423549785    1.644485131342579897761879693   -2.077809954572527040284057875    1.101954355998897128188218630
 103 2    7.309543017480623738890699315    5.301862801899956068041319668    4.045762977458362108507117227    0.728447357482967072783708318    2.237022188472267636427659454    0.166344355918841863006818471
 104 2    3.035788762221120595796719499    8.652765688305384728096214531    1.442192360117433569399736371   -3.102484786339416711342664712   -2.392799610985431701948300542    0.352726275177966286378250516
 105 2    9.353978780555832983623076871    3.785778417915125704240608684    6.583366626790080111675251828   -0.939622854821737796271463594   -2.291365808563992967350486651   -0.511678777446005317308674876
 106 2    7.381437315402422427723649889    2.165676120741379495626688367    3.817056212853978447441249955   -3.418193485446096246960223652    0.376049132079110670634491953   -0.507778228800280895249841251
 107 2    1.721211256911995057805597753    4.606285788338335684954927274    9.758683345177946222293030587   -1.852782557676193597728797613   -1.457504361040658169557104884   -0.705007227477175146823640262
 108 2    7.308499721169029683665030461    9.089782806636819145751360338    6.539025120848764416336962313   -0.211575725004068904144816088   -0.618895289355995359414919221    0.196628256160201353441863148
ITEM: TIMESTEP
2
ITEM: NUMBER OF ATOMS
108
ITEM: BOX BOUNDS pp pp pp
0.0000000000000000e+00 1.0956000000000000e+01
0.0000000000000000e+00 1.0956000000000000e+01
0.0000000000000000e+00 1.0629000000000000e+01
ITEM: ATOMS id type x y z fx fy fz
   1 1    1.954723000238911545523023960    1.793426848976843013261373017    2.572841646986967489851849678    1.178225216893323823441619425   -1.088079637200711546896059190   -1.583087941115318919571564038
   2 1    3.298561384330584100865735309    7.146306368468130720827957703   10.562721453728128651050610642    1.734441029734894001990141987    1.897814713805950237457409457   -0.553913118907969792559242705
   3 1    5.440443650001427933204922738    5.477051775228700236652912281    1.937880545339113913527739896    3.471727300340649247090141216    0.708044664051345029598394376    2.043683471410186136552056269
   4 1    8.873828745859640321214101277    5.098123880241112182432061672    8.054936044431139308130696008    1.652469248925842570940858423    4.138420236366414428630378097   -1.670249397161470916728376324
   5 1    0.288580793740913554845661793    6.846338933346463484497235186    4.996607015509208160608523031    1.176963792527049079694734246    0.158197929589951158391158970    3.064356776889247235828861449
   6 1   10.836687214952418045754711784    0.534381515817938135270992461    0.295676512079506292884900631   -3.619045524236869759704404714   -3.411191713467184527530662308   -0.757402554779229797432549276
   7 1    7.421364325038813269941329054    3.715431676184164810905485865    5.286626392168819243977395672   -0.400007234012133394696064670   -1.713990804923887667499116105   -2.391176766353901417261340612
   8 1    7.092319453821925634429135243    7.194597813053165147323397832    4.977755188017411569489922840    0.961705978923521276335861785   -1.487774369687046016608178434    1.594565310957264614444284234
   9 1    1.616224864026986063336721600    5.225569869737719308488976822    2.427195262531915531667436881   -1.505614702466703480610021870    0.463235051268126141188474776    0.730556440445732424571190222
  10 1   10.904942649991781422613712493    3.595429053775125893821495993    5.361524700361910866774906026    1.264994869127315180179493836   -0.816107472120846555441175951    1.024457255425456070341283521
  11 1   10.795023944973808127656411671    3.807170910474955149993547820   10.316735946969027182262834685    3.607534915923218399314009730   -0.666275679947915144829551082    0.192886310035352392944218991
  12 1    2.071610013608134348572775707    5.462901911559386647354585875    8.016129923588362515829430777   -3.259648220684706387828555307    0.988467349834342146053245415   -1.704382088521910310063844918
  13 1    9.249780097889123808840849961    8.662574057828546614246079116    7.207802925296627805096250086   -1.187753283162042539089497950   -0.707264476350671911220047150    4.666129109921896223056592135
  14 1    1.887023193179140578834562803    1.407859094602451399680376198    7.812674689037984343542575516   -0.132914015208897895448103554    1.756721943873267077762534427    0.580458673441579531271372616
  15 1    7.008881886390684989862620569    7.546441230984049397534363379   10.196400243349113878821299295    2.364517103625119354148864659    1.348364178004503699526139826   -3.078164339055149856250181983
  16 1    8.550149622856610065468885296    9.044101219993404328079122934    2.469363781355425224717237143    4.060920922004000566118975257    0.460907004858732594065884314   -0.193162968343136925986058827
  17 1    5.352319434041733714479960327    9.295133345648681100215071638    3.004462760634280638072368674   -0.639417517877386765157154969   -0.811329185006200548357924163    2.461471758720752855964519767
  18 1    5.087296384577277841287923366    9.054018902887493780440308910    7.965802970397697357896049652    2.971455254033025905613385476   -0.251684583555891627781875286   -0.889011558213753660950828817
  19 1   10.710198171581714277067476360   10.668310911393362516719207633    4.901531623091188727414646564    2.913756810753450832152111616    0.883298113577021370979025505    3.001201251165297012590826853
  20 1    3.345130661573697317123787798    3.733944912917517289230318056    5.064912905604626480737806560    1.137676953474475727290382565   -2.212757720406223427289660322    4.050916527456609905755158252
  21 1   10.873105124942890498118686082    7.320167544356591449172810826   10.279985456947171584829447966   -3.560368549909814106513294973    0.598516167103064544718904472   -2.849089346505495168315746923
  22 1    1.709877810707632672659883610    9.042991441837910926437871240    7.946746447355434561643505731    0.316746372762084060781262451    0.254932825368967330703640073    1.008604523616973169808375133
  23 1    7.269953590853712732666735974    3.482622974394911086193360461   10.320083148912869930313718214   -2.722585366092597158882426811    0.397714229985023537405908201    1.161256446581064194489840702
  24 1    9.101204569965503310413623694    5.568419856482211827142236871    2.741261002578686323261081270   -3.288997387865346677671141151   -0.415184626042326643258206786   -3.321659585856783447610496296
  25 1    3.400245255648456144115243660    7.175161832442504383777759358    5.097980834916482351104605186   -1.013524339107959360006816496   -5.949876072896561396419201628    3.912916445263670883747408880
  26 1    3.534992155820546155808870026    0.068614694966500189288183265    0.161989568023023472465027339    0.072281166646887079485495065   -0.184346887461663749840923288   -2.321967258199532757600991317
  27 1    7.279810751150847636381513439   10.728753957556914855331342551    5.552713808358865854586383648   -2.416320709700005675557576978   -0.731843690356264398033658836   -1.968017411472926969651098261
  28 1    5.446161176697420280845562957    2.157983872510441436531891668    2.763512763580436182309085780    0.343206337462257315973346294    1.533504931306175711469563794    0.741903169816142682435611277
  29 1    5.785518029251211835628510016    1.603488528442982508082081949    7.853197756074866475728413207   -2.656985563589378429583121033   -0.917124402313886810667042937   -0.028224289389259249460906176
  30 1    1.055402279020075884119478360    8.762397897132863988645112840    2.149407253783752302922493982    2.568325339623363401386768601    0.161770961667437512820910683    0.004036053980234988181052813
  31 1    3.516607340355653921193379574   10.942688899205512242929216882    5.300944754545547255020210287    0.528064074411509154494126506   -0.413528116869009809697388391    2.068991377849067170302532759
  32 1    3.363686278331007084574366672    3.711524561684834022656787056    0.054018540636272642518900255    0.871331855963062062997437351    0.970080635030383886530103155   -1.344439517292024266481575978
  33 1    7.125301012824275304069487902    0.201326936206379980554004305    0.474799036533963769723953874    2.768145488409883725466897886   -1.105199762439491806276237185   -4.718761743502042804720986169
  34 1    9.244460902238431643240801350    1.721152993800196151497061692    2.894586294443521001795716074   -1.876048277635710137545288489    4.038011037906248823503574386   -0.051554823757705814379903586
  35 1    5.510747208997125667906402668    5.178595787787098281285125267    8.015827299855120102733962995   -1.475907871458472575554310424    0.364056074200107215865784838   -3.652355223119705396328527058