LAMMPS (2 Aug 2023 - Development - patch_2Aug2023-219-g06e2d5d306)
OMP_NUM_THREADS environment is not set. Defaulting to 1 thread. (src/comm.cpp:98)
  using 1 OpenMP thread(s) per MPI task
Reading data file ...
  orthogonal box = (0 0 0) to (10.956 10.956 10.629)
  2 by 3 by 1 MPI processor grid
  reading atoms ...
  108 atoms
  read_data CPU = 0.007 seconds
ACE version: 2022.6.27
Recursive evaluator is used
Loading Siviraman_GAP_HfO2_N3_rcut5_maxdeg10_regQR.yace
Total number of basis functions
	O: 20 (r=1) 1166 (r>1)
	Hf: 20 (r=1) 1166 (r>1)
Mapping LAMMPS atom type #1(Hf) -> ACE species type #1
Mapping LAMMPS atom type #2(O) -> ACE species type #0
Neighbor list info ...
  update: every = 1 steps, delay = 0 steps, check = yes
  max neighbors/atom: 2000, page size: 100000
  master list distance cutoff = 7
  ghost atom cutoff = 7
  binsize = 3.5, bins = 4 4 4
  1 neighbor lists, perpetual/occasional/extra = 1 0 0
  (1) pair pace, perpetual
      attributes: full, newton on
      pair build: full/bin/atomonly
      stencil: full/bin/3d
      bin: standard
Setting up Verlet run ...
  Unit style    : metal
  Current step  : 0
  Time step     : 0.001
Per MPI rank memory allocation (min/avg/max) = 3.12 | 3.121 | 3.121 Mbytes
   Step          Temp          PotEng         KinEng         TotEng         Press     
         0   2000          -1063.1311      27.661671     -1035.4694      29976.049    
      1000   2313.0038     -1065.0191      31.990775     -1033.0284      44984.122    
      2000   2151.7298     -1064.9044      29.760221     -1035.1442      25798.553    
      3000   2163.7053     -1065.7127      29.925852     -1035.7869      17269.308    
      4000   1919.4619     -1061.9532      26.547762     -1035.4055      16082.281    
      5000   2013.1934     -1066.5953      27.844146     -1038.7511      23409.599    
      6000   1975.5785     -1061.1227      27.323901     -1033.7988      25837.483    
      7000   1850.7583     -1067.1102      25.597533     -1041.5126      13047.049    
      8000   1625.6325     -1060.8289      22.483856     -1038.345       13524.68     
      9000   2126.0005     -1061.4999      29.404364     -1032.0956      26545.174    
     10000   2088.9756     -1063.166       28.892278     -1034.2737      52565.686    
     11000   1962.3259     -1068.5823      27.140607     -1041.4417      28780.308    
     12000   2076.5895     -1061.4861      28.720968     -1032.7652      37443.655    
     13000   1666.0474     -1062.0084      23.042828     -1038.9655      20438.729    
     14000   2058.0158     -1068.3278      28.464079     -1039.8638      1107.7111    
     15000   2008.4606     -1060.8995      27.778689     -1033.1208      18625.416    
     16000   1954.8174     -1067.3585      27.036757     -1040.3218      34830.193    
     17000   1786.9474     -1062.4686      24.714976     -1037.7536      22141.043    
     18000   2206.5542     -1060.6789      30.518489     -1030.1605      52180.822    
     19000   1842.0485     -1062.5881      25.47707      -1037.1111      13296.347    
     20000   2162.0242     -1062.9645      29.902601     -1033.0619      8746.8644    
     21000   2002.8249     -1061.2214      27.700741     -1033.5207      27717.051    
     22000   1920.201      -1063.9537      26.557984     -1037.3957      14021.122    
     23000   2043.7562     -1062.7115      28.266855     -1034.4446      23332.971    
     24000   2130.5214     -1057.3961      29.466891     -1027.9292      23904.127    
     25000   2058.7904     -1064.8684      28.474791     -1036.3936     -16915.792    
     26000   1880.8071     -1062.2809      26.013134     -1036.2678      9061.4139    
     27000   1945.1487     -1063.3759      26.903031     -1036.4729      40576.816    
     28000   2552.7024     -1062.4242      35.306007     -1027.1182      35249.265    
     29000   1779.9411     -1061.8827      24.618073     -1037.2646      25464.415    
     30000   1971.0412     -1061.7746      27.261147     -1034.5135      46676.057    
     31000   2084.9314     -1059.0286      28.836343     -1030.1922      26972.474    
     32000   1869.5524     -1064.456       25.857472     -1038.5985      28839.264    
     33000   2074.2377     -1061.3589      28.688441     -1032.6704      21204.093    
     34000   1912.4544     -1062.1632      26.450842     -1035.7124      27444.058    
     35000   1991.2293     -1065.3686      27.540365     -1037.8283      21890.401    
     36000   2095.4119     -1060.0487      28.981298     -1031.0674      30481.104    
     37000   2156.7217     -1061.5888      29.829263     -1031.7595      42127.707    
     38000   1959.6596     -1064.1759      27.10373      -1037.0722      31828.207    
     39000   2020.9016     -1063.6892      27.950758     -1035.7384      34109.633    
     40000   1964.5        -1064.1068      27.170676     -1036.9362      18435.68     
     41000   1847.6521     -1064.21        25.554572     -1038.6555      26638.556    
     42000   2048.6238     -1065.2329      28.334178     -1036.8987      12314.309    
     43000   2273.1626     -1061.4413      31.439738     -1030.0015      48707.548    
     44000   2200.9655     -1063.8089      30.441192     -1033.3677      39218.54     
     45000   1915.9174     -1063.3971      26.498738     -1036.8983      32436.665    
     46000   1994.3646     -1058.7583      27.583729     -1031.1746      67118.748    
     47000   2288.7486     -1063.5347      31.655306     -1031.8794      24344.036    
     48000   2059.8969     -1065.3245      28.490095     -1036.8344      25496.715    
     49000   2040.9118     -1064.7953      28.227516     -1036.5678      16950.05     
     50000   1926.8278     -1067.1104      26.649638     -1040.4608      19457.673    
     51000   2158.1295     -1062.9555      29.848734     -1033.1068      41117.473    
     52000   2059.496      -1065.5763      28.484551     -1037.0918      33057.592    
     53000   2117.1472     -1062.2852      29.281914     -1033.0033      25691.67     
     54000   2015.3396     -1060.0714      27.873831     -1032.1976      29842.213    
     55000   1943.7186     -1064.7698      26.883252     -1037.8865      24611.471    
     56000   1984.9908     -1064.8433      27.454082     -1037.3892      9959.1488    
     57000   1900.7704     -1060.5284      26.289243     -1034.2392      40306.31     
     58000   1894.6163     -1062.3967      26.204127     -1036.1926      61673.787    
     59000   2092.431      -1059.4594      28.94007      -1030.5193      44049.952    
     60000   2257.2099     -1064.3618      31.219099     -1033.1427      22664.751    
     61000   2325.9286     -1062.9195      32.169535     -1030.75        23357.842    
     62000   2070.0659     -1066.4706      28.63074      -1037.8399      17337.542    
     63000   2156.5032     -1060.7539      29.826241     -1030.9277      31423.922    
     64000   1804.8639     -1062.4669      24.962776     -1037.5041      38243.085    
     65000   2155.4402     -1063.7308      29.811538     -1033.9193      3341.9251    
     66000   1863.5385     -1065.7231      25.774295     -1039.9488      23721.084    
     67000   2042.6731     -1065.4596      28.251875     -1037.2077      5677.5533    
     68000   2458.0209     -1065.0551      33.996483     -1031.0587      50885.217    
     69000   1997.7823     -1062.0477      27.630998     -1034.4167      18028.423    
     70000   1827.217      -1061.5908      25.271938     -1036.3188      13494.878    
     71000   1865.8192     -1060.8804      25.805838     -1035.0746      52910.409    
     72000   1925.5677     -1066.643       26.63221      -1040.0108      15891.56     
     73000   1953.0297     -1062.9779      27.012033     -1035.9658      45688.631    
     74000   2068.7938     -1065.9855      28.613146     -1037.3724      9882.737     
     75000   2285.3975     -1059.4445      31.608956     -1027.8355      30523.401    
     76000   2024.7005     -1064.9116      28.003299     -1036.9083      56251.68     
     77000   1944.1425     -1062.8951      26.889115     -1036.006       29413.831    
     78000   2013.4227     -1063.9333      27.847318     -1036.086       34059.303    
     79000   2060.0902     -1063.2814      28.492769     -1034.7887      37449.938    
     80000   1996.0363     -1062.0198      27.60685      -1034.4129      48106.734    
     81000   1873.1361     -1057.7865      25.907038     -1031.8795      18651.338    
     82000   2028.0294     -1060.8139      28.049341     -1032.7646      27592.907    
     83000   2121.226      -1062.9508      29.338328     -1033.6125      53073.462    
     84000   2226.1471     -1064.8845      30.789474     -1034.095       27584.394    
     85000   2100.6206     -1062.3217      29.053338     -1033.2683      41413.625    
     86000   1742.7948     -1065.0419      24.104308     -1040.9376      19828.547    
     87000   2193.0329     -1066.2201      30.331477     -1035.8887      34452.336    
     88000   1834.3515     -1061.8648      25.370615     -1036.4942      15258.338    
     89000   2029.2887     -1066.0202      28.066758     -1037.9534      30546.356    
     90000   2070.1121     -1064.2793      28.63138      -1035.6479      13995.336    
     91000   2176.3401     -1058.3772      30.100602     -1028.2766      42487.795    
     92000   2054.5486     -1064.8146      28.416123     -1036.3985      12934.885    
     93000   1992.1263     -1061.0244      27.552771     -1033.4716      21481.58     
     94000   1829.779      -1063.3514      25.307372     -1038.044       14438.163    
     95000   1723.5294     -1066.1193      23.837852     -1042.2814      19890.361    
     96000   2004.9331     -1063.5973      27.7299       -1035.8674      18354.465    
     97000   1763.7706     -1066.9811      24.394421     -1042.5867      24473.659    
     98000   1975.6358     -1063.3893      27.324694     -1036.0646      19649.295    
     99000   1819.4247     -1061.9469      25.164164     -1036.7827      19219.422    
    100000   2365.1874     -1063.0615      32.712518     -1030.349       30249.064    
    101000   1744.4979     -1062.5984      24.127864     -1038.4705      13222.22     
    102000   2009.7291     -1064.5809      27.796232     -1036.7847      12462.555    
    103000   2221.8576     -1063.1514      30.730147     -1032.4213      45463.631    
    104000   1867.1451     -1061.0378      25.824177     -1035.2136      8092.8195    
    105000   2060.6481     -1060.1908      28.500485     -1031.6903      50089.342    
    106000   1998.7793     -1064.6433      27.644788     -1036.9985      21718.822    
    107000   1952.1176     -1061.1284      26.999418     -1034.129       55605.488    
    108000   1937.4637     -1066.011       26.796742     -1039.2143      33736.459    
    109000   2241.3745     -1063.6939      31.000081     -1032.6938      48805.081    
    110000   1827.7979     -1065.4549      25.279973     -1040.175       14884.907    
    111000   2240.8773     -1064.3072      30.993205     -1033.314       22946.426    
    112000   1898.0817     -1065.3866      26.252056     -1039.1345      9667.8245    
    113000   1783.0911     -1064.0165      24.66164      -1039.3548      18796.636    
    114000   1995.0128     -1057.5355      27.592695     -1029.9428      44855.837    
    115000   1932.3919     -1065.4457      26.726595     -1038.7191      14624.583    
    116000   2203.8111     -1062.294       30.480548     -1031.8135      31778.664    
    117000   2040.3254     -1061.3794      28.219405     -1033.16        32406.359    
    118000   2001.0701     -1064.6616      27.676472     -1036.9851      33395.424    
    119000   2193.1079     -1062.1632      30.332515     -1031.8307      43540.925    
    120000   2180.6176     -1066.8801      30.159763     -1036.7203      32951.741    
    121000   2049.3595     -1064.7086      28.344354     -1036.3642      33611.751    
    122000   1762.9107     -1064.4072      24.382528     -1040.0247     -8463.2514    
    123000   2128.9506     -1063.604       29.445166     -1034.1588      36749.883    
    124000   1935.5252     -1066.6491      26.769931     -1039.8792      702.56751    
    125000   2061.9635     -1064.0056      28.518678     -1035.4869      35452.145    
    126000   1753.7482     -1061.6179      24.255803     -1037.3621      48213.02     
    127000   2056.2399     -1059.5706      28.439516     -1031.1311      45035.571    
    128000   1795.5296     -1061.7214      24.833674     -1036.8878      21084.928    
    129000   1839.1957     -1064.1855      25.437614     -1038.7479      40715.022    
    130000   2010.3159     -1061.6155      27.804348     -1033.8111      23811.072    
    131000   2277.9759     -1064.3919      31.50631      -1032.8856      27084.167    
    132000   2227.0175     -1069.4839      30.801513     -1038.6824      42188.949    
    133000   2025.4962     -1063.6634      28.014305     -1035.6491      33787.952    
    134000   1985.4505     -1059.762       27.460439     -1032.3016      28705.732    
    135000   1639.6238     -1063.8554      22.677367     -1041.178       6824.65      
    136000   2035.6906     -1059.1402      28.155302     -1030.9849      22897.341    
    137000   1991.8288     -1064.2751      27.548657     -1036.7265      27052.341    
    138000   2048.8398     -1066.5577      28.337167     -1038.2206      1468.7962    
    139000   1868.829      -1061.7903      25.847466     -1035.9429      21005.512    
    140000   1894.3546     -1062.8453      26.200507     -1036.6448      24197.934    
    141000   2106.5926     -1066.8216      29.135935     -1037.6856      31374.486    
    142000   1894.1216     -1063.208       26.197284     -1037.0107      17030.973    
    143000   2070.117      -1063.9012      28.631447     -1035.2698      20838.645    
    144000   1858.8765     -1063.1521      25.709815     -1037.4423      13558.101    
    145000   1979.0971     -1064.5543      27.372567     -1037.1818      13666.065    
    146000   2066.5816     -1062.1058      28.582551     -1033.5232      58151.184    
    147000   1949.3326     -1065.9222      26.960899     -1038.9613      27170.022    
    148000   1868.6683     -1060.8643      25.845244     -1035.0191      17310.409    
    149000   2098.1067     -1063.3858      29.018569     -1034.3672      19715.958    
    150000   1986.5361     -1068.7878      27.475455     -1041.3123     -7877.5306    
    151000   1944.2326     -1063.6749      26.890362     -1036.7846      7843.7977    
    152000   2133.7686     -1064.5681      29.511803     -1035.0563      10835.751    
    153000   1914.9313     -1060.3457      26.485099     -1033.8606      30785.249    
    154000   1760.638      -1064.3343      24.351095     -1039.9832      15179.069    
    155000   2011.7176     -1062.7849      27.823735     -1034.9612      39270.544    
    156000   2097.1043     -1067.8816      29.004705     -1038.8769      19719.039    
    157000   2253.4743     -1066.2994      31.167433     -1035.132       32467.106    
    158000   1980.6701     -1068.3251      27.394323     -1040.9308      1052.6199    
    159000   2017.3768     -1058.4915      27.902007     -1030.5895      72457.908    
    160000   1946.542      -1061.3717      26.922302     -1034.4494      21482.021    
    161000   2039.3706     -1062.9942      28.206199     -1034.788       9307.9057    
    162000   2167.0784     -1063.5086      29.972505     -1033.5361      34724.053    
    163000   1979.5813     -1066.0087      27.379264     -1038.6295      11809.738    
    164000   2102.237      -1062.4704      29.075694     -1033.3947      40276.292    
    165000   1886.7993     -1065.6985      26.09601      -1039.6025      2686.4335    
    166000   1982.0251     -1063.7518      27.413063     -1036.3387      20392.866    
    167000   2067.166      -1063.4559      28.590632     -1034.8653      21841.698    
    168000   1976.0492     -1059.2006      27.330412     -1031.8702      51193.597    
    169000   2051.8351     -1065.0367      28.378593     -1036.6581      10323.762    
    170000   1684.4664     -1067.7523      23.297578     -1044.4547      19657.193    
    171000   1948.8661     -1060.5335      26.954447     -1033.5791      8950.6499    
    172000   1855.7171     -1061.8379      25.666118     -1036.1718      44938.065    
    173000   2473.1024     -1066.1425      34.205072     -1031.9374      17485.973    
    174000   1979.8061     -1060.7384      27.382373     -1033.3561      38416.909    
    175000   2126.4381     -1063.9879      29.410416     -1034.5774      32963.171    
    176000   2114.5131     -1063.6033      29.245483     -1034.3578      36737.452    
    177000   1970.6389     -1061.3016      27.255582     -1034.046       28154.35     
    178000   2065.6965     -1064.7569      28.570308     -1036.1866      31082.603    
    179000   1880.124      -1067.1911      26.003686     -1041.1874      9651.0283    
    180000   2068.3114     -1063.9861      28.606475     -1035.3796      15648.918    
    181000   2102.8657     -1068.0727      29.08439      -1038.9883      12869.513    
    182000   1926.494      -1062.0905      26.645021     -1035.4455      37211.61     
    183000   2059.7204     -1059.9951      28.487655     -1031.5075      21386.593    
    184000   1941.7194     -1066.2535      26.855601     -1039.3979      28854.519    
    185000   2059.5688     -1066.6487      28.485557     -1038.1631      14714.575    
    186000   2109.2004     -1060.9202      29.172004     -1031.7482      16361.222    
    187000   1836.088      -1061.1095      25.394631     -1035.7149      36458.57     
    188000   2164.4031     -1060.6898      29.935504     -1030.7543      54164.162    
    189000   1816.5934     -1061.1581      25.125005     -1036.0331      33153.827    
    190000   1918.6377     -1067.0061      26.536363     -1040.4697      9035.5457    
    191000   1984.6233     -1062.9779      27.448998     -1035.5289      22740.288    
    192000   2231.468      -1062.9671      30.863068     -1032.1041      36134.86     
    193000   2119.1081     -1062.3786      29.309035     -1033.0695      31114.255    
    194000   1771.0292     -1062.2586      24.494813     -1037.7638      26809.086    
    195000   2062.3942     -1064.1187      28.524635     -1035.5941      38273.729    
    196000   1962.2923     -1061.7947      27.140142     -1034.6545      40091.336    
    197000   1825.5441     -1060.5338      25.2488       -1035.285       42026.911    
    198000   1993.8581     -1061.3488      27.576724     -1033.7721      46327.13     
    199000   2152.837      -1062.3851      29.775534     -1032.6096      31521.534    
    200000   1970.7888     -1060.9865      27.257655     -1033.7288      27181.797    
    201000   1983.9207     -1060.9189      27.439281     -1033.4797      48667.128    
    202000   1835.253      -1063.2622      25.383082     -1037.8791      39752.077    
    203000   2249.1225     -1064.1178      31.107244     -1033.0106      34793.128    
    204000   1823.149      -1062.7621      25.215674     -1037.5465      32741.249    
    205000   2071.6907     -1062.8729      28.653214     -1034.2197      24838.067    
    206000   2021.1557     -1060.5915      27.954272     -1032.6372      17494.208    
    207000   1965.7295     -1063.3188      27.187682     -1036.1312      48833.28     
    208000   2028.5096     -1063.5307      28.055983     -1035.4747      33386.19     
    209000   2248.3931     -1064.8192      31.097155     -1033.722       52759.66     
    210000   2020.1874     -1068.6089      27.940879     -1040.668       3240.4194    
    211000   1895.0063     -1065.0866      26.20952      -1038.877       50621.379    
    212000   1988.1049     -1063.0763      27.497152     -1035.5792      23240.404    
    213000   1884.6168     -1069.4132      26.065825     -1043.3473      4625.688     
    214000   1907.947      -1063.1767      26.388501     -1036.7882      19111.091    
    215000   2153.3308     -1062.858       29.782364     -1033.0757      28640.844    
    216000   1922.0157     -1059.388       26.583082     -1032.8049      19658.498    
    217000   2164.5908     -1063.9563      29.938099     -1034.0182      42508.909    
    218000   1909.2924     -1066.4505      26.407109     -1040.0434      9961.6388    
    219000   2169.1411     -1062.5588      30.001033     -1032.5578      26273.217    
    220000   1937.8407     -1062.7994      26.801955     -1035.9975      4714.0219    
    221000   1897.4705     -1067.0714      26.243602     -1040.8278      18869.113    
    222000   2015.4606     -1061.7976      27.875505     -1033.9221      34275.376    
    223000   1955.4445     -1067.2258      27.045431     -1040.1804      28186.649    
    224000   1797.7094     -1064.3763      24.863823     -1039.5125      25924.952    
    225000   2282.6379     -1065.4815      31.57079      -1033.9107      22340.156    
    226000   2166.5915     -1063.5846      29.965771     -1033.6188      53448.447    
    227000   1969.2905     -1067.3806      27.236932     -1040.1436      1395.7157    
    228000   1857.3596     -1064.2534      25.688835     -1038.5646      23549.724    
    229000   2162.6909     -1064.2937      29.911822     -1034.3819      10297.014    
    230000   2138.4248     -1067.2767      29.576201     -1037.7005      19882.188    
    231000   2308.7756     -1062.8238      31.932296     -1030.8915      44705.223    
    232000   1852.8188     -1062.5751      25.626033     -1036.9491     -14508.3      
    233000   2180.4815     -1063.1506      30.15788      -1032.9928      22192.975    
    234000   2011.5707     -1064.5801      27.821703     -1036.7584      37455.803    
    235000   1814.8094     -1065.8622      25.10033      -1040.7619      28401.481    
    236000   1883.3127     -1060.4773      26.047789     -1034.4295      58800.602    
    237000   1881.8824     -1063.922       26.028006     -1037.894       23916.366    
    238000   1897.2801     -1058.4598      26.240968     -1032.2189      40862.574    
    239000   1674.5133     -1060.4788      23.159917     -1037.3189      29333.425    
    240000   2167.9282     -1062.2094      29.984258     -1032.2251      46330.735    
    241000   2020.932      -1063.5115      27.951178     -1035.5604      40922.727    
    242000   1840.1095     -1066.3412      25.450252     -1040.8909      2004.1419    
    243000   2060.0801     -1067.5496      28.492629     -1039.057       14524.445    
    244000   2130.8704     -1064.8848      29.471718     -1035.4131      16003.586    
    245000   2233.0296     -1066.7164      30.884665     -1035.8317     -10028.729    
    246000   2039.9286     -1061.5209      28.213916     -1033.307       31668.051    
    247000   1745.6796     -1064.1596      24.144207     -1040.0154      23374.839    
    248000   2229.8579     -1063.3748      30.840798     -1032.534       33475.506    
    249000   1935.4462     -1065.4227      26.768838     -1038.6539      28987.196    
    250000   2221.0723     -1064.9139      30.719286     -1034.1946      6324.197     
    251000   1981.7058     -1061.0816      27.408647     -1033.673       30347.982    
    252000   1848.8018     -1058.1422      25.570474     -1032.5717      18681.252    
    253000   2066.5753     -1062.9728      28.582463     -1034.3904      46334.405    
    254000   2259.7057     -1065.8174      31.253618     -1034.5638      15163.781    
    255000   1972.0041     -1066.8044      27.274464     -1039.5299      47265.126    
    256000   1898.1577     -1065.9171      26.253107     -1039.664       26857.176    
    257000   1917.5849     -1067.1182      26.521802     -1040.5964      21775.78     
    258000   2134.3775     -1064.1178      29.520225     -1034.5976      27289.374    
    259000   2112.9425     -1062.5572      29.22376      -1033.3335      41229.552    
    260000   2234.3353     -1057.9256      30.902724     -1027.0229      31841.152    
    261000   1918.0831     -1065.0371      26.528692     -1038.5084      1809.1438    
    262000   2049.6132     -1060.4963      28.347863     -1032.1484      29603.684    
    263000   1739.6711     -1057.3087      24.061105     -1033.2476      47945.748    
    264000   2011.0875     -1062.9191      27.815021     -1035.1041      9956.2962    
    265000   2356.9458     -1061.0172      32.59853      -1028.4186      44389.004    
    266000   1993.2673     -1064.8737      27.568552     -1037.3051      25413.885    
    267000   2416.7099     -1062.9703      33.425117     -1029.5451      38637.649    
    268000   2132.4825     -1067.2589      29.494015     -1037.7649     -8222.9173    
    269000   2312.7003     -1063.696       31.986577     -1031.7094      35510.928    
    270000   2060.0163     -1065.6202      28.491747     -1037.1285      30213.526    
    271000   2295.8494     -1062.7987      31.753516     -1031.0452      24612.928    
    272000   2108.3082     -1062.9448      29.159664     -1033.7851      18990.145    
    273000   2001.7125     -1063.849       27.685356     -1036.1637      22481.742    
    274000   2199.5705     -1067.9694      30.421897     -1037.5475     -6552.1798    
    275000   2029.2839     -1062.2398      28.066692     -1034.1731      30228.874    
    276000   1935.4614     -1066.2738      26.769048     -1039.5048      32836.838    
    277000   1929.8108     -1062.6141      26.690896     -1035.9232      32155.529    
    278000   1884.5883     -1064.7689      26.065431     -1038.7035      50960.898    
    279000   2289.235      -1061.0002      31.662033     -1029.3381      38389.17     
    280000   1824.1685     -1061.8936      25.229774     -1036.6638      8067.8795    
    281000   1979.9839     -1061.6781      27.384831     -1034.2933      24025.325    
    282000   2073.7464     -1065.3869      28.681646     -1036.7053      11194.251    
    283000   1997.8764     -1065.6411      27.6323       -1038.0088      7566.8343    
    284000   1913.6204     -1062.5296      26.466969     -1036.0626      28834.091    
    285000   1851.3416     -1061.2584      25.605601     -1035.6528      22545.78     
    286000   1887.2818     -1063.1323      26.102684     -1037.0296      13178.687    
    287000   2179.7046     -1058.1259      30.147136     -1027.9788      37027.18     
    288000   1800.0567     -1061.3512      24.896288     -1036.4549      24097.438    
    289000   1942.1921     -1060.4652      26.86214      -1033.6031      53313.88     
    290000   1923.3251     -1063.8214      26.601193     -1037.2202      34510.233    
    291000   2270.1249     -1061.8852      31.397724     -1030.4875      52669.02     
    292000   2055.0983     -1062.3632      28.423726     -1033.9395      27000.717    
    293000   1849.3265     -1061.4         25.577731     -1035.8223      24732.709    
    294000   1748.2332     -1065.8202      24.179526     -1041.6407      32678.692    
    295000   2161.6848     -1063.9137      29.897907     -1034.0158      29631.855    
    296000   1996.9171     -1062.6511      27.619033     -1035.032       31406.951    
    297000   1869.7209     -1062.2813      25.859802     -1036.4215      6380.7021    
    298000   2269.6351     -1064.0051      31.390949     -1032.6141      24848.289    
    299000   1787.5372     -1064.2819      24.723134     -1039.5588      10166.405    
    300000   1873.2378     -1060.0604      25.908444     -1034.1519      35074.199    
    301000   2208.3255     -1068.5822      30.542987     -1038.0392      10435.737    
    302000   2135.9357     -1063.0934      29.541775     -1033.5516      45061.337    
    303000   1968.6109     -1065.6306      27.227534     -1038.403       25693.606    
    304000   1777.3413     -1066.2094      24.582115     -1041.6273      41587.307    
    305000   2111.6259     -1062.3006      29.205551     -1033.0951      8141.4245    
    306000   1928.8429     -1065.3036      26.677509     -1038.6261      4038.7872    
    307000   1992.4918     -1066.136       27.557826     -1038.5782      22885.013    
    308000   2039.9228     -1060.0074      28.213837     -1031.7935      37344.367    
    309000   1886.1302     -1061.226       26.086756     -1035.1392      23377.093    
    310000   1875.2264     -1065.4587      25.935947     -1039.5227      43811.654    
    311000   2053.8177     -1061.7818      28.406015     -1033.3757      27360.533    
    312000   1987.4168     -1063.5234      27.487634     -1036.0358      32766.26     
    313000   1855.6822     -1062.4554      25.665635     -1036.7898      47994.576    
    314000   1800.7948     -1065.9251      24.906497     -1041.0186      28972.585    
    315000   1933.4249     -1065.2412      26.740881     -1038.5004      26146.053    
    316000   2107.5422     -1059.1491      29.149069     -1030           36606.75     
    317000   1857.8922     -1062.5997      25.696202     -1036.9035      37883.398    
    318000   2218.7571     -1065.9446      30.687264     -1035.2574      33424.781    
    319000   2330.7366     -1063.7381      32.236035     -1031.502       57358.513    
    320000   1969.5591     -1064.8343      27.240648     -1037.5937      6148.843     
    321000   1626.6169     -1064.5578      22.497471     -1042.0603     -4967.5721    
    322000   1971.221      -1059.6736      27.263633     -1032.41        43450.54     
    323000   1874.6152     -1063.0222      25.927494     -1037.0947      36728.865    
    324000   2220.8175     -1065.4479      30.715762     -1034.7321      25908.713    
    325000   1958.5086     -1065.8939      27.08781      -1038.8061      17949.112    
    326000   1933.8304     -1067.2828      26.74649      -1040.5363      5362.9373    
    327000   2087.7804     -1062.3037      28.875748     -1033.428       32599.373    
    328000   1729.02       -1063.1869      23.913791     -1039.2731      29534.697    
    329000   2168.7967     -1064.2449      29.99627      -1034.2486      44934.843    
    330000   1853.3793     -1063.2441      25.633784     -1037.6104      36711.856    
    331000   2259.9806     -1062.1325      31.25742      -1030.8751      47354.76     
    332000   1833.8119     -1062.9391      25.363151     -1037.5759      10274.674    
    333000   1795.6336     -1064.1688      24.835113     -1039.3337      29312.793    
    334000   2166.7052     -1063.3164      29.967343     -1033.3491      24446.194    
    335000   1761.7394     -1063.3609      24.366328     -1038.9946      35689.355    
    336000   2207.7055     -1063.6039      30.534411     -1033.0695      20734.235    
    337000   2017.0631     -1061.968       27.897668     -1034.0704      32537.552    
    338000   1854.0297     -1059.8753      25.642779     -1034.2326      14270.573    
    339000   1728.2593     -1067.0468      23.90327      -1043.1435      17524.738    
    340000   2205.8642     -1063.5891      30.508945     -1033.0802      38648.201    
    341000   1952.5841     -1062.2417      27.00587      -1035.2359      33988.429    
    342000   1818.0252     -1065.7874      25.144807     -1040.6426      19282.635    
    343000   2358.2718     -1065.6243      32.61687      -1033.0075      14611.94     
    344000   2233.2784     -1063.7216      30.888107     -1032.8335      44718.583    
    345000   1865.6131     -1065.4658      25.802988     -1039.6628      9372.6001    
    346000   2017.857      -1063.3118      27.908649     -1035.4032      10472.229    
    347000   1904.9993     -1063.4021      26.347732     -1037.0544      17788.627    
    348000   1973.2444     -1062.5324      27.291618     -1035.2407      32161.819    
    349000   2145.8717     -1060.9559      29.679198     -1031.2767      31470.875    
    350000   1983.4569     -1064.9195      27.432866     -1037.4866      10615.248    
    351000   1992.6896     -1062.3564      27.560562     -1034.7958      52296.706    
    352000   1901.5868     -1062.1128      26.300534     -1035.8123      23625.282    
    353000   1968.5401     -1063.1099      27.226554     -1035.8834      28004.66     
    354000   2188.8494     -1063.6507      30.273616     -1033.377       17437.187    
    355000   1774.7947     -1065.0185      24.546894     -1040.4716     -13165.899    
    356000   1876.7977     -1058.6555      25.957681     -1032.6978      37190.743    
    357000   2400.8535     -1061.0744      33.205809     -1027.8686      39830.925    
    358000   1811.5933     -1062.6953      25.055848     -1037.6395      35888.819    
    359000   2354.4989     -1062.7901      32.564686     -1030.2254      40328.973    
    360000   1922.017      -1062.9604      26.583102     -1036.3773      10593.747    
    361000   1824.8907     -1065.5006      25.239763     -1040.2608      35872.758    
    362000   1823.7913     -1065.277       25.224557     -1040.0524      14247.715    
    363000   2126.3013     -1064.0312      29.408523     -1034.6227      22778.062    
    364000   1939.1198     -1062.7113      26.819647     -1035.8917      37426.347    
    365000   1853.6361     -1063.3818      25.637336     -1037.7444      8750.9184    
    366000   2101.6013     -1063.4222      29.066901     -1034.3553      25910.765    
    367000   1692.6372     -1062.1199      23.410587     -1038.7093     -2489.0485    
    368000   1929.479      -1064.8101      26.686307     -1038.1238      28820.873    
    369000   1960.3576     -1062.8888      27.113383     -1035.7755      20288.791    
    370000   1855.2294     -1064.7374      25.659373     -1039.078       5824.964     
    371000   2246.0948     -1066.9297      31.065367     -1035.8643      5732.6678    
    372000   2027.6991     -1062.66        28.044772     -1034.6153      39147.702    
    373000   2009.9336     -1069.8798      27.799062     -1042.0807     -5004.268     
    374000   2004.1415     -1061.4002      27.718951     -1033.6812      37641.186    
    375000   2149.3613     -1059.0915      29.727462     -1029.364       51469.27     
    376000   1917.4951     -1062.8112      26.520559     -1036.2906      23484.795    
    377000   2098.057      -1063.9743      29.017881     -1034.9564      134.67639    
    378000   1927.8796     -1067.1002      26.664186     -1040.436       35618.239    
    379000   1785.417      -1060.0072      24.693809     -1035.3134      31236.334    
    380000   1965.2455     -1060.1389      27.180987     -1032.9579      49553.165    
    381000   1868.7831     -1066.8775      25.846832     -1041.0306      12376.794    
    382000   1894.006      -1061.2387      26.195685     -1035.043       1891.7674    
    383000   2118.6183     -1060.3802      29.302262     -1031.0779      29525.117    
    384000   1808.7549     -1063.4393      25.016591     -1038.4227      15844.538    
    385000   2223.4037     -1061.7803      30.751531     -1031.0287      41854.411    
    386000   1876.0626     -1064.3537      25.947514     -1038.4062      13490.342    
    387000   1973.9609     -1066.9758      27.301528     -1039.6743      8765.933     
    388000   1913.692      -1060.0166      26.46796      -1033.5487      37677.143    
    389000   2183.3223     -1059.942       30.197171     -1029.7449      27310.471    
    390000   1868.4566     -1064.7271      25.842316     -1038.8848      19417.235    
    391000   2134.7258     -1063.9246      29.525042     -1034.3995      17372.309    
    392000   1987.0853     -1061.2424      27.483049     -1033.7594      22517.438    
    393000   1907.1727     -1063.6259      26.377792     -1037.2481      5531.8143    
    394000   2327.1034     -1059.9082      32.185784     -1027.7225      22730.229    
    395000   2003.1573     -1063.9166      27.705339     -1036.2113      37960.717    
    396000   1772.2351     -1062.203       24.511492     -1037.6916      18493.158    
    397000   2195.9026     -1064.2462      30.371167     -1033.8751      22687.425    
    398000   1825.4257     -1062.875       25.247163     -1037.6278      34309.919    
    399000   1828.8751     -1059.9832      25.294871     -1034.6883      34336.098    
    400000   1904.1773     -1064.638       26.336362     -1038.3016      24667.501    
    401000   2117.5783     -1062.7116      29.287878     -1033.4237      16438.303    
    402000   2001.4255     -1063.1612      27.681387     -1035.4798      33833.081    
    403000   1977.0756     -1059.147       27.344607     -1031.8024      48370.925    
    404000   1814.8158     -1065.5657      25.100419     -1040.4653      29633.906    
    405000   2225.8493     -1065.139       30.785355     -1034.3537      41333.702    
    406000   1850.2457     -1065.586       25.590443     -1039.9956      26551.868    
    407000   2036.4501     -1063.1882      28.165806     -1035.0224      21552.315    
    408000   2124.715      -1059.9117      29.386583     -1030.5251      52371.028    
    409000   2048.8567     -1065.3869      28.337401     -1037.0495      27620.796    
    410000   1955.1654     -1062.5406      27.041571     -1035.499       7792.3261    
    411000   2113.7544     -1064.3273      29.234989     -1035.0924      16254.041    
    412000   2324.5375     -1061.8723      32.150296     -1029.722       50620.489    
    413000   2132.852      -1066.2804      29.499125     -1036.7813      3690.611     
    414000   2340.5874     -1064.3952      32.372279     -1032.0229      13424.286    
    415000   1920.8239     -1066.6426      26.5666       -1040.076       27701.623    
    416000   1968.5429     -1061.8282      27.226594     -1034.6016      43240.613    
    417000   1944.4323     -1063.445       26.893123     -1036.5519      19535.897    
    418000   2066.3278     -1063.0638      28.57904      -1034.4848      24683.589    
    419000   1763.2756     -1066.4429      24.387575     -1042.0553      111.83129    
    420000   2100.2458     -1065.3585      29.048154     -1036.3104      23204.046    
    421000   1751.1276     -1059.2332      24.219557     -1035.0136      31666.561    
    422000   2043.426      -1064.2269      28.262288     -1035.9646      25265.141    
    423000   1871.2032     -1059.4992      25.880303     -1033.6189      38297.977    
    424000   1973.157      -1069.3345      27.290409     -1042.0441      37408.011    
    425000   2088.3402     -1064.4282      28.883489     -1035.5447      31103.043    
    426000   1894.3365     -1063.805       26.200257     -1037.6047      32595.529    
    427000   1975.4646     -1064.8023      27.322326     -1037.48        1738.1538    
    428000   2089.4369     -1064.5394      28.898658     -1035.6408      6057.9461    
    429000   1945.3344     -1066.5453      26.9056       -1039.6397      7028.1808    
    430000   1910.8703     -1063.4448      26.428933     -1037.0159      17179.414    
    431000   2263.9989     -1060.3914      31.312996     -1029.0784      53212.838    
    432000   2130.3358     -1064.1445      29.464324     -1034.6802      10250.194    
    433000   1695.5225     -1063.3285      23.450493     -1039.878       20383.527    
    434000   2234.9399     -1063.1932      30.911086     -1032.2821      29885.114    
    435000   1954.6606     -1064.845       27.03459      -1037.8104      23952.242    
    436000   1909.4519     -1062.2909      26.409315     -1035.8816      15665.262    
    437000   1909.5906     -1064.9585      26.411233     -1038.5473      21122.615    
    438000   1890.0433     -1067.9309      26.140878     -1041.79        14237.9      
    439000   2136.7475     -1062.2639      29.553003     -1032.7109      57126.602    
    440000   2303.0427     -1061.1113      31.853005     -1029.2583      28447.918    
    441000   2086.5761     -1060.6044      28.859091     -1031.7453      26311.529    
    442000   1861.4099     -1065.7589      25.744854     -1040.014       25452.867    
    443000   1874.3052     -1062.9015      25.923207     -1036.9783      27289.777    
    444000   1995.2623     -1061.8339      27.596144     -1034.2377      18545.593    
    445000   2120.658      -1062.2013      29.330472     -1032.8708      41884.158    
    446000   1944.1402     -1065.5217      26.889083     -1038.6326      19736.127    
    447000   2080.716      -1062.5866      28.778041     -1033.8086      46839.476    
    448000   1799.9832     -1062.4355      24.895271     -1037.5402      16636.276    
    449000   1931.544      -1063.8477      26.714868     -1037.1328      30455.605    
    450000   1958.4206     -1058.5977      27.086593     -1031.5111      26945.82     
    451000   2068.5871     -1063.3379      28.610288     -1034.7276      19494.897    
    452000   1768.2291     -1064.6888      24.456086     -1040.2328      37537.95     
    453000   2034.5002     -1063.7287      28.138837     -1035.5898      11073.862    
    454000   1832.3337     -1065.7432      25.342706     -1040.4005      30656.884    
    455000   2167.4396     -1065.2439      29.9775       -1035.2664      15042.775    
    456000   2315.1112     -1063.2212      32.019922     -1031.2013      49015.852    
    457000   2092.5998     -1066.4182      28.942403     -1037.4758      16496.856    
    458000   1959.2171     -1064.771       27.09761      -1037.6733      24001.91     
    459000   1803.8134     -1061.339       24.948247     -1036.3908      20146.398    
    460000   2003.6384     -1068.2013      27.711992     -1040.4893      6535.8543    
    461000   1762.3836     -1061.264       24.375237     -1036.8888      20909.691    
    462000   2046.9843     -1063.7287      28.311504     -1035.4172      55776.863    
    463000   1891.6959     -1060.9685      26.163735     -1034.8048      58026.817    
    464000   1769.3887     -1060.8637      24.472125     -1036.3916      41980.685    
    465000   1975.1931     -1067.5154      27.318571     -1040.1968      30200.638    
    466000   2074.643      -1061.7819      28.694046     -1033.0878      29947.016    
    467000   1768.1158     -1062.5343      24.454519     -1038.0798      43497.276    
    468000   2022.7726     -1061.8596      27.976635     -1033.883       32760.697    
    469000   1909.6052     -1064.0239      26.411435     -1037.6124      16712.965    
    470000   2097.4651     -1063.7159      29.009695     -1034.7062      27426.027    
    471000   1898.7485     -1062.351       26.261278     -1036.0897      54796.158    
    472000   1876.4181     -1062.7993      25.952429     -1036.8469      28886.796    
    473000   2236.3898     -1060.2715      30.931139     -1029.3403      31771.451    
    474000   2248.9041     -1066.9499      31.104223     -1035.8457      15504.072    
    475000   2174.0343     -1066.8883      30.068711     -1036.8195     -1372.6715    
    476000   2178.1616     -1064.5595      30.125795     -1034.4337      12853.051    
    477000   1867.5483     -1065.8905      25.829754     -1040.0608      28103.077    
    478000   1958.4766     -1061.4451      27.087367     -1034.3578      53370.136    
    479000   2411.4076     -1063.8732      33.351782     -1030.5215      26935.947    
    480000   1949.8718     -1065.611       26.968356     -1038.6426      9238.3044    
    481000   2292.3663     -1061.1327      31.705342     -1029.4274      28158.773    
    482000   2059.4153     -1061.3343      28.483434     -1032.8509      29965.391    
    483000   2213.0338     -1065.5898      30.608106     -1034.9817      18302.712    
    484000   1796.6788     -1060.6713      24.849569     -1035.8217      10134.169    
    485000   2069.7451     -1061.0911      28.626304     -1032.4648      51295.597    
    486000   1992.5261     -1060.2984      27.5583       -1032.7401      72791.557    
    487000   2101.3728     -1064.6494      29.063741     -1035.5857      12465.561    
    488000   2004.5982     -1063.1152      27.725268     -1035.3899      59959.05     
    489000   2024.1769     -1065.2526      27.996057     -1037.2566      6537.5049    
    490000   2146.6444     -1060.0996      29.689885     -1030.4097      41974.532    
    491000   1980.3679     -1064.5839      27.390143     -1037.1938      27999.283    
    492000   2044.4114     -1062.6077      28.275918     -1034.3318      58206.907    
    493000   2133.2164     -1062.0262      29.504166     -1032.522       25849.454    
    494000   1989.6574     -1064.1008      27.518624     -1036.5822      31470.862    
    495000   2079.8288     -1063.1785      28.76577      -1034.4127      29550.237    
    496000   1934.3784     -1062.4188      26.754069     -1035.6648      28277.797    
    497000   1977.0452     -1060.047       27.344187     -1032.7028      36842.205    
    498000   1995.4147     -1063.8673      27.598252     -1036.269       33967.575    
    499000   2115.9736     -1061.8666      29.265683     -1032.6009      44294.122    
    500000   1981.5869     -1068.0771      27.407003     -1040.6701      15381.445    
    501000   2164.1879     -1062.5895      29.932527     -1032.6569      21751.68     
    502000   2146.9987     -1065.5259      29.694786     -1035.8311      28406.621    
    503000   1878.6825     -1063.6575      25.983749     -1037.6737      16906.986    
    504000   1911.8316     -1066.1092      26.442228     -1039.667       5131.407     
    505000   2237.1036     -1064.9315      30.941012     -1033.9905      23207.747    
    506000   1760.0481     -1064.368       24.342935     -1040.0251      46450.726    
    507000   1868.0047     -1061.1315      25.836066     -1035.2954      34863.086    
    508000   1914.2588     -1067.4426      26.475798     -1040.9668      10483.074    
    509000   2053.7925     -1065.3533      28.405666     -1036.9476      18721.323    
    510000   2073.7797     -1064.2084      28.682106     -1035.5263      23655.888    
    511000   2330.2493     -1065.6144      32.229295     -1033.3851      19196.089    
    512000   2199.0032     -1057.7433      30.414051     -1027.3293      46766.609    
    513000   1889.0648     -1060.539       26.127345     -1034.4117      19170.684    
    514000   1830.5211     -1066.9929      25.317636     -1041.6752      21894.199    
    515000   1913.7126     -1062.6617      26.468244     -1036.1934      39370.006    
    516000   1831.4278     -1063.6676      25.330177     -1038.3374      37672.742    
    517000   2137.927      -1062.7123      29.569317     -1033.1429      23852.799    
    518000   2181.8863     -1065.4497      30.177311     -1035.2724      14629.681    
    519000   2088.4409     -1064.7742      28.884883     -1035.8893      34825.565    
    520000   2282.7848     -1062.8316      31.572821     -1031.2588      43576.953    
    521000   2107.9628     -1062.9288      29.154887     -1033.7739      32442.277    
    522000   1648.0329     -1065.5503      22.793671     -1042.7566      3908.6499    
    523000   2087.0924     -1060.3619      28.866231     -1031.4957      30347.883    
    524000   1881.4016     -1062.7419      26.021355     -1036.7206      18905.514    
    525000   1897.9068     -1066.3342      26.249637     -1040.0846      3827.9677    
    526000   2262.4134     -1063.1338      31.291068     -1031.8427      15033.59     
    527000   1995.887      -1058.1155      27.604785     -1030.5107      37038.512    
    528000   1997.1478     -1064.5385      27.622223     -1036.9163      6150.4734    
    529000   1950.8668     -1065.6895      26.982118     -1038.7074      1335.2829    
    530000   2110.5211     -1063.5137      29.190271     -1034.3235      13680.749    
    531000   1894.9656     -1065.9657      26.208958     -1039.7567      3592.9544    
    532000   1997.0384     -1062.1225      27.620709     -1034.5018      35465.839    
    533000   1958.4028     -1066.693       27.086348     -1039.6066      7638.7661    
    534000   2339.2005     -1063.021       32.353098     -1030.6679      33148.896    
    535000   2004.2892     -1062.9699      27.720995     -1035.2489      45805.813    
    536000   1964.9981     -1066.847       27.177566     -1039.6695      38419.213    
    537000   2110.7116     -1063.8937      29.192905     -1034.7008      31944.846    
    538000   1785.6295     -1067.6881      24.696747     -1042.9914      6134.1741    
    539000   2129.8837     -1064.5334      29.458071     -1035.0753      28454.67     
    540000   1768.0723     -1061.2967      24.453917     -1036.8427      22227.797    
    541000   2378.2315     -1060.8158      32.892929     -1027.9229      27038.033    
    542000   2008.5992     -1065.463       27.780605     -1037.6824     -4349.1612    
    543000   2120.1187     -1066.3726      29.323013     -1037.0496      27791.139    
    544000   2121.2084     -1066.7855      29.338084     -1037.4474      25994.8      
    545000   1909.7016     -1063.0826      26.412768     -1036.6699      18183.656    
    546000   2112.8305     -1066.4897      29.222211     -1037.2675      26764.026    
    547000   2076.7632     -1063.8151      28.72337      -1035.0918      35845.793    
    548000   2502.3853     -1061.9609      34.610079     -1027.3509      14560.422    
    549000   1951.758      -1063.8285      26.994444     -1036.834       14229.363    
    550000   1980.8406     -1061.9382      27.396681     -1034.5416      12190.094    
    551000   1895.1156     -1064.7969      26.211032     -1038.5858      4026.2275    
    552000   2246.0807     -1065.0374      31.065173     -1033.9722      52069.257    
    553000   1900.6328     -1067.3508      26.287339     -1041.0635      29265.555    
    554000   1898.0534     -1061.4036      26.251664     -1035.152       12587.308    
    555000   1770.4385     -1067.8375      24.486644     -1043.3508      18973.265    
    556000   2002.6756     -1064.2184      27.698676     -1036.5198      41125.939    
    557000   2211.874      -1065.6149      30.592066     -1035.0228      19128.879    
    558000   2037.6153     -1059.0458      28.181922     -1030.8638      28458.116    
    559000   1916.2459     -1065.8941      26.503282     -1039.3909      16651.877    
    560000   1927.909      -1058.1377      26.664593     -1031.4731      42522.486    
    561000   2126.1379     -1069.302       29.406263     -1039.8957      14233.129    
    562000   1973.0533     -1061.8725      27.288976     -1034.5835      40920.155    
    563000   1963.9279     -1061.3501      27.162764     -1034.1873      22387.302    
    564000   1951.0099     -1064.6571      26.984097     -1037.673       45073.969    
    565000   2178.3563     -1061.0147      30.128487     -1030.8862      50014.966    
    566000   1895.7798     -1064.0128      26.220218     -1037.7926      38054.32     
    567000   1732.2363     -1065.2525      23.958275     -1041.2942      4646.9029    
    568000   2141.783      -1063.7875      29.622649     -1034.1648     -4463.0528    
    569000   1633.2466     -1059.8483      22.589165     -1037.2591      51587.998    
    570000   2067.2784     -1060.8691      28.592188     -1032.2769      36601.285    
    571000   2029.4607     -1060.9923      28.069138     -1032.9232      25927.073    
    572000   2326.97       -1063.2605      32.183939     -1031.0766      49620.07     
    573000   2090.2502     -1065.8145      28.909907     -1036.9046      22751.327    
    574000   2021.2475     -1059.8545      27.955542     -1031.8989      9449.8654    
    575000   1787.4414     -1063.2328      24.721808     -1038.511       21351.713    
    576000   1836.1207     -1063.6498      25.395083     -1038.2547      10649.753    
    577000   1911.247      -1060.4152      26.434142     -1033.981       50242.134    
    578000   1910.0318     -1062.6246      26.417335     -1036.2073      25038.111    
    579000   1744.9798     -1062.5532      24.134529     -1038.4186      23312.187    
    580000   2123.9146     -1062.9626      29.375514     -1033.5871      24953.096    
    581000   1883.4873     -1064.262       26.050204     -1038.2118      20833.073    
    582000   1883.422      -1062.9489      26.0493       -1036.8996      21099.188    
    583000   2129.3028     -1064.8264      29.450036     -1035.3764      15784.445    
    584000   1961.9459     -1056.6151      27.135351     -1029.4798      36434.09     
    585000   2033.8185     -1063.3846      28.129409     -1035.2552      30599.922    
    586000   1987.3483     -1063.5658      27.486687     -1036.0791      15751.675    
    587000   1947.1503     -1066.3139      26.930715     -1039.3832      18075.086    
    588000   2012.3578     -1064.1783      27.832589     -1036.3457      29951.68     
    589000   2009.4544     -1065.2208      27.792434     -1037.4284      27977.639    
    590000   1945.0893     -1064.1156      26.90221      -1037.2133     -9361.2163    
    591000   1971.6265     -1061.3435      27.269242     -1034.0742      32685.636    
    592000   1649.4901     -1069.1665      22.813827     -1046.3527      13948.552    
    593000   2020.2032     -1064.5222      27.941098     -1036.5811      7983.8955    
    594000   1630.9803     -1058.0122      22.55782      -1035.4544      32211.539    
    595000   2032.5991     -1063.6163      28.112543     -1035.5038      38018.104    
    596000   2185.8922     -1061.268       30.232715     -1031.0353      36168.334    
    597000   2135.0382     -1064.7594      29.529362     -1035.2301      20493.015    
    598000   1827.6505     -1060.4757      25.277934     -1035.1977      36232.248    
    599000   2309.2101     -1060.5783      31.938306     -1028.64        27737.39     
    600000   1808.6807     -1061.3234      25.015565     -1036.3079      46293.882    
    601000   1975.9022     -1056.7298      27.328379     -1029.4015      31756.736    
    602000   2135.7033     -1064.6057      29.538562     -1035.0671      37538.425    
    603000   1701.0054     -1063.9089      23.526325     -1040.3826      24731.27     
    604000   1997.7557     -1063.2069      27.630631     -1035.5762      19695.967    
    605000   1905.1427     -1064.1774      26.349715     -1037.8276      31510.478    
    606000   2016.1845     -1065.065       27.885517     -1037.1795      8423.2117    
    607000   1968.4283     -1062.9493      27.225008     -1035.7243      46359.283    
    608000   1786.9478     -1062.2597      24.714981     -1037.5448      26687.713    
    609000   2070.5561     -1058.4657      28.637521     -1029.8282      63687.897    
    610000   1973.7629     -1064.8149      27.29879      -1037.5161      19215.122    
    611000   1686.72       -1064.3962      23.328747     -1041.0674      10003.454    
    612000   2262.3498     -1065.712       31.290188     -1034.4219      16602.335    
    613000   2156.7711     -1067.9243      29.829946     -1038.0944      19876.24     
    614000   2113.6316     -1064.0984      29.233291     -1034.8651      45372.31     
    615000   2135.5614     -1062.1841      29.536598     -1032.6475      31763.774    
    616000   1785.1369     -1065.9884      24.689935     -1041.2985      25353.728    
    617000   1997.1163     -1060.7148      27.621787     -1033.093       36733.918    
    618000   1936.2977     -1066.6729      26.780615     -1039.8922      4798.8115    
    619000   2215.8906     -1066.1843      30.647619     -1035.5367      25806.129    
    620000   2020.382      -1065.3632      27.943571     -1037.4196      22168.195    
    621000   2250.2661     -1061.6881      31.12306      -1030.5651      37029.841    
    622000   2037.1342     -1063.035       28.175268     -1034.8598      42735.931    
    623000   1759.95       -1063.6399      24.34158      -1039.2983      49064.376    
    624000   2096.9657     -1063.3082      29.002788     -1034.3054      20180.203    
    625000   1989.9373     -1064.8441      27.522495     -1037.3216      11129.583    
    626000   1863.0956     -1060.6326      25.768169     -1034.8645      27058.276    
    627000   2132.013      -1061.0022      29.487521     -1031.5147      33420.855    
    628000   2254.6925     -1063.6148      31.184281     -1032.4305      31724.146    
    629000   1903.1562     -1067.3404      26.322241     -1041.0181      7696.0004    
    630000   1924.2338     -1062.521       26.613762     -1035.9072      43463.712    
    631000   2177.6167     -1064.2105      30.118259     -1034.0923      27041.516    
    632000   2205.2432     -1062.1866      30.500356     -1031.6862      34673.357    
    633000   1795.6633     -1064.7687      24.835523     -1039.9331      42141.991    
    634000   1899.2236     -1061.5105      26.267849     -1035.2426      35513.009    
    635000   1619.7658     -1063.4021      22.402714     -1040.9994      24902.557    
    636000   1878.1704     -1062.3582      25.976666     -1036.3816      19065.246    
    637000   1814.4656     -1065.9245      25.095575     -1040.8289     -4080.1464    
    638000   1971.0965     -1062.6115      27.261911     -1035.3496      27075.933    
    639000   1818.4722     -1060.7012      25.15099      -1035.5502      28446.23     
    640000   1678.5142     -1066.467       23.215254     -1043.2518      17003.737    
    641000   2012.1906     -1063.0966      27.830277     -1035.2663      54983.149    
    642000   1831.198      -1064.4487      25.326998     -1039.1217      13606.586    
    643000   1905.7656     -1067.4626      26.35833      -1041.1043      8284.6544    
    644000   2102.1721     -1062.8636      29.074796     -1033.7888      36826.057    
    645000   1985.6182     -1066.183       27.462759     -1038.7202      24821.92     
    646000   2126.6905     -1063.2191      29.413906     -1033.8052      40397.074    
    647000   2019.44       -1063.8526      27.930542     -1035.9221      10404.808    
    648000   1713.7267     -1063.3862      23.702272     -1039.6839      16915.511    
    649000   2136.6339     -1062.8422      29.551431     -1033.2907      35139.199    
    650000   1942.5137     -1064.604       26.866588     -1037.7374      29462.864    
    651000   2119.0209     -1066.8028      29.30783      -1037.495       23551.58     
    652000   2108.0267     -1063.8683      29.15577      -1034.7126      22288.858    
    653000   2102.5021     -1067.4846      29.079361     -1038.4053      44396.406    
    654000   1941.794      -1058.3959      26.856634     -1031.5393      35562.838    
    655000   1967.3601     -1063.568       27.210233     -1036.3578      914.14124    
    656000   2057.3284     -1062.2274      28.454571     -1033.7728      61617.939    
    657000   2190.7639     -1060.8878      30.300095     -1030.5877      55604.653    
    658000   2184.7376     -1064.9497      30.216747     -1034.733       7458.4973    
    659000   2289.2098     -1061.7561      31.661684     -1030.0944      30150.69     
    660000   2129.6227     -1067.8441      29.454462     -1038.3896      15384.578    
    661000   2270.7322     -1065.1661      31.406124     -1033.76        16455.674    
    662000   1964.7368     -1066.4001      27.173951     -1039.2261     -19667.673    
    663000   1861.6564     -1066.1976      25.748264     -1040.4493      25990.265    
    664000   2180.4715     -1062.8254      30.157743     -1032.6677      34049.785    
    665000   1986.7239     -1063.4247      27.478051     -1035.9466      7524.448     
    666000   1959.0899     -1057.9089      27.09585      -1030.8131      27796.021    
    667000   1870.2088     -1064.1552      25.86655      -1038.2886      18806.423    
    668000   2330.3039     -1062.798       32.230051     -1030.5679      47033.109    
    669000   1766.4111     -1062.5625      24.430942     -1038.1315      16012.659    
    670000   2105.2843     -1065.6366      29.117841     -1036.5188      26791.15     
    671000   1832.6809     -1060.7395      25.347508     -1035.392       42851.927    
    672000   2077.682      -1064.1136      28.736077     -1035.3775      22391.325    
    673000   1610.2894     -1064.3521      22.271648     -1042.0804      29445.754    
    674000   1974.9054     -1064.5573      27.314591     -1037.2427      28719.253    
    675000   1729.6313     -1062.9568      23.922246     -1039.0346      40224.945    
    676000   2002.7628     -1063.4135      27.699882     -1035.7136      22774.532    
    677000   2060.6948     -1062.4377      28.50113      -1033.9366      38744.421    
    678000   1568.6597     -1064.1475      21.695875     -1042.4517      38037.611    
    679000   1727.8145     -1058.1924      23.897118     -1034.2953      25205.628    
    680000   1813.9405     -1065.3563      25.088312     -1040.268       32425.407    
    681000   2165.9442     -1061.7473      29.956818     -1031.7905      25840.051    
    682000   1914.3529     -1063.7632      26.4771       -1037.2861      36823.354    
    683000   1865.8102     -1061.2931      25.805715     -1035.4873      32617.777    
    684000   1788.0613     -1062.7024      24.730381     -1037.972       31277.086    
    685000   1960.5076     -1063.2778      27.115458     -1036.1623      26262.713    
    686000   1940.7502     -1059.663       26.842197     -1032.8208      39899.073    
    687000   2027.2998     -1063.7274      28.03925      -1035.6881      49409.669    
    688000   1961.0237     -1063.8258      27.122596     -1036.7032      39246.714    
    689000   2038.2829     -1065.4001      28.191155     -1037.209       46459.582    
    690000   2088.4022     -1062.9131      28.884347     -1034.0287      36607.234    
    691000   2115.3848     -1061.1204      29.257539     -1031.8628      29693.405    
    692000   1967.0519     -1059.7132      27.205971     -1032.5072      41774.082    
    693000   1962.5986     -1066.6228      27.144379     -1039.4785      2989.6609    
    694000   1920.802      -1061.4837      26.566297     -1034.9174      44219.526    
    695000   1751.6311     -1061.5475      24.226522     -1037.321       16604.566    
    696000   2156.2539     -1058.9087      29.822794     -1029.0859      29136.488    
    697000   2037.7869     -1064.312       28.184295     -1036.1277      32379.318    
    698000   1914.0754     -1063.4205      26.473263     -1036.9472      44127.144    
    699000   2123.8636     -1061.1852      29.374808     -1031.8104      29221.739    
    700000   1992.7029     -1064.0694      27.560746     -1036.5086      14677.869    
    701000   1890.1774     -1063.738       26.142732     -1037.5953      19727.137    
    702000   2105.0479     -1060.2741      29.114572     -1031.1595      41273.606    
    703000   2105.6679     -1060.3207      29.123147     -1031.1975      36619.316    
    704000   2044.2584     -1064.2071      28.273802     -1035.9333      28254.584    
    705000   1834.2414     -1066.5183      25.369091     -1041.1492      38381.42     
    706000   2014.5783     -1061.4688      27.863301     -1033.6055      35249.621    
    707000   1758.3615     -1062.9215      24.319609     -1038.6019      17910.236    
    708000   1970.1808     -1061.6744      27.249246     -1034.4252      42271.851    
    709000   1767.8575     -1062.7278      24.450946     -1038.2768      21725.397    
    710000   1950.3718     -1062.7012      26.975272     -1035.7259      12111.706    
    711000   1905.0594     -1060.9016      26.348563     -1034.553       25901.507    
    712000   1989.7772     -1064.5436      27.520282     -1037.0233      19649.266    
    713000   1767.971      -1061.1358      24.452516     -1036.6833      35420.902    
    714000   2147.1624     -1063.3367      29.69705      -1033.6396      44581.199    
    715000   2345.3603     -1063.2124      32.438293     -1030.7741      27401.1      
    716000   1804.7705     -1062.9523      24.961483     -1037.9908      30375.641    
    717000   2167.0743     -1059.9566      29.972448     -1029.9841      30937.445    
    718000   1803.8145     -1062.3825      24.948262     -1037.4343      2540.8366    
    719000   1891.5944     -1063.6463      26.162331     -1037.4839      23840.689    
    720000   2094.879      -1063.1552      28.973927     -1034.1813      30730.233    
    721000   1917.8424     -1066.0103      26.525363     -1039.4849      12535.169    
    722000   1702.7334     -1062.6471      23.550226     -1039.0969      25404.511    
    723000   1877.8377     -1064.9458      25.972064     -1038.9737      4490.553     
    724000   2219.2097     -1062.7631      30.693525     -1032.0696      15903.688    
    725000   2062.2003     -1064.3151      28.521954     -1035.7932      18771.577    
    726000   1863.7861     -1060.7888      25.777718     -1035.0111      15849.898    
    727000   2043.7599     -1059.8224      28.266907     -1031.5555      42799.488    
    728000   2039.5479     -1060.9434      28.208651     -1032.7347      35996.425    
    729000   1784.1815     -1061.5479      24.676721     -1036.8712      11824.026    
    730000   1878.0255     -1061.4224      25.974661     -1035.4477      52261.074    
    731000   2064.2312     -1060.3861      28.550043     -1031.836       42768.654    
    732000   2216.3328     -1064.156       30.653734     -1033.5022      27596.288    
    733000   2027.3118     -1067.6204      28.039416     -1039.581       6907.8125    
    734000   2014.0605     -1060.989       27.85614      -1033.1328      28761.423    
    735000   2082.5097     -1066.4113      28.80285      -1037.6084      31743.076    
    736000   2004.1395     -1065.7372      27.718924     -1038.0182      37956.554    
    737000   2134.6154     -1060.9086      29.523514     -1031.385       53293.712    
    738000   1926.5203     -1064.2071      26.645385     -1037.5618      30815.34     
    739000   1761.4363     -1064.0532      24.362136     -1039.691       21150.646    
    740000   1765.3278     -1060.3507      24.415958     -1035.9348      49262.629    
    741000   2195.7477     -1063.1784      30.369025     -1032.8094      29849.537    
    742000   1893.5263     -1065.0818      26.18905      -1038.8928      10367.01     
    743000   2271.4719     -1062.7115      31.416355     -1031.2952      35268.99     
    744000   1851.9332     -1062.1841      25.613783     -1036.5703      43821.77     
    745000   2095.9012     -1064.0943      28.988064     -1035.1063      16331.109    
    746000   2063.1024     -1059.2993      28.534429     -1030.7649      54830.365    
    747000   1921.8765     -1064.9233      26.581158     -1038.3421      39895.897    
    748000   1978.6807     -1065.6158      27.366808     -1038.249       23495.115    
    749000   2127.84       -1062.135       29.429805     -1032.7052      31446.634    
    750000   1830.0352     -1066.1485      25.310915     -1040.8376      13249.706    
    751000   1704.5809     -1062.9384      23.575778     -1039.3626      40789.25     
    752000   2349.4102     -1064.355       32.494306     -1031.8607      26363.47     
    753000   1964.0545     -1063.4187      27.164515     -1036.2542      20484.224    
    754000   1956.6198     -1064.5457      27.061687     -1037.484       14842.929    
    755000   2151.3895     -1057.0077      29.755515     -1027.2522      38486.04     
    756000   2110.5927     -1067.5137      29.191261     -1038.3224     -9218.3652    
    757000   2005.2642     -1059.701       27.73448      -1031.9665      50005.693    
    758000   1819.9351     -1063.1769      25.171223     -1038.0057      28971.13     
    759000   1910.5114     -1062.3219      26.423969     -1035.8979      28040.105    
    760000   1616.549      -1066.3834      22.358223     -1044.0252      1403.5867    
    761000   2007.1338     -1061.799       27.760338     -1034.0386      26244.318    
    762000   1775.9447     -1060.21        24.5628       -1035.6472      58487.672    
    763000   1764.3568     -1059.4684      24.402529     -1035.0659      19518.379    
    764000   1741.9804     -1062.7219      24.093044     -1038.6289      28093.486    
    765000   2028.7918     -1060.4321      28.059885     -1032.3722      33060.142    
    766000   1867.68       -1064.4976      25.831574     -1038.666       34389.306    
    767000   2052.1944     -1057.3998      28.383563     -1029.0162      35723.961    
    768000   2236.5438     -1066.1666      30.93327      -1035.2333      3298.9074    
    769000   1755.8078     -1066.0791      24.284289     -1041.7948      8842.7754    
    770000   1923.6196     -1060.936       26.605266     -1034.3308      40299.618    
    771000   1871.5612     -1065.2787      25.885255     -1039.3934      14847.901    
    772000   1949.138      -1062.3753      26.958208     -1035.417       26753.792    
    773000   1962.2879     -1064.0828      27.140082     -1036.9427      3189.4298    
    774000   2099.4724     -1059.6953      29.037458     -1030.6578      11624.085    
    775000   2298.8571     -1059.7854      31.795114     -1027.9903      21194.477    
    776000   1962.1637     -1062.3709      27.138364     -1035.2326      3238.6089    
    777000   2280.0658     -1067.5818      31.535214     -1036.0466      55980.414    
    778000   2043.2724     -1064.4564      28.260165     -1036.1962      26290.091    
    779000   2130.8159     -1062.2797      29.470964     -1032.8087      17001.785    
    780000   1707.8719     -1064.123       23.621295     -1040.5017      25254.932    
    781000   2106.0927     -1061.4975      29.129022     -1032.3685      30232.932    
    782000   1910.6733     -1064.12        26.426208     -1037.6937      12090.025    
    783000   2208.7961     -1064.35        30.549496     -1033.8005      10605.192    
    784000   1886.2734     -1061.2714      26.088736     -1035.1826      36358.766    
    785000   2067.095      -1063.9902      28.589651     -1035.4006      5859.978     
    786000   2265.7819     -1063.3849      31.337656     -1032.0472      28505.282    
    787000   1980.0992     -1064.7035      27.386426     -1037.3171      12097.99     
    788000   1994.1481     -1064.8574      27.580734     -1037.2767      38011.89     
    789000   1971.5754     -1066.6005      27.268535     -1039.332       42934.119    
    790000   1859.8776     -1062.4665      25.723661     -1036.7428      16366.088    
    791000   1968.2399     -1065.28        27.222402     -1038.0576      22928.245    
    792000   1940.3131     -1063.3347      26.836152     -1036.4985      11783.208    
    793000   2060.1766     -1058.5027      28.493964     -1030.0087      56280.908    
    794000   2124.2735     -1065.9304      29.380477     -1036.5499      20859.91     
    795000   2059.0003     -1065.929       28.477695     -1037.4513      22228.067    
    796000   1882.9048     -1063.4685      26.042147     -1037.4264      36669.719    
    797000   1937.6577     -1065.0336      26.799425     -1038.2341      17022.422    
    798000   1762.3877     -1059.4417      24.375294     -1035.0664      3327.3376    
    799000   2401.9857     -1064.3138      33.22147      -1031.0923      10641.246    
    800000   2203.8339     -1066.2897      30.480865     -1035.8089      28813.091    
    801000   1950.7086     -1061.9357      26.97993      -1034.9558      46172.106    
    802000   2028.5207     -1066.8217      28.056136     -1038.7656     -5246.8599    
    803000   1758.4881     -1059.6934      24.32136      -1035.372       23458.27     
    804000   2051.8842     -1061.4939      28.379273     -1033.1146      14957.881    
    805000   2120.3334     -1062.4888      29.325983     -1033.1628      31489.606    
    806000   1797.156      -1066.0747      24.856169     -1041.2185      18505.696    
    807000   1838.5561     -1063.2271      25.428766     -1037.7984      22078.943    
    808000   2088.7799     -1063.5088      28.889572     -1034.6192      13193.433    
    809000   2342.445      -1062.5513      32.397972     -1030.1534      46443.376    
    810000   1849.1298     -1064.1517      25.57501      -1038.5767      28036.231    
    811000   1931.3188     -1065.6101      26.711752     -1038.8984      18551.768    
    812000   1994.4359     -1064.0784      27.584714     -1036.4936      8561.4702    
    813000   2265.3627     -1064.6471      31.331859     -1033.3152      44667.534    
    814000   2074.0281     -1068.0484      28.685541     -1039.3628      3929.6356    
    815000   1782.0971     -1065.1861      24.647892     -1040.5382      22240.679    
    816000   1774.9054     -1060.1575      24.548424     -1035.609       47325.904    
    817000   2048.6784     -1061.595       28.334934     -1033.2601      29713.128    
    818000   1963.447      -1061.9549      27.156113     -1034.7988      1738.7401    
    819000   1914.0873     -1064.826       26.473426     -1038.3526      31704.494    
    820000   2105.8514     -1063.6658      29.125684     -1034.5401      22223.105    
    821000   1805.4913     -1059.2421      24.971454     -1034.2707      42636.658    
    822000   2125.5731     -1064.1564      29.398451     -1034.7579      25705.91     
    823000   2013.9906     -1063.5393      27.855173     -1035.6841      33886.96     
    824000   2001.4692     -1068.2935      27.681991     -1040.6115     -5216.6892    
    825000   2058.4521     -1061.3521      28.470113     -1032.8819      15164.425    
    826000   1916.076      -1064.7234      26.500931     -1038.2224      16232.707    
    827000   2087.7944     -1061.1196      28.875941     -1032.2436      31796.819    
    828000   2179.6692     -1065.4539      30.146647     -1035.3073      37355.39     
    829000   1744.0478     -1062.8484      24.121639     -1038.7267      14490.004    
    830000   2309.1587     -1064.6465      31.937594     -1032.709       22034.223    
    831000   2159.5769     -1058.0648      29.868753     -1028.196       73563.269    
    832000   1845.0554     -1063.0222      25.518657     -1037.5035      5162.0685    
    833000   2184.3336     -1063.0415      30.211159     -1032.8303      55219.699    
    834000   1751.8703     -1062.3202      24.22983      -1038.0904      20770.297    
    835000   2198.4777     -1059.427       30.406783     -1029.0203      54647.768    
    836000   1964.4074     -1064.4057      27.169396     -1037.2363      30315.876    
    837000   2151.1709     -1059.5215      29.752491     -1029.769       41522.451    
    838000   1919.5811     -1061.4104      26.549411     -1034.861       17421.407    
    839000   1985.7712     -1066.046       27.464875     -1038.5811      33235.56     
    840000   1880.5698     -1059.1131      26.009852     -1033.1032      38760.705    
    841000   1820.0225     -1062.0916      25.172432     -1036.9192      16857.515    
    842000   1614.386      -1064.0574      22.328308     -1041.7291      26541.41     
    843000   2204.2728     -1065.3451      30.486935     -1034.8582      40655.538    
    844000   2168.2421     -1063.892       29.9886       -1033.9034      32238.604    
    845000   2043.5561     -1064.4143      28.264089     -1036.1502      9503.7842    
    846000   2206.9806     -1067.2784      30.524386     -1036.754       13878.46     
    847000   1859.8513     -1061.9531      25.723298     -1036.2298      41884.018    
    848000   2020.6739     -1065.2304      27.947608     -1037.2828      14893.248    
    849000   1989.9421     -1064.7558      27.522562     -1037.2333      4893.6437    
    850000   2089.8894     -1063.4874      28.904916     -1034.5825      14375.898    
    851000   2109.6138     -1062.3723      29.177722     -1033.1946      37085.759    
    852000   1657.1745     -1061.5501      22.920107     -1038.63        23517.667    
    853000   2111.4102     -1061.9267      29.202567     -1032.7242      38352.787    
    854000   2047.1218     -1064.7126      28.313405     -1036.3992      33826.823    
    855000   1788.0515     -1062.8708      24.730247     -1038.1405      19082.616    
    856000   2078.2496     -1061.7145      28.743928     -1032.9705      42355.65     
    857000   1920.8467     -1063.3326      26.566915     -1036.7657      37803.444    
    858000   1974.263      -1061.9031      27.305706     -1034.5974      20286.201    
    859000   1960.2863     -1065.326       27.112397     -1038.2136      35020.761    
    860000   1877.9499     -1063.926       25.973617     -1037.9524      35220.322    
    861000   1826.4577     -1063.722       25.261436     -1038.4605      23563.772    
    862000   1939.6854     -1062.1001      26.827469     -1035.2726      9435.0532    
    863000   1814.1468     -1065.1267      25.091166     -1040.0355      29417.034    
    864000   1879.5899     -1063.1536      25.996299     -1037.1573      20615.358    
    865000   1964.97       -1063.689       27.177176     -1036.5118      17750.383    
    866000   1999.0656     -1060.4038      27.648747     -1032.755       44610.548    
    867000   2048.2172     -1061.5686      28.328555     -1033.2401      16971.196    
    868000   1720.4607     -1062.7292      23.795408     -1038.9338      23943.229    
    869000   2029.6413     -1055.3053      28.071636     -1027.2336      51446.18     
    870000   1969.8023     -1062.5097      27.244012     -1035.2657      44457.692    
    871000   2115.2083     -1062.0142      29.255099     -1032.7591      24935.912    
    872000   1950.5237     -1065.7335      26.977372     -1038.7562      46688.281    
    873000   1778.7238     -1062.6891      24.601236     -1038.0878      46797.116    
    874000   2241.4086     -1058.4464      31.000553     -1027.4458      41844.06     
    875000   2099.6709     -1063.4982      29.040203     -1034.458       26336.342    
    876000   2046.623      -1065.2169      28.306506     -1036.9103      14842.749    
    877000   1910.5832     -1063.0379      26.424962     -1036.613       21220.307    
    878000   2201.0245     -1060.438       30.442007     -1029.996       31803.402    
    879000   2045.8105     -1063.9845      28.295268     -1035.6892      23154.533    
    880000   1777.3137     -1064.2531      24.581733     -1039.6713      26954.253    
    881000   2005.7191     -1058.9457      27.740771     -1031.205       54654.924    
    882000   1929.3706     -1065.189       26.684808     -1038.5042      16977.474    
    883000   2126.7856     -1063.2973      29.415222     -1033.8821      29222.915    
    884000   1915.6859     -1066.3992      26.495536     -1039.9037      7030.5026    
    885000   2288.4434     -1063.4195      31.651084     -1031.7684      23318.647    
    886000   1898.8036     -1064.5081      26.26204      -1038.246       17527.693    
    887000   2067.7962     -1064.5758      28.599349     -1035.9764      32232.85     
    888000   1959.5701     -1063.5556      27.102492     -1036.4531      26881.526    
    889000   1967.733      -1058.6286      27.215391     -1031.4132      34479.404    
    890000   1826.6789     -1061.3492      25.264495     -1036.0847      35946.656    
    891000   2255.5437     -1061.1289      31.196054     -1029.9328      47067.532    
    892000   2160.9788     -1065.4918      29.888142     -1035.6037      7421.8844    
    893000   2048.8578     -1061.2916      28.337415     -1032.9542      13852.593    
    894000   1999.6023     -1065.9857      27.65617      -1038.3296      20017.636    
    895000   1898.1091     -1060.5969      26.252435     -1034.3444      44415.556    
    896000   1915.4519     -1060.9181      26.492301     -1034.4258      17808.978    
    897000   1995.8714     -1061.9915      27.604569     -1034.3869      21013.62     
    898000   2071.3823     -1064.8933      28.648948     -1036.2443      43697.702    
    899000   2145.6688     -1065.6574      29.676392     -1035.981       17589.59     
    900000   1832.5036     -1064.256       25.345056     -1038.9109      24650.143    
    901000   2066.0313     -1063.1556      28.57494      -1034.5806      20919.966    
    902000   2079.8994     -1063.197       28.766747     -1034.4302      18440.161    
    903000   2036.4561     -1066.3738      28.165889     -1038.2079      12794.307    
[...]
   4786000   1985.4521     -1062.9396      27.460461     -1035.4791      7728.9295    
   4787000   1853.5661     -1063.7829      25.636368     -1038.1465      999.06256    
   4788000   2149.1651     -1064.2782      29.724749     -1034.5535      40812.602    
   4789000   2006.0512     -1064.1673      27.745365     -1036.4219      26507.792    
   4790000   1989.2956     -1061.5313      27.51362      -1034.0177      38974.237    
   4791000   1747.664      -1060.4992      24.171653     -1036.3276      36182.319    
   4792000   2083.5321     -1060.4206      28.81699      -1031.6036      27158.33     
   4793000   1848.5951     -1063.5291      25.567615     -1037.9615      45615.745    
   4794000   2168.5391     -1060.1344      29.992707     -1030.1417      40388.373    
   4795000   1987.2683     -1064.1323      27.485581     -1036.6467      38097.378    
   4796000   2009.4919     -1065.4073      27.792952     -1037.6143      29371.824    
   4797000   1980.1111     -1065.3383      27.386591     -1037.9517      13048.694    
   4798000   2278.2875     -1060.3177      31.51062      -1028.8071      38761.067    
   4799000   1893.4635     -1064.2956      26.188183     -1038.1074      52372.905    
   4800000   1847.6272     -1059.444       25.554228     -1033.8898      62161.326    
   4801000   1700.9672     -1066.1853      23.525797     -1042.6595      33750.978    
   4802000   1859.3127     -1059.5717      25.715847     -1033.8559      43132.086    
   4803000   1763.4646     -1062.7563      24.390189     -1038.3661      7386.5902    
   4804000   1999.8235     -1063.3347      27.65923      -1035.6755      39520.285    
   4805000   1886.7739     -1063.5274      26.09566      -1037.4317      26729.789    
   4806000   1922.4067     -1063.7172      26.588491     -1037.1287      6091.3884    
   4807000   2246.0643     -1062.8457      31.064946     -1031.7808      5468.6559    
   4808000   1831.8423     -1064.5915      25.33591      -1039.2556      40744.958    
   4809000   1952.3413     -1065.7137      27.002511     -1038.7112     -1029.3573    
   4810000   2189.9289     -1063.5062      30.288547     -1033.2176      50970.21     
   4811000   2016.9432     -1064.3381      27.896009     -1036.4421      39220.037    
   4812000   1853.2791     -1063.4511      25.632398     -1037.8187      17580.148    
   4813000   2136.0869     -1068.2005      29.543866     -1038.6566      29166.217    
   4814000   2239.7033     -1059.344       30.976968     -1028.367       25197.895    
   4815000   1974.5022     -1060.3193      27.309015     -1033.0103      44269.726    
   4816000   2243.0859     -1062.7367      31.023752     -1031.7129      23813.448    
   4817000   2296.3123     -1065.9678      31.759917     -1034.2078      24331.443    
   4818000   1975.2379     -1061.9753      27.319191     -1034.6562      30895.387    
   4819000   2051.5952     -1067.0112      28.375276     -1038.636       17233.208    
   4820000   2112.6849     -1065.4866      29.220198     -1036.2664      22392.385    
   4821000   1772.5534     -1063.5507      24.515895     -1039.0348      8729.0207    
   4822000   1759.0201     -1065.3772      24.328718     -1041.0485      32898.465    
   4823000   2216.3283     -1066.0839      30.653672     -1035.4303      23803.113    
   4824000   1965.7505     -1065.4905      27.187972     -1038.3025      46705.949    
   4825000   2152.512      -1063.8404      29.77104      -1034.0693      10113.341    
   4826000   1913.7885     -1062.5902      26.469295     -1036.1209      30740.288    
   4827000   2136.543      -1066.008       29.550175     -1036.4578      21534.165    
   4828000   1969.1206     -1063.1093      27.234583     -1035.8747      57139.569    
   4829000   2175.9922     -1067.8106      30.095791     -1037.7148      5046.0784    
   4830000   2046.1094     -1062.7392      28.299403     -1034.4398      43924.36     
   4831000   2182.5502     -1062.0347      30.186493     -1031.8482      25742.138    
   4832000   1786.47       -1063.0745      24.708373     -1038.3661      15631.82     
   4833000   2074.0738     -1062.4707      28.686174     -1033.7846      26127.65     
   4834000   2049.254      -1062.841       28.342895     -1034.4981      23396.518    
   4835000   2140.8066     -1060.7624      29.609144     -1031.1533      32859.758    
   4836000   1898.3649     -1062.388       26.255973     -1036.132       23808.082    
   4837000   1780.0965     -1063.2086      24.620222     -1038.5884      27302.222    
   4838000   1806.6928     -1060.6085      24.988071     -1035.6204      26111.453    
   4839000   1758.883      -1067.3783      24.326821     -1043.0515      17814.392    
   4840000   2001.95       -1063.1517      27.688642     -1035.4631      28375.306    
   4841000   2021.0928     -1063.1051      27.953403     -1035.1517      16427.992    
   4842000   1921.7067     -1063.5648      26.578809     -1036.9859      50472.145    
   4843000   2156.2938     -1062.6584      29.823345     -1032.8351     -10965.272    
   4844000   1991.7348     -1061.5736      27.547356     -1034.0262      26511.151    
   4845000   1972.4238     -1067.706       27.28027      -1040.4258      18228.058    
   4846000   2244.3661     -1065.2462      31.041458     -1034.2047      24015.523    
   4847000   2010.9958     -1062.8212      27.813752     -1035.0074      25699.885    
   4848000   1977.5786     -1065.0532      27.351565     -1037.7017      18130.195    
   4849000   1715.5635     -1057.1703      23.727676     -1033.4426      41564.289    
   4850000   1811.5388     -1066.4566      25.055096     -1041.4016      37980.517    
   4851000   2167.2659     -1066.3762      29.975099     -1036.4011      29550.879    
   4852000   2099.4972     -1062.4817      29.037801     -1033.4439      52723.371    
   4853000   1905.4671     -1062.9058      26.354203     -1036.5516      21422.898    
   4854000   2285.3877     -1066.6747      31.608822     -1035.0658      21442.039    
   4855000   2156.7938     -1067.3056      29.830261     -1037.4753      7330.3546    
   4856000   1642.2255     -1062.9398      22.713351     -1040.2265      28439.544    
   4857000   1850.0553     -1061.226       25.587811     -1035.6382      20887.602    
   4858000   1950.5763     -1061.7726      26.9781       -1034.7945      20388.051    
   4859000   1866.5237     -1066.1458      25.815583     -1040.3302      8757.0258    
   4860000   1748.6426     -1059.9339      24.185189     -1035.7487      19508.406    
   4861000   1725.245      -1062.5781      23.86158      -1038.7165      12570.627    
   4862000   1753.2722     -1062.7896      24.24922      -1038.5404      7428.1245    
   4863000   1888.6191     -1062.5517      26.12118      -1036.4305      37445.148    
   4864000   1970.8102     -1065.2281      27.257951     -1037.9701      13585.694    
   4865000   1854.89       -1062.435       25.654678     -1036.7803      36487.297    
   4866000   1863.9219     -1059.6447      25.779598     -1033.8651      60747.465    
   4867000   2104.6405     -1064.5346      29.108937     -1035.4256      46772.813    
   4868000   1852.6438     -1063.3388      25.623611     -1037.7152      26736.858    
   4869000   2137.177      -1061.1093      29.558944     -1031.5504      34275.922    
   4870000   2020.9876     -1063.988       27.951947     -1036.036       37029.641    
   4871000   1828.244      -1061.8463      25.286142     -1036.5602      28939.775    
   4872000   2157.456      -1063.3808      29.83942      -1033.5413      16708.037    
   4873000   1878.6326     -1065.972       25.983059     -1039.989       18511.593    
   4874000   1931.9746     -1060.4971      26.720823     -1033.7762      46256.85     
   4875000   2030.2869     -1063.3382      28.080564     -1035.2576      29383.104    
   4876000   2223.6227     -1061.1537      30.75456      -1030.3991      42586.052    
   4877000   1991.1444     -1065.4603      27.539191     -1037.9211      19608.35     
   4878000   2134.7832     -1056.7399      29.525836     -1027.2141      37975.049    
   4879000   1989.7851     -1065.0834      27.520391     -1037.563       5224.22      
   4880000   2198.7196     -1063.3387      30.410129     -1032.9285      44572.911    
   4881000   1871.3045     -1065.5033      25.881705     -1039.6216      9684.9322    
   4882000   2075.5879     -1060.6925      28.707115     -1031.9854      32000.935    
   4883000   1883.5725     -1065.1189      26.051381     -1039.0675      20848.408    
   4884000   2184.8982     -1064.9455      30.218968     -1034.7265      18397.517    
   4885000   2091.4508     -1062.5197      28.926511     -1033.5931      3809.564     
   4886000   2040.3344     -1067.4018      28.219529     -1039.1823     -1322.9026    
   4887000   2063.7117     -1063.3344      28.542857     -1034.7916      11263.834    
   4888000   1793.6723     -1061.4522      24.807987     -1036.6442      41931.705    
   4889000   2040.199      -1064.9453      28.217657     -1036.7277      14111.845    
   4890000   2177.6165     -1064.5151      30.118255     -1034.3968      19292.506    
   4891000   2056.758      -1065.9399      28.446681     -1037.4932      3945.3167    
   4892000   2166.3486     -1066.5142      29.962411     -1036.5518      16747.977    
   4893000   1878.6555     -1063.2335      25.983375     -1037.2501      67579.292    
   4894000   1946.2114     -1063.6298      26.91773      -1036.7121      30937.622    
   4895000   2158.3073     -1063.016       29.851193     -1033.1648      12100.029    
   4896000   2114.4079     -1059.1178      29.244027     -1029.8738      50918.387    
   4897000   1930.7034     -1066.5899      26.703241     -1039.8867      23379.939    
   4898000   1855.3315     -1063.905       25.660785     -1038.2442      44338.01     
   4899000   1910.9725     -1062.658       26.430347     -1036.2277      7334.8447    
   4900000   1858.3498     -1063.699       25.702531     -1037.9965      26187.552    
   4901000   1782.2277     -1060.6027      24.649698     -1035.953       22134.115    
   4902000   2145.1099     -1065.3209      29.668663     -1035.6522      25546.91     
   4903000   2103.3689     -1060.4918      29.09135      -1031.4005      26823.558    
   4904000   1826.1387     -1065.9049      25.257024     -1040.6479      32558.061    
   4905000   2109.7495     -1063.8085      29.179598     -1034.6289      33063.062    
   4906000   1834.7478     -1065.6717      25.376095     -1040.2956      22658.473    
   4907000   2005.0532     -1062.2087      27.731562     -1034.4772      9189.1144    
   4908000   2119.1571     -1059.7417      29.309714     -1030.432       39988.425    
   4909000   2031.2592     -1060.0698      28.094012     -1031.9757      26997.403    
   4910000   1912.2164     -1060.3865      26.44755      -1033.939       19860.713    
   4911000   1540.5966     -1061.3343      21.307739     -1040.0265      30308.575    
   4912000   1649.1605     -1059.4632      22.809268     -1036.6539      34158.545    
   4913000   1878.5918     -1062.9199      25.982494     -1036.9374      32069.921    
   4914000   1834.7091     -1061.5005      25.375559     -1036.125       20776.983    
   4915000   1977.0166     -1060.6773      27.343791     -1033.3335      39027.92     
   4916000   1937.7444     -1066.8925      26.800624     -1040.0919      29957.038    
   4917000   1992.8278     -1062.8654      27.562474     -1035.3029      31965.984    
   4918000   2044.5931     -1063.5338      28.278431     -1035.2554      22101.005    
   4919000   2049.1291     -1062.482       28.341168     -1034.1408      37389.83     
   4920000   2016.3149     -1060.1857      27.88732      -1032.2983      15066.076    
   4921000   1984.0929     -1063.8742      27.441663     -1036.4325      31493.594    
   4922000   1955.3684     -1061.8264      27.044378     -1034.782       21907.317    
   4923000   1880.1687     -1064.1915      26.004304     -1038.1872      8894.6401    
   4924000   2208.432      -1060.7247      30.54446      -1030.1803      24239.562    
   4925000   2025.074      -1062.1878      28.008465     -1034.1793      42484.084    
   4926000   1818.0112     -1067.5489      25.144614     -1042.4043      14193.928    
   4927000   2150.5066     -1064.4028      29.743303     -1034.6595      20280.065    
   4928000   1816.3225     -1063.6375      25.121258     -1038.5163      26712.82     
   4929000   2250.6358     -1060.4765      31.128173     -1029.3483      40811.7      
   4930000   1783.6186     -1063.6874      24.668936     -1039.0185      25122.717    
   4931000   2059.0101     -1060.2723      28.47783      -1031.7944      39202.761    
   4932000   1840.1306     -1063.6791      25.450543     -1038.2286      8679.5343    
   4933000   2147.7783     -1063.4378      29.705568     -1033.7322      38868.608    
   4934000   2079.9596     -1063.0236      28.767579     -1034.256       34494.487    
   4935000   1625.7301     -1065.6934      22.485206     -1043.2082      37085.956    
   4936000   2267.0147     -1063.66        31.354708     -1032.3053      31288.028    
   4937000   1627.7888     -1062.0992      22.51368      -1039.5855      20244.738    
   4938000   1805.0443     -1066.3494      24.965271     -1041.3841      22683.699    
   4939000   2050.6467     -1061.1203      28.362157     -1032.7581      20778.914    
   4940000   1985.0031     -1069.193       27.454251     -1041.7388      18702.418    
   4941000   1959.6532     -1064.9947      27.103641     -1037.891       24900.856    
   4942000   2197.2541     -1059.5856      30.389859     -1029.1958      31501.678    
   4943000   1800.3274     -1062.8564      24.900033     -1037.9563      39042.466    
   4944000   2169.6811     -1060.4433      30.008503     -1030.4348      29825.311    
   4945000   1917.384      -1065.2466      26.519023     -1038.7276      35685.392    
   4946000   2146.4292     -1063.9557      29.686909     -1034.2688      31741.568    
   4947000   2179.5569     -1064.6577      30.145094     -1034.5126      19359.023    
   4948000   2071.4671     -1059.9412      28.650121     -1031.2911      38919.201    
   4949000   2090.179      -1059.5787      28.908922     -1030.6697      43874.836    
   4950000   2064.3496     -1065.382       28.55168      -1036.8303      31360.821    
   4951000   2475.3153     -1060.0124      34.235679     -1025.7767      33182.249    
   4952000   1850.1791     -1063.4713      25.589523     -1037.8817      5677.4017    
   4953000   1972.2596     -1064.1103      27.277999     -1036.8323      33569.662    
   4954000   2171.3466     -1064.1207      30.031538     -1034.0891      57645.609    
   4955000   2415.4086     -1062.6113      33.40712      -1029.2042      33127.038    
   4956000   1690.2855     -1062.5345      23.37806      -1039.1564      18125.651    
   4957000   2165.0465     -1064.5329      29.944402     -1034.5885      12214.349    
   4958000   1929.1226     -1066.4012      26.681378     -1039.7199      20531.502    
   4959000   1998.1355     -1061.8214      27.635884     -1034.1855      23506.503    
   4960000   1667.4463     -1060.6543      23.062175     -1037.5921      19657.134    
   4961000   2000.8945     -1066.0091      27.674043     -1038.3351      27873.714    
   4962000   2233.5515     -1064.3472      30.891883     -1033.4554     -4393.8941    
   4963000   1854.6015     -1061.7054      25.650688     -1036.0547      19883.858    
   4964000   2085.6338     -1057.5098      28.846059     -1028.6637      39976.334    
   4965000   2015.8778     -1061.4918      27.881274     -1033.6106      16196.629    
   4966000   1907.9909     -1062.1522      26.389109     -1035.7631      15998.404    
   4967000   2395.5754     -1060.5431      33.132809     -1027.4103      32110.423    
   4968000   1728.6716     -1061.8923      23.908973     -1037.9833      34744.543    
   4969000   2218.2264     -1063.6073      30.679924     -1032.9273      23802.571    
   4970000   2097.7865     -1065.5222      29.01414      -1036.5081      10725.437    
   4971000   2225.996      -1066.3717      30.787384     -1035.5843     -218.96251    
   4972000   1883.0294     -1064.4366      26.043871     -1038.3927      3119.0108    
   4973000   1913.496      -1063.556       26.465249     -1037.0908      29251.258    
   4974000   2152.4119     -1062.6112      29.769655     -1032.8415      42323.306    
   4975000   1993.6051     -1065.0732      27.573224     -1037.5        -2890.9616    
   4976000   2349.1306     -1062.7964      32.490439     -1030.3059      35456.469    
   4977000   1643.2942     -1061.2173      22.728132     -1038.4892      24879.298    
   4978000   1797.1039     -1063.5592      24.855449     -1038.7038      16438.041    
   4979000   1931.5086     -1068.0207      26.714378     -1041.3063     -6899.523     
   4980000   2074.2373     -1063.2553      28.688435     -1034.5669      48300.534    
   4981000   1883.2304     -1066.6296      26.046649     -1040.583       15995.829    
   4982000   2238.7649     -1063.9248      30.96399      -1032.9609      27284.176    
   4983000   2370.9346     -1064.093       32.792006     -1031.301       33292.721    
   4984000   1732.4725     -1061.7736      23.961542     -1037.8121      14084.797    
   4985000   2025.2557     -1061.2582      28.010979     -1033.2473     -3122.961     
   4986000   2084.0363     -1064.1317      28.823964     -1035.3078      29008.334    
   4987000   1913.0522     -1062.2421      26.45911      -1035.783       4036.326     
   4988000   2117.8084     -1063.9363      29.29106      -1034.6452      32774.098    
   4989000   2221.8085     -1061.6619      30.729467     -1030.9324      39826.314    
   4990000   2215.0775     -1064.6264      30.636373     -1033.99        50572.134    
   4991000   1902.3009     -1064.333       26.31041      -1038.0226      29874.379    
   4992000   2240.1334     -1063.7923      30.982916     -1032.8094      15820.97     
   4993000   2098.8791     -1065.6735      29.029252     -1036.6442      3685.5626    
   4994000   2138.5514     -1067.2777      29.577952     -1037.6997      301.13843    
   4995000   2091.6481     -1068.9277      28.929241     -1039.9985      1966.7193    
   4996000   2042.5188     -1064.383       28.249741     -1036.1332      31645.216    
   4997000   1824.4537     -1066.053       25.233719     -1040.8193      32113.83     
   4998000   1917.6677     -1062.458       26.522946     -1035.935       53264.114    
   4999000   1931.5586     -1061.4599      26.715069     -1034.7448      37416.871    
   5000000   2112.6264     -1065.5012      29.219388     -1036.2818      17090.478    
Loop time of 7299.96 on 6 procs for 5000000 steps with 108 atoms

Performance: 59.178 ns/day, 0.406 hours/ns, 684.935 timesteps/s, 73.973 katom-step/s
98.9% CPU use with 6 MPI tasks x 1 OpenMP threads

MPI task timing breakdown:
Section |  min time  |  avg time  |  max time  |%varavg| %total
---------------------------------------------------------------
Pair    | 4329.9     | 4337.5     | 4344.7     |   7.1 | 59.42
Neigh   | 8.8275     | 8.8847     | 8.9641     |   1.7 |  0.12
Comm    | 2892.7     | 2900.8     | 2907.7     |   8.7 | 39.74
Output  | 0.58058    | 0.67248    | 0.78883    |   7.7 |  0.01
Modify  | 32.519     | 33.192     | 34.395     |  12.1 |  0.45
Other   |            | 18.88      |            |       |  0.26

Nlocal:             18 ave          20 max          17 min
Histogram: 2 0 0 3 0 0 0 0 0 1
Nghost:        627.667 ave         644 max         617 min
Histogram: 1 2 0 0 1 0 0 1 0 1
Neighs:              0 ave           0 max           0 min
Histogram: 6 0 0 0 0 0 0 0 0 0
FullNghs:         2184 ave        2421 max        2043 min
Histogram: 2 0 0 2 1 0 0 0 0 1

Total # of neighbors = 13104
Ave neighs/atom = 121.33333
Neighbor list builds = 101578
Dangerous builds = 0
Total wall time: 2:01:45
