ITEM: TIMESTEP
0
ITEM: NUMBER OF ATOMS
128
ITEM: BOX BOUNDS pp pp pp
0.0000000000000000e+00 1.4212108580510600e+01
0.0000000000000000e+00 1.4212108580510600e+01
0.0000000000000000e+00 1.4212108580510600e+01
ITEM: ATOMS id element x y z fx fy fz
   1 Hf    0.11348227000000001   14.20813487051059987    0.04902040000000001   -0.61856783004651217    0.47254608474764459    0.40116661939810189
   2 Hf    1.82531227000000107    1.79446915000000029    1.81292072999999965   -0.03692121561924723    0.03154636404867456    0.14889814878505298
   3 Hf   14.18596114051059942    0.00671096000000000    3.46632049000000109    0.17654675782289361   -0.03234333902464512    0.25418007517247582
   4 Hf    1.70951059000000072    1.83843288999999976    5.25293177000000089   -0.05877432843046318   -0.60076922230050389    0.23171804128484380
   5 Hf   14.10116033051060214    0.01135405000000000    7.06707332000000132    0.58738650637252776   -0.47767026816128899    0.52404317471885720
   6 Hf    1.80426840000000066    1.84651388999999977    8.85146892999999935   -0.28537952956101009   -0.14047307654369875    0.11367923378698999
   7 Hf   14.16841061051060180    0.06404260000000001   10.65282527000000101   -0.01680605715453568   -0.02289516568493682   -0.32303757603349370
   8 Hf    1.69047489000000040    1.87914063000000042   12.40726742999999921    0.60955857409235326   -0.30789405266437464   -0.29237206113323844
   9 Hf    0.09042170000000001    3.57438793999999982   14.09925449051060120   -0.77449987387626074    0.17558985732488727    0.74813992621612968
  10 Hf    1.83533607000000121    5.29059670000000004    1.80155104000000077   -0.42561045696120026   -0.05359625312262753    0.11805658240889907
  11 Hf   14.16484906051060122    3.49929969000000041    3.63534510000000033    0.08924972600076947    0.17370468568429204   -0.45844052657631090
  12 Hf    1.80242367000000003    5.43923688000000016    5.25603996000000073   -0.13853107025074185   -0.11985798944758826   -0.00332229722886661
  13 Hf    0.07074930000000000    3.52126307999999977    7.10680043000000072   -0.14686680550221454    0.24041931905816222   -0.07034593381618243
  14 Hf    1.72792094999999968    5.29190278999999908    8.95636992000000021   -0.06519142292094678    0.09915919677246499   -0.55546349033446174
  15 Hf   14.12592067051060241    3.62712766000000064   10.69633706000000117    0.22659645143589113   -0.57744890054209475    0.10909764435571286
  16 Hf    1.80555032999999954    5.25847449000000111   12.56901402000000090    0.20007307666827923    0.61576878998778872   -0.84297390622282253
  17 Hf   14.16813205051060187    7.09160625999999894   14.21180302051060274   -0.09344793678236613   -0.32178197185427931    0.34600356546001310
  18 Hf    1.84447445000000054    8.93489684999999945    1.73838675000000076   -0.25474122024612167   -0.07771253863754003   -0.33451420787687786
  19 Hf    0.03641569000000001    7.17362291999999968    3.45429989000000104   -0.12912298688232765   -0.20390977733218321    0.08585335219734386
  20 Hf    1.69796041000000031    8.65073995000000018    5.42099279000000056    0.78923375302418775    1.17453459349814104   -0.64071673967853515
  21 Hf   14.18167193051059982    7.13846358000000070    7.03124886000000160   -0.20533265297277176   -1.07546064815895348    0.75015480137607216
  22 Hf    1.63913933000000034    8.94644418000000030    8.97688794000000101    1.05819851833599143    0.10318267404005003   -1.08885429324256222
  23 Hf    0.15413884000000000    7.21666571000000090   10.65536071000000007   -0.83523664629539929   -0.82450111639069801    0.59078884687170607
  24 Hf    1.71340328000000031    8.86753855999999985   12.49876640999999999    0.66821910356960790   -0.09060261924550467    0.02760409838208611
  25 Hf    0.06775054000000000   10.66780199000000096   14.15762362051060030   -0.47739909244787421   -0.27506573805010515    0.74511600522703114
  26 Hf    1.83651283000000065   12.47027965999999921    1.68833739000000094    0.12099125292257143   -0.28975615584827463    0.64238190493838809
  27 Hf   14.13245113051060287   10.61190434000000060    3.42957651000000041    0.75528037372751045    0.07571684126257899    0.83532449016560351
  28 Hf    1.80552332999999954   12.28998059000000254    5.33047160999999914   -0.26184001603958940    0.57105088998692188   -0.40240980532790360
  29 Hf    0.03406927000000000   10.68544063000000222    7.02858551000000187    0.30619077972779801   -0.23392582302877785    0.31602776793138737
  30 Hf    1.79961251000000022   12.41840404000000042    8.97362625999999963   -0.18200977342562005    0.04836301935657233   -0.46562998545861678
  31 Hf    0.01529365000000000   10.59629376000000001   10.72130063000000000   -0.42846086797281324   -0.06146420070344880    0.30848755096849412
  32 Hf    1.62351595999999998   12.46083003000000033   12.54386143000000153    0.66226033987869992    0.20672011902756898   -1.03667985819977093
  33 Hf    3.55794596000000052   14.14799349051060240    0.01220536000000000    0.12407231735409784    0.36522516661651966   -0.17998912740372763
  34 Hf    5.36192158999999968    1.89066522999999997    1.80550484999999905   -0.32281592754542909   -0.61610494561953766   -0.27073411638240519
  35 Hf    3.52067753999999988    0.04714725000000000    3.65283025999999955    0.02520361540962179   -0.49041867294888902   -0.27093057585550412
  36 Hf    5.27717477999999929    1.78756207000000034    5.24124515000000191    0.55993320883857733   -0.01685664974187516    0.20497209653032844
  37 Hf    3.51016199999999934    0.02227322000000000    7.10687716999999974    0.11290913609723036   -0.27889778379873909   -0.27090954860077293
  38 Hf    5.44528128999999961    1.61908036000000033    8.87980360999999974   -0.67779674959514613    0.56101678124612431    0.00766636181360430
  39 Hf    3.54635882000000002    0.10746486000000001   10.63463660999999938   -0.04074701231232303   -0.22343294165320343    0.21356801675204046
  40 Hf    5.28504971000000090    1.76451854999999957   12.50368663999999974    0.00829322765420290    0.25880948931455722   -0.29368557066221734
  41 Hf    3.51632863999999978    3.57323676000000123    0.04292767000000001    0.40341248790088102   -0.01138195621733776   -0.21524687516226435
  42 Hf    5.37914949999999958    5.34374004000000102    1.69761932000000004   -0.37677850095488641   -0.05566530157350832    0.18579401352258684
  43 Hf    3.57726021000000038    3.56502074000000135    3.61794379000000044    0.04244226215577537    0.11782187323570519   -0.30427697097930506
  44 Hf    5.32090828000000027    5.26170631999999916    5.37711433000000216    0.57588709451444209    0.24468377595997742    0.01040918523048839
  45 Hf    3.52791008999999933    3.51422239999999908    6.94803554000000023   -0.00875598366634451    0.23979358171393705    0.86975132567869051
  46 Hf    5.48107022000000033    5.33199089000000104    8.86693454000000081   -0.67453075654010075   -0.09343697450804306   -0.07985008938264726
  47 Hf    3.48735299000000154    3.58189194000000066   10.56226002000000186    0.76677515105044369   -0.18821191922945302    0.55173465719461012
  48 Hf    5.49647329999999990    5.47277176999999959   12.46900199000000242   -1.09695498484713716   -0.31745495726631112   -0.23148970203016350
  49 Hf    3.53401560999999997    7.06728508000000044    0.11851477000000002    0.21334829148438150    0.05775695427570196   -0.42457821764032172
  50 Hf    5.37751937999999985    8.83808965000000235    1.80646700999999976   -0.26478977131801779    0.35482139775523147   -0.06112631148923561
  51 Hf    3.62716603000000104    7.12560447000000075    3.52239863000000009   -0.05937560712492388    0.14982986941788934    0.05485654514305553
  52 Hf    5.39879348000000014    8.90161634999999940    5.36615253000000170    0.06164448432043029   -0.17329885987499802   -0.43584346248714545
  53 Hf    3.65087608999999969    7.00857912000000116    7.07950606999999987   -0.34803126566078613    0.23242507771999621    0.47183781311212886
  54 Hf    5.28160185000000126    8.81115911999999923    8.92637668999999967    0.63016243826353846    0.15523375191679845   -0.31880453184773905
  55 Hf    3.55467006000000030    7.12834172000000077   10.66285191000000232   -0.30451900562803752   -0.29861656239769341    0.08641884344485688
  56 Hf    5.31358193999999884    8.95494018000000125   12.49736367000000214    0.12790981781469901   -0.57406878747337475   -0.42856331838476558
  57 Hf    3.53314440999999935   10.75815404000000086   14.11378921051060154   -0.20646245364795612   -0.27448856876734945    0.49923852954888964
  58 Hf    5.28290367999999955   12.37260126000000149    1.81275303000000032    0.36270438407531230    0.44510727877197098   -0.35865462540952930
  59 Hf    3.62368975000000049   10.62147620000000181    3.41623418000000045   -0.19628875541194707   -0.15412040687682924    1.04418366525786155
  60 Hf    5.46867300000000167   12.40237705000000012    5.40535521000000063   -0.78517937369316182    0.10547184483653907   -0.49463757219186677
  61 Hf    3.64235593000000080   10.69127469999999924    7.05933767000000056   -0.40556285852378637   -0.30680651445699370    0.55557334103304046
  62 Hf    5.36729661000000124   12.47317324000000127    8.90515800999999918    0.03091023791972747   -0.00838747630722285   -0.21904686046732721
  63 Hf    3.55718703000000014   10.64346517000000247   10.65170535000000207   -0.20672718053292738   -0.13475279354097838    0.26079814623234188
  64 Hf    5.30135953000000004   12.34327315000000169   12.43780641000000031    0.50745078703208757    0.41958181816637746   -0.06613121562224251
  65 Hf    7.10846609000000029    0.03985644000000001   14.15512939051060037   -0.33147355080258711   -0.26595889962744412    0.13502772610102717
  66 Hf    8.95597766999999934    1.66556817000000024    1.77368821000000043   -0.38808354897997721    0.58536931719838292   -0.24641104634749225
  67 Hf    7.16187518999999995   14.18797642051060137    3.58271907999999950   -0.33008297614560389    0.04155725471692484   -0.22209268075785113
  68 Hf    8.81564162000000096    1.83880098000000025    5.32027583999999898    0.02965498507254474    0.02626278596502892   -0.07490348787187021
  69 Hf    7.10008236000000093    0.01425190000000001    7.02321333000000081    0.23024576747171491    0.34255915764030603    0.19545388422651380
  70 Hf    8.97525212999999944    1.74540041999999951    8.86016105000000032   -0.29537964210830914   -0.24707745037227935    0.13725493521199053
  71 Hf    7.04843698000000174    0.00627891000000000   10.68364280000000122    0.39934620140715571   -0.22215251830515131    0.78413556596988232
  72 Hf    8.85724331000000120    1.87606087000000010   12.50845196000000037    0.17322071212284404   -0.40840331802931074   -0.11846915069693237
  73 Hf    7.04207422000000083    3.67697663000000041   14.13420349051060221    0.40709227187660180   -0.66890006204266395    0.45729761560885407
  74 Hf    8.88176346000000194    5.48067512000000079    1.74319328000000073    0.14589368487056370   -0.93468122181252855   -0.22385131959834875
  75 Hf    7.01600920999999911    3.60613922000000064    3.47203234000000016    0.51368605177437254    0.19984351525776395    0.11608364403648935
  76 Hf    8.79283260999999960    5.22464398999999968    5.38335629000000093    0.15745930560235621   -0.06506429407083655   -0.20290985139343112
  77 Hf    7.04526200000000102    3.48530075999999989    7.17774727000000023    0.23776346025016665   -0.26084243213723862   -0.10435582659872990
  78 Hf    8.86459948999999980    5.29505076999999957    8.92449642999999959    0.43984279212129984   -0.06851864872355407   -0.59005415525544458
  79 Hf    7.24056337000000116    3.53810300999999994   10.72712901000000052   -0.76196022353238368   -0.12458182611563531   -0.32546115379241003
  80 Hf    8.88969097000000197    5.27605771000000079   12.40935377000000095    0.28003863460744721    0.17352387580895740    0.29686792739647866
  81 Hf    7.10266470000000094    7.14194271000000125    0.06756010000000000    0.17183774726074447    0.31001045644344072   -0.02078094926106605
  82 Hf    9.00231767000000183    8.88706742000000105    1.71175184000000025   -0.35276766271814719   -0.24090093194810047    0.29050775987021127
  83 Hf    7.14590789000000104    7.02314084999999988    3.51648496999999916    0.01070025986861802    0.22938067419651817    0.38753734324595163
  84 Hf    8.89177304999999940    9.07978360999999978    5.24300319000000048   -0.19795869091082602   -1.28079389792768805   -0.34046615457965801
  85 Hf    7.23073001000000115    7.10004825000000128    7.14790184000000028   -0.41314930746672929    0.36810312295939185   -0.27350632778908107
  86 Hf    8.88800542000000071    8.78603638000000053    8.92288761000000186    0.05808782931306639    0.46900680014067703    0.21883195742189310
  87 Hf    7.16594554000000095    6.91711425999999996   10.58014170000000220   -0.02914517067541327    0.93698990307218388    0.15028910932216710
  88 Hf    8.80146504000000185    8.77023108999999934   12.43647332000000105    0.58260854034036802    0.46664289184538466   -0.26415039205880669
  89 Hf    7.15263447999999968   10.50888645000000032    0.02604511000000000    0.01649607007873546    0.43064358523208934   -0.07712599726200256
  90 Hf    8.88300274999999928   12.47280373000000075    1.74682164000000073    0.06173746236524348    0.53973073368299240   -0.26904726945687352
  91 Hf    7.15868599000000039   10.77184173000000200    3.54363010000000100   -0.16646714159174766   -0.16671721490303909   -0.12183297661583632
  92 Hf    8.88393364999999946   12.53332456999999955    5.32580293000000005    0.00089700124926544   -0.37544909675279048    0.06739678656797374
  93 Hf    7.16859183000000044   10.59438650000000237    6.98673227000000008   -0.07347217668208515    0.11325646109461635    0.93562655250905435
  94 Hf    8.77859776000000203   12.46146389000000099    8.91600185000000067    0.26202094811685717   -0.05719761671820612   -0.03038247265069660
  95 Hf    7.17356180999999982   10.70159980000000211   10.78047416000000069   -0.48560142406320922   -0.29194839976182640   -0.52589972455526124
  96 Hf    8.86835291000000048   12.31076436999999935   12.45243351000000231    0.20891264242606575    0.65532985968857749    0.04766005052277018
  97 Hf   10.78646172000000014    0.09206320000000000   14.20950776051060238   -0.71664084282079998   -0.71410521574818420   -0.22432428983115330
  98 Hf   12.40385653000000232    1.82912680000000050    1.69041946000000065    0.35828515948393919    0.25299216495988663    0.28843415024712504
  99 Hf   10.64787661000000263    0.09817156000000000    3.54196870000000130    0.34724495104599234   -0.29511561163233518    0.29702985821979233
 100 Hf   12.51865057000000014    1.80081628000000071    5.36475548000000124   -0.31883120458221798   -0.14047872633590081    0.29922028698574782
 101 Hf   10.63578210000000190   14.14090876051060164    7.14744989999999980    0.34613752449672408   -0.05815963693448507   -0.17376781585617437
 102 Hf   12.29390313000000212    1.73287671000000043    8.82663185000000183    0.34735863859389160    0.32662025583200593   -0.15466123182382013
 103 Hf   10.72617396000000234   14.20811640051060287   10.70309065000000004   -0.14389410834941491   -0.42732932198388263    0.05464379450290516
 104 Hf   12.45341982999999964    1.77388860000000004   12.49746032000000184    0.59050700568530323   -0.04266232154632466   -0.17123068160241067
 105 Hf   10.70119191000000214    3.48509469000000083   14.13122036051060171   -0.37510169858384190    0.35090052221539619    0.52315857794627474
 106 Hf   12.37301199000000018    5.24391987000000004    1.93153215000000023    0.34525540593265536   -0.00713308227930971   -0.58774040093945512
 107 Hf   10.72099507000000074    3.56325843999999980    3.68346018999999991   -0.49159259755942070   -0.44508747443728586   -0.27023748836874162
 108 Hf   12.44100272000000196    5.24925510000000095    5.28547180999999977    0.08126901286127922    0.63385775331785910    0.07736537380493652
 109 Hf   10.59854354000000143    3.52594171000000056    7.07118346000000031    0.22589504554150758    0.20218793022489312   -0.06992571340027748
 110 Hf   12.46869785000000164    5.27409927999999972    8.95357440000000082    0.11318044578306929    0.60929641005214175   -0.40447812828562169
 111 Hf   10.72494035000000245    3.51829843999999969   10.63194625999999943   -0.40654489364613411   -0.18546654047466110    0.14408849951937894
 112 Hf   12.28378694999999965    5.27631779000000023   12.38475545000000011    0.70809577116852196    0.46576253236634541   -0.17429268859620931
 113 Hf   10.68151098999999959    7.05674254000000012   14.15856730051060097    0.31592815738478069    0.02782334749593036    0.38058612680201620
 114 Hf   12.48962943999999986    8.92754208000000027    1.81799302999999979   -0.78474744506713290   -0.04058488139690741   -0.75139531202195964
 115 Hf   10.57857837000000245    7.08938916999999957    3.40152607000000051    0.24495285727918478    0.10388634896357293    1.07704294565277903
 116 Hf   12.46038945000000098    8.83171693999999974    5.38191802000000052   -0.12778847012295444    0.45155802573955683   -0.76589555576680712
 117 Hf   10.71875239000000057    7.17563820000000074    7.07207314000000054   -0.52381469561564009   -0.56341123838566054    0.06995517492320505
 118 Hf   12.54418689000000064    8.82773612999999990    8.72566192000000029   -0.25150018795999707    0.57909837863442071    0.49381733928078891
 119 Hf   10.63412639000000048    7.06336538000000047   10.67428980999999943    0.03545883187466256    0.28821288911223958   -0.15370271904102539
 120 Hf   12.38529836000000017    8.87920244000000203   12.49838695000000044    0.14662052777475701    0.06317734582426368    0.01347248066390151
 121 Hf   10.62413244000000034   10.75680674000000003    0.06263418000000001    0.27033033220237790   -0.29312637512069700   -0.26886298069550207
 122 Hf   12.39079702000000083   12.43346746000000103    1.85413442000000028   -0.02738797572136310    0.07650727834218027   -0.35710949644405787
 123 Hf   10.58162543999999983   10.74737416000000145    3.55868071999999991    0.51519087762550453   -0.12862925706906117   -0.07892163631838175
 124 Hf   12.46624484000000166   12.33546785999999962    5.36220299000000100   -0.17741286516348104    0.44788582284163930   -0.58601802958276661
 125 Hf   10.57776117000000049   10.60848207000000265    6.97258554000000075    0.19657496871202257    0.25311128583594011    0.95488287133128436
 126 Hf   12.46737755000000014   12.25557165000000204    8.95181778000000250    0.31381608860909549    0.80866284890726559   -0.77258539384398284
 127 Hf   10.78990674000000105   10.69694107000000116   10.57291200000000053   -0.74337564523184019   -0.52069925785543192    0.57301803040279486
 128 Hf   12.58343505000000029   12.45147846000000236   12.50113557000000242   -0.36825800922364882    0.01907506809043577   -0.34410086634493708
ITEM: TIMESTEP
100
ITEM: NUMBER OF ATOMS
128
ITEM: BOX BOUNDS pp pp pp
0.0000000000000000e+00 1.4212108580510600e+01
0.0000000000000000e+00 1.4212108580510600e+01
0.0000000000000000e+00 1.4212108580510600e+01
ITEM: ATOMS id element x y z fx fy fz
   1 Hf   14.20008614798116042    0.21952373548913079    0.02506786119908658   -0.66931228671810850   -0.81429912347799915   -0.09326578130116714
   2 Hf    1.73185811471115003    1.54382814993989270    1.75459322602325152    1.26962146143756360    0.82450602221119074    0.28695191538341802
   3 Hf   14.19631478663212576    0.04569048046253139    3.48347774700814972   -0.62410502713787519   -0.29882610160808842    0.42733338895571993
   4 Hf    1.70297262492106261    1.79975590605563229    5.22555242183848900   -0.08379214757792947    0.90994881274865680    0.15159735298821791
   5 Hf    0.04017264551889355   14.15624363472134384    6.81762279029282858   -0.44304967780402321   -0.26496768390646086    0.19565188793494331
   6 Hf    1.61052658213389699    1.66802756101930094    8.77969171399078263   -0.00356846224926091   -0.06416065938028773   -0.14453799928340128
   7 Hf   14.06295963931553139    0.24326870902025818   10.69791038859344567    0.47630347942062762   -0.40908781017403922    0.37652148728599760
   8 Hf    1.71881509867350268    1.90409001491246355   12.43573587843235373    0.21358153835789800   -0.50673729403264467    0.08901357486772812
   9 Hf    0.02977467356778172    3.59178579420123434   14.20105997543684673    0.21626052910449989    0.22498061911176837    0.91989339608595788
  10 Hf    1.96896065357118366    5.39187219047496491    1.69978865464389362   -0.99788433789864872    0.46770671393969609    0.44850669065960375
  11 Hf   14.19680118491823784    3.49013456085814155    3.42664141232293495    0.45057607386742327   -0.08866944753256753    0.06732332601958890
  12 Hf    1.81191056615957913    5.20396075846382722    5.20524617121641597   -0.08907881658297037    0.37057118370094078    0.60093024503575942
  13 Hf   14.16104934646078561    3.66711112802444772    7.04725031041093075    0.04546225678597118    0.09821046147988213    0.25667444916631166
  14 Hf    1.87285996331507087    5.45907532483264557    8.73994547938827893   -0.52368451934707050   -0.91386803089244550    0.79802606076456994
  15 Hf    0.06933955433079930    3.35176440037789636   10.50659892874222123   -0.01047867964513338    1.17148143602955623    0.07251919910648336
  16 Hf    1.99136510394053445    5.26954292236138588   12.40996338411131994   -1.62583085019810936   -0.64657646982388295    0.42020477390886479
  17 Hf    0.03165439375835253    7.15546166178169063   14.16825211344071533   -0.34734388906491576    0.04879463515531163   -0.14420373778089224
  18 Hf    1.85476061875995568    8.80876832547536281    1.72231977451922358    0.49638057551720305   -0.52468818656012961    0.22249534146335900
  19 Hf   14.15443247972202734    7.29502235012697309    3.58604628445620710    0.23598657780474577   -0.02917016081465350   -0.34711803559963195
  20 Hf    1.88107485644474992    8.83626034996984799    5.36002737522464923   -0.18917057109719509    0.13542806884898700    0.32698558877687656
  21 Hf   14.16358624661125276    6.98104574248120802    7.24358061040188961    0.03780934397091243    0.47538036710097653   -0.93894883890459047
  22 Hf    1.89480766771348708    8.94311191629627622    8.78611849013126189   -0.69943613291124684   -0.31563506556402965    0.17797344827000311
  23 Hf    0.14480447302456698    7.25594200149370572   10.86507701229284173   -0.10785766083082378    0.17204474427173361   -0.62909563174753003
  24 Hf    2.00767664146987501    8.80508661748868526   12.63611503562810512   -0.60847606875070315   -0.43736131084356022    0.33939272183327757
  25 Hf    0.11156430650641740   10.59479539316816243    0.17227898351425755    0.18779044868294242    0.53282722873832655   -0.80810320455817897
  26 Hf    1.84069891208409442   12.61817054354874124    1.74928103341571761    0.17104819115224118    0.03676445377537929    0.04151862380629838
  27 Hf    0.13440628522049042   10.72622798668540689    3.58509484397419209   -0.53964408115963780   -0.86214117618353359   -0.70463189148271277
  28 Hf    1.82283408450303974   12.37207357036275468    5.24629893182401119    0.42458748835865801   -0.03569097415279690    0.33005868460002047
  29 Hf    0.06776118033728810   10.74622557693674096    7.03928937412543210   -0.21662371489191562    0.09595125840327826   -0.19626407683994843
  30 Hf    1.67481119476207585   12.49868055982508253    8.74472683071301127   -0.26248794567975708   -0.20303278420860410    0.94388415584624619
  31 Hf    0.06196834115669961   10.47592694980959749   10.90172152557101981    0.24866913116903655    0.24530908831098774   -0.42518695732385237
  32 Hf    1.76965741556331624   12.61797061262370789   12.46888702017101025   -0.75996725031932066   -0.11456583539406215    0.01518381978350634
  33 Hf    3.67295422903049973    0.09913061573959925   14.01021036680908516   -0.14757211503636736   -0.69328498880520906   -0.29104745250646696
  34 Hf    5.18758328165159810    1.70626368994180111    1.60571511894747720    0.31908680729351480   -0.05138301070321555    0.87389794530638754
  35 Hf    3.52399187818909843    0.00789003990174593    3.78431904451278811    0.18620156915375577    0.29500741786465035   -0.94796058899183189
  36 Hf    5.37874972750276470    1.80346144884981086    5.33337349536764549   -0.09620507173030801   -0.83261668463427607    0.30849911259674606
  37 Hf    3.35999385785459648    0.08001259602470742    7.12670995147365360    0.48868999249213685   -0.07933976163201048   -0.33981906351379410
  38 Hf    5.37405225326754099    1.66323488265326858    8.89248048382119372    0.23879785483688665   -0.12224304553987406    0.24669484401309158
  39 Hf    3.42458994455761045    0.04041673401638585   10.59411678120295264    0.47328549680674881    0.12242612686446190    0.15567927213320737
  40 Hf    5.32533034402587724    1.96480619668462553   12.41662755171180166   -0.27307955918893317   -0.49806105344344509   -0.05899924771149597
  41 Hf    3.51093497411051736    3.50996376425595047    0.09123751864798944   -0.02864081633266877    0.11362219859192846   -0.31269383594295241
  42 Hf    5.23791524745769088    5.30458920255147071    1.83351721004427137    0.62561841131861362   -0.07030091314704827   -0.45110056790679337
  43 Hf    3.63476084463661930    3.51175090322332650    3.43858155727941250   -0.31528571066547428   -0.16734024437646358    0.28425004661609954
  44 Hf    5.29387541386474592    5.38934723519861780    5.43120331929565836    0.26147916571494406   -0.57296831107527035    0.23975730246751870
  45 Hf    3.53577708025460780    3.35120014961849799    7.14859978844025701    0.12865892260255635    0.54821775987862886    0.07945511879467800
  46 Hf    5.57303789225677626    5.23483153091078002    8.80522741676020892   -0.58208743810991737    0.39664266334832343    0.21780223708921836
  47 Hf    3.55927690075595038    3.50194403231307394   10.72459658226408585   -0.14698386019740328    0.09887234210214306   -1.60930815701743568
  48 Hf    5.40344064461294060    5.22497395358645189   12.29231911419594603    0.13224007945354016   -0.02262756863392267    0.34511665730027768
  49 Hf    3.68217586702620103    6.90973827255245521   14.02565512201761777    0.31968362292679081   -0.44427313038111022    0.87639808175299294
  50 Hf    5.18328957328878204    8.80578827967500466    1.71267587608895133    0.40224948442756459    0.49329029713541384   -0.00173314256805763
  51 Hf    3.63859453340748473    6.97595810871228661    3.56999306446646303   -0.37548259019600461    0.51639278675150280    0.30771029567983915
  52 Hf    5.37764340327192336    8.79475653232375798    5.22657565239231392   -0.22779587024471368    0.00924190414958312    0.57015854067704463
  53 Hf    3.63525896367458135    7.15122622223606186    7.29281525113379914    0.50956313778046292    0.18086255828756689   -0.69394315643497806
  54 Hf    5.43047518885132074    8.96922442625827543    8.94029978045734630   -0.87786327023410482   -0.75138145040577586   -0.65512060760684232
  55 Hf    3.47226419559253019    6.94409663023726598   10.74291055375444870    0.97594969179460023    1.02354555310304907   -0.98253458951840400
  56 Hf    5.13017952740544381    8.88661394623235878   12.67810414486071124    0.66323186836552417    0.56296474962207910   -0.55746211826453851
  57 Hf    3.35742281553552102   10.78994698626186199   14.17008938946571384    0.36756312138537689    0.56806336004822866    0.43059616856101957
  58 Hf    5.38278549568890430   12.42695302791615042    1.74313711807216953   -0.31307655413138896    0.07385250076503241   -0.02594389634640216
  59 Hf    3.62392180199246816   10.63650638965176043    3.52925269398652830   -0.06018786900110415    0.39647026117390843    0.09231431834637828
  60 Hf    5.29409901616353107   12.71045231143093268    5.39645016136594080    0.27624610660153959   -0.56858142923581845    0.21991187219219516
  61 Hf    3.65682356581370716   10.75339085003744088    7.09432608494627637    0.26516098110876274   -0.28810068800317995   -0.13226016545630348
  62 Hf    5.46462141392815415   12.53892820078443471    8.93748290896534137   -0.30744486870828536    0.02893118605075292    0.13472494128789059
  63 Hf    3.35629381558124207   10.54285135161371656   10.82893573862090975    0.73006598381081034    0.93127441176753478   -0.62240405612914806
  64 Hf    5.34414536085170777   12.35737413984669075   12.28819830440057359   -0.19527748787563415   -0.32373682614299676    0.28948979791643353
  65 Hf    7.00355568142077889   14.19628869125604176   14.19866675096990605    0.50545101859758668    0.32658307804076558   -0.57743852487554370
  66 Hf    9.10180292967389626    1.74040196340864939    1.78576959951885317   -0.59946622045341391   -0.92037121137042843   -0.37624277189552613
  67 Hf    7.10607843824683005    0.05077845399868058    3.47754052152530413   -0.01939342200701977   -0.07115530152768890   -0.22171582385547320
  68 Hf    8.85205195595203165    1.80002137197057599    5.32367149821687136    0.37537818426221492    0.02509545463356280   -0.40976814522829791
  69 Hf    7.34944417739204248   14.14957664185755704    7.11331938523354079   -0.36309327959331295    0.49324810406132430   -0.04859625494384863
  70 Hf    9.00596067548607415    1.70654245740908239    8.98548974823955149   -0.21399069125086650   -0.46007072173913460    0.12360044716161186
  71 Hf    7.17678246060452896    0.09115662136523166   10.95242417790746359   -0.12847769608793583    0.19872735144538023   -0.53131993337984151
  72 Hf    9.07379990163870787    1.82622763290969070   12.47383045095388887   -0.18614312945642392    0.44072390744520507    0.08704371858649759
  73 Hf    7.11695031713844628    3.38746113431281248   14.11017204590403296   -0.08323836965036797   -0.08263226747939598    0.84506534952898016
  74 Hf    8.89119063104969598    5.31864429689516971    1.55463398894344862   -0.81527318551149897    0.07846006146768345    0.97456688736400909