12
Lattice="5.136475506554316 0.0 0.0 0.0 5.19341333754447 0.0 -0.883442968274303 0.0 5.246159804521277" Properties=species:S:1:pos:R:3:forces:R:3 energy=-108.79896407873869 pbc="T T T"
Hf       0.79296806       2.37891959       3.71379301      -0.08135566       1.34178603       0.20357703
Hf       3.01834094       4.97562678       4.15544259       0.08136974       1.34178358      -0.20356267
Hf       3.46006345       2.81449477       1.53236422       0.08135455      -1.34178633      -0.20357740
Hf       1.23469006       0.21778759       1.09071465      -0.08136854      -1.34178362       0.20356266
O        1.43661056       3.85624494       5.13377423       0.90067890      -0.35913949       1.52763698
O        2.37469844       1.25953776       2.73546188      -0.90066681      -0.35913177      -1.52762215
O        2.81642044       1.33716942       0.11238300      -0.90067818       0.35913956      -1.52763698
O        1.87833256       3.93387661       2.51069536       0.90066665       0.35913175       1.52762203
O        0.04523848       1.71776788       1.81649659       0.39103021       0.53682079      -1.07784699
O        4.64951503       4.31447506       0.80658229      -0.39103968       0.53681707       1.07784949
O        4.20779252       3.47564649       3.42966065      -0.39103064      -0.53682103       1.07784735
O       -0.39648403       0.87893931       4.43957495       0.39103946      -0.53681654      -1.07784935
