LAMMPS (27 Jun 2024)
OMP_NUM_THREADS environment is not set. Defaulting to 1 thread. (src/comm.cpp:98)
  using 1 OpenMP thread(s) per MPI task
Reading data file ...
  orthogonal box = (0 0 0) to (44.844435 44.38448 40.643788)
  5 by 2 by 2 MPI processor grid
  reading atoms ...
  3584 atoms
  read_data CPU = 0.021 seconds
**************** Begin of POD Potentials ****************
species: Hf 
periodic boundary conditions: 1 1 1
number of environment clusters: 8
number of principal compoments: 2
inner cut-off radius: 1
outer cut-off radius: 5
cut-off function type: 1
gaussian_exponents: 
polynomial_degrees: 
bessel polynomial degree: 4
inverse polynomial degree: 10
one-body potential: 1
two-body radial basis functions: 8
three-body radial basis functions: 8
three-body angular degree: 6
four-body radial basis functions: 7
four-body angular degree: 5
five-body radial basis functions: 0
five-body angular degree: 0
six-body radial basis functions: 0
six-body angular degree: 0
seven-body radial basis functions: 0
seven-body angular degree: 0
number of local descriptors per element for one-body potential: 1
number of local descriptors per element for two-body potential: 8
number of local descriptors per element for three-body potential: 56
number of local descriptors per element for four-body potential: 112
number of local descriptors per element for five-body potential: 0
number of local descriptors per element for six-body potential: 0
number of local descriptors per element for seven-body potential: 0
number of local descriptors per element for all potentials: 177
number of global descriptors: 1409
**************** End of POD Potentials ****************

**************** Begin of Model Coefficients ****************
total number of coefficients for POD potential: 1409
total number of elements for PCA projection matrix: 352
total number of elements for PCA centroids: 16
**************** End of Model Coefficients ****************


CITE-CITE-CITE-CITE-CITE-CITE-CITE-CITE-CITE-CITE-CITE-CITE-CITE

Your simulation uses code contributions which should be cited:
- Type Label Framework: https://doi.org/10.1021/acs.jpcb.3c08419
The log file lists these citations in BibTeX format.

CITE-CITE-CITE-CITE-CITE-CITE-CITE-CITE-CITE-CITE-CITE-CITE-CITE

Neighbor list info ...
  update: every = 1 steps, delay = 0 steps, check = no
  max neighbors/atom: 2000, page size: 100000
  master list distance cutoff = 7
  ghost atom cutoff = 7
  binsize = 3.5, bins = 13 13 12
  1 neighbor lists, perpetual/occasional/extra = 1 0 0
  (1) pair pod, perpetual
      attributes: full, newton on
      pair build: full/bin/atomonly
      stencil: full/bin/3d
      bin: standard
Setting up Verlet run ...
  Unit style    : metal
  Current step  : 0
  Time step     : 0.001
Per MPI rank memory allocation (min/avg/max) = 2.609 | 2.609 | 2.613 Mbytes
   Step          Temp          TotEng         PotEng         KinEng         Press          Volume    
         0   300           -26111.045     -26249.986      138.94173      1834.5017      80897.271    
       100   92.805663     -26105.75      -26148.731      42.981931      3793.0049      80897.271    
       200   150.86049     -26088.276     -26158.145      69.869391      4300.2115      80897.271    
       300   189.10652     -26067.423     -26155.006      87.582625      4442.2458      80897.271    
       400   242.49283     -26045.742     -26158.05       112.30791      4248.093       80897.271    
       500   273.34539     -26022.264     -26148.861      126.59694      5035.0398      80897.271    
       600   252.48814     -26000.164     -26117.101      116.93713      6203.9113      80897.271    
       700   267.83931     -25979.993     -26104.04       124.04686      7057.5108      80897.271    
       800   298.33773     -25965.251     -26103.423      138.17187      7122.1505      80897.271    
       900   328.81329     -25957.579     -26109.865      152.28629      6879.0564      80897.271    
      1000   319.48173     -25962.352     -26110.317      147.96448      6855.2338      80897.271    
      1100   298.01767     -25972.342     -26110.365      138.02364      6776.5259      80897.271    
      1200   283.22732     -25979.187     -26110.361      131.17365      6804.3959      80897.271    
      1300   281.34242     -25979.661     -26109.962      130.30068      6712.8758      80897.271    
      1400   307.63901     -25972.189     -26114.669      142.47965      6718.5624      80897.271    
      1500   308.175       -25967.171     -26109.899      142.72789      6740.5174      80897.271    
      1600   312.62794     -25963.715     -26108.505      144.79022      6938.8886      80897.271    
      1700   301.5466      -25965.631     -26105.289      139.65802      7095.016       80897.271    
      1800   280.71938     -25973.079     -26103.091      130.01212      7035.4417      80897.271    
      1900   304.95042     -25975.186     -26116.42       141.23446      6568.7413      80897.271    
      2000   293.60791     -25977.138     -26113.119      135.9813       6589.7136      80897.271    
      2100   308.09062     -25971.167     -26113.856      142.68881      6703.912       80897.271    
      2200   299.48343     -25966.993     -26105.696      138.70248      6945.9289      80897.271    
      2300   301.32478     -25965.309     -26104.865      139.55529      7081.8919      80897.271    
      2400   302.5883      -25968.511     -26108.651      140.14047      6898.1356      80897.271    
      2500   293.54755     -25974.258     -26110.212      135.95335      6648.6485      80897.271    
      2600   309.57042     -25974.166     -26117.54       143.37417      6572.6224      80897.271    
      2700   286.27002     -25974.96      -26107.543      132.58284      6826.9503      80897.271    
      2800   297.88515     -25970.561     -26108.523      137.96226      6902.0514      80897.271    
      2900   309.02352     -25967.388     -26110.509      143.12088      6833.8299      80897.271    
      3000   296.37742     -25967.552     -26104.816      137.26397      6950.6224      80897.271    
      3100   310.54915     -25967.597     -26111.425      143.82745      6810.487       80897.271    
      3200   294.80006     -25972.301     -26108.834      136.53343      6767.3538      80897.271    
      3300   299.21088     -25973.503     -26112.079      138.57626      6737.7441      80897.271    
      3400   295.9581      -25974.638     -26111.708      137.06977      6742.4973      80897.271    
      3500   302.45787     -25971.608     -26111.688      140.08006      6759.3246      80897.271    
      3600   301.58909     -25968.256     -26107.934      139.6777       6949.0223      80897.271    
      3700   302.52236     -25967.683     -26107.793      140.10993      6903.2768      80897.271    
      3800   305.37552     -25968.874     -26110.305      141.43134      6782.7749      80897.271    
      3900   296.84102     -25971.838     -26109.316      137.47868      6839.2741      80897.271    
      4000   299.4285      -25973.909     -26112.586      138.67704      6696.6592      80897.271    
      4100   299.95552     -25974.757     -26113.678      138.92113      6682.0587      80897.271    
      4200   294.11166     -25972.814     -26109.028      136.21461      6724.0993      80897.271    
      4300   299.83824     -25967.611     -26106.478      138.86681      6959.1481      80897.271    
      4400   302.12528     -25965.717     -26105.643      139.92603      6908.1504      80897.271    
      4500   308.65233     -25967.799     -26110.748      142.94896      6763.5093      80897.271    
      4600   298.62763     -25972.579     -26110.885      138.30613      6681.2596      80897.271    
      4700   294.37317     -25976.173     -26112.509      136.33573      6697.1605      80897.271    
      4800   298.31884     -25975.087     -26113.25       138.16312      6654.2421      80897.271    
      4900   293.10384     -25971.163     -26106.911      135.74785      6801.8054      80897.271    
      5000   307.25367     -25965.79      -26108.091      142.30119      6888.1298      80897.271    
      5100   304.86856     -25965.885     -26107.081      141.19655      6919.9223      80897.271    
      5200   303.16172     -25970.085     -26110.491      140.40604      6820.0224      80897.271    
      5300   293.9611      -25975.373     -26111.518      136.14488      6727.0972      80897.271    
      5400   295.85886     -25975.886     -26112.91       137.0238       6584.7261      80897.271    
      5500   297.0364      -25971.99      -26109.56       137.56917      6874.9393      80897.271    
      5600   302.39809     -25967.537     -26107.59       140.05238      6928.9619      80897.271    
      5700   307.01741     -25966.79      -26108.982      142.19177      6896.8945      80897.271    
      5800   303.16213     -25969.935     -26110.341      140.40624      6808.8503      80897.271    
      5900   291.83302     -25973.122     -26108.282      135.15928      6776.7368      80897.271    
      6000   301.5778      -25972.481     -26112.154      139.67247      6794.7575      80897.271    
      6100   297.05163     -25972.534     -26110.111      137.57622      6807.6656      80897.271    
      6200   301.92316     -25971.152     -26110.984      139.83242      6716.6951      80897.271    
      6300   302.16614     -25969.768     -26109.713      139.94495      6871.3758      80897.271    
      6400   305.39653     -25968.049     -26109.49       141.44107      6868.2341      80897.271    
      6500   299.99107     -25969.07      -26108.008      138.93759      6847.9728      80897.271    
      6600   292.27995     -25972.591     -26107.957      135.36627      6916.6799      80897.271    
      6700   305.9092      -25972.866     -26114.545      141.67851      6540.8075      80897.271    
      6800   300.18027     -25972.659     -26111.685      139.02522      6760.5085      80897.271    
      6900   293.37301     -25970.254     -26106.127      135.87251      6903.2211      80897.271    
      7000   303.2578      -25968.095     -26108.546      140.45055      6863.2898      80897.271    
      7100   301.65012     -25970.377     -26110.083      139.70597      6764.6531      80897.271    
      7200   304.59413     -25972.115     -26113.184      141.06945      6672.3316      80897.271    
      7300   291.00289     -25974.145     -26108.92       134.77481      6753.6133      80897.271    
      7400   301.62239     -25972.007     -26111.7        139.69312      6850.8184      80897.271    
      7500   301.81808     -25968.118     -26107.902      139.78376      6909.0039      80897.271    
      7600   303.78243     -25966.804     -26107.497      140.69352      6943.2849      80897.271    
      7700   299.73058     -25968.785     -26107.602      138.81695      6849.7896      80897.271    
      7800   299.13525     -25974.207     -26112.748      138.54123      6663.6514      80897.271    
      7900   293.52289     -25975.805     -26111.747      135.94193      6691.3958      80897.271    
      8000   299.10077     -25972.458     -26110.983      138.52526      6738.5838      80897.271    
      8100   298.86304     -25970.55      -26108.965      138.41516      6887.0153      80897.271    
      8200   299.21944     -25969.836     -26108.416      138.58022      6864.6271      80897.271    
      8300   312.81978     -25967.766     -26112.646      144.87907      6817.1748      80897.271    
      8400   293.13384     -25970.248     -26106.01       135.76174      6965.7595      80897.271    
      8500   293.19145     -25974.015     -26109.803      135.78842      6731.8012      80897.271    
      8600   300.81818     -25974.227     -26113.548      139.32066      6659.4448      80897.271    
      8700   298.11439     -25971.656     -26109.725      138.06843      6794.7051      80897.271    
      8800   301.9616      -25969.777     -26109.627      139.85022      6825.8795      80897.271    
      8900   298.81146     -25970.722     -26109.114      138.39127      6839.8764      80897.271    
      9000   304.94296     -25970.088     -26111.319      141.23101      6763.0909      80897.271    
      9100   296.34707     -25970.213     -26107.463      137.24992      6834.234       80897.271    
      9200   302.71434     -25970.037     -26110.236      140.19885      6847.8265      80897.271    
      9300   297.11922     -25972.079     -26109.686      137.60753      6823.473       80897.271    
      9400   299.39839     -25973.316     -26111.979      138.6631       6752.1931      80897.271    
      9500   291.87948     -25973.758     -26108.939      135.1808       6812.7844      80897.271    
      9600   305.71346     -25970.365     -26111.953      141.58786      6782.4094      80897.271    
      9700   299.21548     -25968.188     -26106.766      138.57839      6864.5183      80897.271    
      9800   302.07878     -25966.031     -26105.936      139.90449      6946.5169      80897.271    
      9900   309.15414     -25967.314     -26110.495      143.18137      6817.0345      80897.271    
     10000   293.26781     -25973.531     -26109.355      135.82379      6782.1269      80897.271    
     10100   298.48235     -25973.524     -26111.763      138.23884      6719.8149      80897.271    
     10200   304.56003     -25971.462     -26112.515      141.05366      6703.5411      80897.271    
     10300   301.22453     -25968.99      -26108.499      139.50886      6879.8187      80897.271    
     10400   297.71383     -25967.759     -26105.642      137.88291      6933.3838      80897.271    
     10500   312.30504     -25966.37      -26111.01       144.64067      6854.9349      80897.271    
     10600   299.09942     -25969.489     -26108.014      138.52463      6911.2134      80897.271    
     10700   294.5788      -25973.663     -26110.094      136.43096      6680.6438      80897.271    
     10800   298.96998     -25973.42      -26111.885      138.46469      6733.1754      80897.271    
     10900   307.17027     -25970.59      -26112.853      142.26256      6651.0929      80897.271    
     11000   297.45147     -25968.327     -26106.089      137.7614       6844.7894      80897.271    
     11100   302.57977     -25966.647     -26106.783      140.13652      6937.2426      80897.271    
     11200   305.67459     -25967.783     -26109.352      141.56985      6863.4983      80897.271    
     11300   299.09747     -25969.714     -26108.238      138.52373      6841.7255      80897.271    
     11400   304.36042     -25971.663     -26112.624      140.96121      6678.574       80897.271    
     11500   296.50671     -25973.367     -26110.69       137.32385      6698.2735      80897.271    
     11600   298.86975     -25971.801     -26110.219      138.41827      6794.8258      80897.271    
     11700   303.70064     -25967.189     -26107.845      140.65564      6878.122       80897.271    
     11800   308.45522     -25965.279     -26108.137      142.85767      6949.6662      80897.271    
     11900   304.47807     -25968.547     -26109.563      141.0157       6880.9012      80897.271    
     12000   299.61854     -25970.707     -26109.472      138.76506      6871.536       80897.271    
     12100   293.34925     -25972.535     -26108.396      135.86151      6808.4421      80897.271    
     12200   296.47992     -25971.381     -26108.693      137.31145      6866.8971      80897.271    
     12300   308.01522     -25968.092     -26110.746      142.65389      6706.9816      80897.271    
     12400   303.95478     -25968.665     -26109.438      140.77334      6877.7333      80897.271    
     12500   303.73644     -25969.111     -26109.784      140.67222      6797.3091      80897.271    
     12600   292.70549     -25972.203     -26107.766      135.56336      6874.8991      80897.271    
     12700   302.66048     -25972.149     -26112.323      140.1739       6755.1615      80897.271    
     12800   299.57929     -25971.86      -26110.607      138.74688      6737.431       80897.271    
     12900   305.35        -25969.345     -26110.764      141.41952      6780.4662      80897.271    
     13000   300.20156     -25965.19      -26104.225      139.03508      7105.6011      80897.271    
     13100   304.06568     -25964.258     -26105.083      140.8247       7093.8889      80897.271    
     13200   308.16071     -25968.977     -26111.698      142.72127      6802.61        80897.271    
     13300   299.27438     -25970.72      -26109.326      138.60567      6803.7616      80897.271    
     13400   302.0991      -25971.103     -26111.017      139.91391      6769.9797      80897.271    
     13500   294.3853      -25973.162     -26109.503      136.34134      6829.1443      80897.271    
     13600   297.40677     -25972.632     -26110.372      137.7407       6760.6354      80897.271    
     13700   304.46522     -25968.815     -26109.825      141.00975      6838.1526      80897.271    
     13800   306.65604     -25967.004     -26109.029      142.0244       6914.7825      80897.271    
     13900   303.23182     -25969.316     -26109.754      140.43851      6847.7382      80897.271    
     14000   298.13534     -25971.372     -26109.451      138.07813      6785.6508      80897.271    
     14100   298.76124     -25971.53      -26109.898      138.36801      6699.2352      80897.271    
     14200   302.34756     -25970.53      -26110.559      140.02897      6800.8162      80897.271    
     14300   302.19244     -25970.07      -26110.027      139.95714      6829.3538      80897.271    
     14400   298.23902     -25972.101     -26110.227      138.12615      6782.2607      80897.271    
     14500   292.1342      -25975.61      -26110.908      135.29877      6747.7811      80897.271    
     14600   300.61038     -25973.411     -26112.635      139.22442      6715.7944      80897.271    
     14700   297.17338     -25971.192     -26108.824      137.63261      6760.3909      80897.271    
     14800   306.50699     -25969.036     -26110.991      141.95537      6799.413       80897.271    
     14900   297.14608     -25969.115     -26106.735      137.61997      6935.5057      80897.271    
     15000   300.98053     -25969.294     -26108.69       139.39585      6879.8385      80897.271    
     15100   304.52762     -25970.289     -26111.328      141.03865      6795.108       80897.271    
     15200   298.53489     -25972.082     -26110.345      138.26318      6730.3097      80897.271    
     15300   298.30117     -25972.666     -26110.821      138.15494      6756.5078      80897.271    
     15400   301.69127     -25970.174     -26109.899      139.72502      6760.3265      80897.271    
     15500   299.20268     -25967.497     -26106.069      138.57246      7045.5236      80897.271    
     15600   305.44041     -25967.39      -26108.852      141.4614       6890.9177      80897.271    
     15700   293.60263     -25972.239     -26108.218      135.97886      6860.0243      80897.271    
     15800   302.97283     -25973.605     -26113.923      140.31856      6694.4427      80897.271    
     15900   297.84119     -25973.993     -26111.935      137.9419       6650.3738      80897.271    
     16000   297.51766     -25971.001     -26108.794      137.79206      6808.9876      80897.271    
     16100   301.04542     -25969.239     -26108.665      139.4259       6881.0968      80897.271    
     16200   301.91468     -25969.469     -26109.297      139.82849      6856.6713      80897.271    
     16300   299.39233     -25970.795     -26109.455      138.66029      6721.9103      80897.271    
     16400   299.28517     -25972.78      -26111.391      138.61066      6703.992       80897.271    
     16500   292.42325     -25976.029     -26111.462      135.43264      6697.6502      80897.271    
     16600   291.01811     -25977.342     -26112.124      134.78187      6548.4771      80897.271    
     16700   299.45608     -25972.758     -26111.448      138.68982      6753.8953      80897.271    
     16800   300.59464     -25970.034     -26109.251      139.21713      6773.4699      80897.271    
     16900   300.24697     -25969.094     -26108.15       139.05611      6894.635       80897.271    
     17000   302.82007     -25969.257     -26109.505      140.24781      6855.464       80897.271    
     17100   292.90034     -25972.956     -26108.61       135.6536       6837.8724      80897.271    
     17200   301.2382      -25974.764     -26114.279      139.51519      6647.0791      80897.271    
     17300   297.07494     -25975.644     -26113.231      137.58702      6613.463       80897.271    
     17400   298.50607     -25970.726     -26108.976      138.24983      6818.9404      80897.271    
     17500   302.21014     -25967.373     -26107.339      139.96533      6882.7015      80897.271    
     17600   297.50597     -25968.65      -26106.437      137.78665      6945.7746      80897.271    
     17700   303.32719     -25970.958     -26111.441      140.48268      6859.5319      80897.271    
     17800   295.57614     -25973.956     -26110.848      136.89287      6705.5336      80897.271    
     17900   302.57208     -25973.406     -26113.539      140.13296      6643.8314      80897.271    
     18000   302.82967     -25969.252     -26109.505      140.25226      6866.6297      80897.271    
     18100   300.32117     -25965.59      -26104.681      139.09048      6984.2216      80897.271    
     18200   303.05567     -25966.578     -26106.935      140.35693      6964.7111      80897.271    
     18300   300.81804     -25970.65      -26109.97       139.32059      6802.4483      80897.271    
     18400   301.83034     -25972.345     -26112.135      139.78943      6731.3315      80897.271    
     18500   297.64627     -25973.182     -26111.034      137.85163      6755.5937      80897.271    
     18600   293.68911     -25971.901     -26107.92       136.01891      6877.4091      80897.271    
     18700   303.90294     -25966.597     -26107.346      140.74933      6920.0976      80897.271    
     18800   310.33669     -25966.836     -26110.565      143.72905      6875.2537      80897.271    
     18900   301.0493      -25970.345     -26109.773      139.4277       6841.5148      80897.271    
     19000   300.05868     -25972.625     -26111.594      138.96891      6811.275       80897.271    
     19100   293.58265     -25973.349     -26109.319      135.9696       6765.373       80897.271    
     19200   299.36254     -25970.675     -26109.321      138.6465       6809.6047      80897.271    
     19300   301.51383     -25969.588     -26109.231      139.64284      6896.8338      80897.271    
     19400   296.67052     -25970.196     -26107.596      137.39972      6842.0437      80897.271    
     19500   302.06259     -25971.322     -26111.219      139.89699      6748.2847      80897.271    
     19600   296.22508     -25973.504     -26110.698      137.19342      6734.8907      80897.271    
     19700   304.41639     -25970.669     -26111.656      140.98713      6751.2755      80897.271    
     19800   301.54709     -25966.573     -26106.231      139.65825      7048.3354      80897.271    
     19900   307.14091     -25966.38      -26108.629      142.24896      6908.7342      80897.271    
     20000   298.87207     -25969.592     -26108.011      138.41934      6818.0484      80897.271    
     20100   304.62708     -25970.612     -26111.697      141.08471      6842.2106      80897.271    
     20200   292.39532     -25972.098     -26107.518      135.4197       6873.8712      80897.271    
     20300   304.83304     -25970.385     -26111.565      141.1801       6764.2021      80897.271    
     20400   302.56578     -25970.117     -26110.247      140.13004      6806.4852      80897.271    
     20500   299.4131      -25970.81      -26109.48       138.66991      6822.5977      80897.271    
     20600   296.86959     -25972.773     -26110.265      137.49191      6819.7445      80897.271    
     20700   301.40491     -25973.708     -26113.301      139.5924       6656.0265      80897.271    
     20800   296.82157     -25972.489     -26109.958      137.46967      6727.767       80897.271    
     20900   304.64577     -25968.136     -26109.23       141.09337      6830.1291      80897.271    
     21000   300.80561     -25967.484     -26106.799      139.31484      6899.8853      80897.271    
     21100   305.91475     -25968.82      -26110.502      141.68108      6732.0823      80897.271    
     21200   300.28002     -25973.297     -26112.368      139.07142      6662.728       80897.271    
     21300   293.63622     -25973.948     -26109.942      135.99441      6818.9325      80897.271    
     21400   300.4139      -25971.36      -26110.493      139.13342      6800.9701      80897.271    
     21500   298.02614     -25969.113     -26107.141      138.02756      6931.5168      80897.271    
     21600   309.17917     -25967.305     -26110.498      143.19296      6835.0697      80897.271    
     21700   294.6226      -25972.02      -26108.471      136.45125      6781.8357      80897.271    
     21800   299.23267     -25973.19      -26111.777      138.58635      6692.6155      80897.271    
     21900   297.40764     -25972.55      -26110.291      137.74111      6720.4171      80897.271    
     22000   299.28194     -25969.713     -26108.323      138.60917      6896.6595      80897.271    
     22100   303.9378      -25968.374     -26109.139      140.76548      6878.3431      80897.271    
     22200   301.36598     -25969.715     -26109.289      139.57437      6750.4251      80897.271    
     22300   301.34579     -25970.961     -26110.526      139.56502      6871.3856      80897.271    
     22400   294.98888     -25973.692     -26110.313      136.62088      6789.6882      80897.271    
     22500   293.98896     -25979.708     -26115.865      136.15778      6545.0059      80897.271    
     22600   295.27734     -25977.95      -26114.704      136.75448      6600.9686      80897.271    
     22700   294.89329     -25973.626     -26110.203      136.57661      6733.8814      80897.271    
     22800   295.91919     -25971.422     -26108.473      137.05175      6898.8543      80897.271    
     22900   300.89048     -25969.394     -26108.748      139.35415      6802.0243      80897.271    
     23000   307.5453      -25967.944     -26110.381      142.43625      6824.4427      80897.271    
     23100   300.01672     -25969.849     -26108.799      138.94947      6805.6991      80897.271    
     23200   291.23791     -25974.667     -26109.551      134.88366      6849.9407      80897.271    
     23300   296.24913     -25974.54      -26111.745      137.20456      6692.5837      80897.271    
     23400   298.51936     -25972.077     -26110.333      138.25599      6826.3119      80897.271    
     23500   306.37344     -25968.814     -26110.707      141.89352      6801.9159      80897.271    
     23600   302.57507     -25968.647     -26108.782      140.13434      6908.3489      80897.271    
     23700   300.6481      -25969.544     -26108.786      139.24189      6871.9013      80897.271    
     23800   299.05842     -25970.84      -26109.345      138.50565      6770.612       80897.271    
     23900   295.97406     -25972.035     -26109.112      137.07716      6810.5781      80897.271    
     24000   306.08754     -25970.833     -26112.594      141.76111      6718.003       80897.271    
     24100   296.22951     -25970.512     -26107.707      137.19547      6814.8554      80897.271    
     24200   301.76019     -25969.53      -26109.287      139.75694      6854.7062      80897.271    
     24300   299.69071     -25969.467     -26108.265      138.79849      6899.2848      80897.271    
     24400   300.02        -25971.843     -26110.793      138.95099      6729.432       80897.271    
     24500   296.9212      -25975.399     -26112.915      137.51582      6692.843       80897.271    
     24600   288.83248     -25976.136     -26109.906      133.76962      6787.0173      80897.271    
     24700   299.07277     -25971.791     -26110.304      138.51229      6835.1646      80897.271    
     24800   297.69025     -25971.221     -26109.093      137.87199      6799.6244      80897.271    
     24900   305.60802     -25969.581     -26111.12       141.53902      6790.2489      80897.271    
     25000   302.7665      -25969.514     -26109.737      140.223        6831.2188      80897.271    
     25100   296.8271      -25971.937     -26109.41       137.47224      6810.1144      80897.271    
     25200   297.86451     -25975.103     -26113.056      137.9527       6664.3225      80897.271    
     25300   289.17963     -25977.359     -26111.289      133.93039      6649.2816      80897.271    
     25400   300.87662     -25972.761     -26112.108      139.34773      6713.4428      80897.271    
     25500   298.84837     -25971.24      -26109.648      138.40836      6797.1593      80897.271    
     25600   300.37843     -25970.023     -26109.14       139.11699      6831.8785      80897.271    
     25700   305.1754      -25968.65      -26109.989      141.33866      6894.861       80897.271    
     25800   297.14735     -25970.265     -26107.885      137.62056      6893.3742      80897.271    
     25900   296.87007     -25973.354     -26110.846      137.49214      6816.19        80897.271    
     26000   296.28819     -25976.232     -26113.454      137.22264      6664.1823      80897.271    
     26100   292.40199     -25976.998     -26112.42       135.42279      6697.0653      80897.271    
     26200   305.3264      -25970.981     -26112.39       141.40859      6837.6332      80897.271    
     26300   294.53747     -25970.913     -26107.325      136.41182      6908.2261      80897.271    
     26400   304.39182     -25968.658     -26109.633      140.97576      6929.2773      80897.271    
     26500   300.09866     -25968.681     -26107.669      138.98742      6876.7735      80897.271    
     26600   302.59668     -25971.711     -26111.855      140.14436      6782.915       80897.271    
     26700   291.61524     -25974.993     -26110.051      135.05842      6801.5317      80897.271    
     26800   296.97647     -25972.958     -26110.5        137.54142      6821.5859      80897.271    
     26900   304.73879     -25970.954     -26112.091      141.13645      6741.1198      80897.271    
     27000   298.3971      -25970.362     -26108.561      138.19936      6825.6179      80897.271    
     27100   304.39277     -25968.517     -26109.493      140.97619      6924.0366      80897.271    
     27200   294.47992     -25970.774     -26107.159      136.38516      6918.4634      80897.271    
     27300   299.22001     -25975.406     -26113.986      138.58048      6611.087       80897.271    
     27400   296.04499     -25976.068     -26113.178      137.11001      6694.3477      80897.271    
     27500   296.32983     -25972.213     -26109.455      137.24193      6815.4397      80897.271    
     27600   299.22328     -25969.975     -26108.557      138.582        6836.266       80897.271    
     27700   303.5781      -25969.403     -26110.002      140.59889      6802.4409      80897.271    
     27800   300.53999     -25970.973     -26110.165      139.19182      6812.1945      80897.271    
     27900   292.04852     -25975.62      -26110.879      135.25909      6727.2143      80897.271    
     28000   300.44143     -25975.373     -26114.519      139.14617      6664.9595      80897.271    
     28100   297.63499     -25973.116     -26110.962      137.8464       6830.5965      80897.271    
     28200   300.73927     -25970.911     -26110.195      139.28411      6889.3396      80897.271    
     28300   299.86147     -25970.616     -26109.494      138.87757      6840.3849      80897.271    
     28400   298.26185     -25970.364     -26108.501      138.13672      6892.2235      80897.271    
     28500   298.67949     -25969.848     -26108.178      138.33015      6939.5079      80897.271    
     28600   301.60286     -25970.146     -26109.83       139.68408      6925.9367      80897.271    
     28700   298.06434     -25972.491     -26110.537      138.04525      6771.1063      80897.271    
     28800   296.60117     -25974.474     -26111.841      137.3676       6813.4352      80897.271    
     28900   297.17761     -25974.152     -26111.787      137.63457      6645.3663      80897.271    
     29000   303.83185     -25969.171     -26109.887      140.71641      6833.8335      80897.271    
     29100   303.07418     -25967.924     -26108.29       140.3655       6868.6076      80897.271    
     29200   301.73734     -25969.359     -26109.105      139.74636      6907.3002      80897.271    
     29300   293.91635     -25973.004     -26109.128      136.12416      6771.9659      80897.271    
     29400   296.63453     -25974.137     -26111.52       137.38305      6809.1608      80897.271    
     29500   298.39874     -25971.923     -26110.123      138.20012      6744.1229      80897.271    
     29600   302.64429     -25966.207     -26106.373      140.1664       7069.7745      80897.271    
     29700   306.58607     -25966.803     -26108.795      141.992        6873.8351      80897.271    
     29800   296.29473     -25970.849     -26108.075      137.22567      6862.8094      80897.271    
     29900   301.53203     -25972.242     -26111.893      139.65127      6744.166       80897.271    
     30000   298.1819      -25972.931     -26111.03       138.0997       6672.8415      80897.271    
     30100   300.8994      -25969.57      -26108.928      139.35828      6928.0805      80897.271    
     30200   306.49386     -25965.962     -26107.911      141.94929      6897.034       80897.271    
     30300   298.28759     -25967.988     -26106.136      138.14865      6976.2721      80897.271    
     30400   300.39604     -25970.342     -26109.467      139.12515      6916.0585      80897.271    
     30500   301.24675     -25971.896     -26111.415      139.51915      6756.9062      80897.271    
     30600   302.85444     -25971.771     -26112.035      140.26373      6750.1715      80897.271    
     30700   294.98992     -25971.486     -26108.107      136.62136      6822.2257      80897.271    
     30800   298.33791     -25969.783     -26107.955      138.17195      6941.2531      80897.271    
     30900   303.42513     -25968.804     -26109.332      140.52804      6885.6703      80897.271    
     31000   300.98775     -25970.017     -26109.416      139.39919      6785.5372      80897.271    
     31100   302.92615     -25971.839     -26112.136      140.29694      6703.6621      80897.271    
     31200   290.92139     -25974.655     -26109.393      134.73707      6731.9461      80897.271    
     31300   302.48852     -25971.769     -26111.864      140.09426      6794.2081      80897.271    
     31400   296.81269     -25970.43      -26107.896      137.46556      6888.5016      80897.271    
     31500   299.5706      -25969.838     -26108.58       138.74286      6851.8779      80897.271    
     31600   305.65743     -25968.084     -26109.645      141.56191      6844.7483      80897.271    
     31700   305.23451     -25966.55      -26107.916      141.36603      6992.5851      80897.271    
     31800   304.23763     -25969.301     -26110.206      140.90434      6840.7071      80897.271    
     31900   297.21065     -25972.752     -26110.402      137.64987      6753.5126      80897.271    
     32000   297.72448     -25973.153     -26111.041      137.88785      6775.1896      80897.271    
     32100   299.36748     -25971.315     -26109.964      138.64878      6725.3194      80897.271    
     32200   304.88504     -25966.43      -26107.634      141.20418      7006.7239      80897.271    
     32300   303.00223     -25965.691     -26106.023      140.33218      6996.1014      80897.271    
     32400   300.21086     -25970.111     -26109.151      139.03939      6860.5072      80897.271    
     32500   299.22812     -25973.713     -26112.297      138.58424      6707.4221      80897.271    
     32600   299.57308     -25973.127     -26111.871      138.74401      6696.2592      80897.271    
     32700   303.87904     -25970.074     -26110.812      140.73826      6774.6002      80897.271    
     32800   297.32378     -25969.171     -26106.873      137.70227      6914.9792      80897.271    
     32900   300.88815     -25969.236     -26108.589      139.35307      6854.3943      80897.271    
     33000   298.23379     -25972.425     -26110.548      138.12373      6848.0615      80897.271    
     33100   296.54844     -25975.412     -26112.755      137.34318      6722.5961      80897.271    
     33200   295.2715      -25974.176     -26110.928      136.75178      6838.0686      80897.271    
     33300   300.10265     -25970.288     -26109.277      138.98927      6774.8878      80897.271    
     33400   304.18789     -25969.179     -26110.06       140.8813       6802.7457      80897.271    
     33500   303.46629     -25969.809     -26110.356      140.54711      6780.9079      80897.271    
     33600   294.66005     -25971.874     -26108.343      136.46859      6826.3794      80897.271    
     33700   294.54305     -25973.829     -26110.243      136.4144       6836.0262      80897.271    
     33800   293.93338     -25977.586     -26113.718      136.13204      6613.3843      80897.271    
     33900   295.68472     -25975.823     -26112.766      136.94315      6643.8054      80897.271    
     34000   301.40911     -25972.145     -26111.739      139.59435      6668.9157      80897.271    
     34100   295.42135     -25970.901     -26107.722      136.82118      6811.2007      80897.271    
     34200   302.38296     -25969.035     -26109.08       140.04537      6865.2562      80897.271    
     34300   298.36713     -25969.733     -26107.919      138.18548      6810.5026      80897.271    
     34400   302.73276     -25970.997     -26111.204      140.20738      6704.6612      80897.271    
     34500   295.56057     -25974.128     -26111.014      136.88565      6683.2444      80897.271    
     34600   294.47493     -25973.878     -26110.261      136.38285      6708.957       80897.271    
     34700   299.71567     -25970.429     -26109.239      138.81005      6757.0177      80897.271    
     34800   302.64913     -25967.367     -26107.535      140.16864      6896.7645      80897.271    
     34900   308.87593     -25966.985     -26110.038      143.05252      6840.9561      80897.271    
     35000   298.21964     -25972.95      -26111.068      138.11717      6754.4881      80897.271    
     35100   295.39723     -25973.873     -26110.683      136.81001      6731.1017      80897.271    
     35200   294.24805     -25972.761     -26109.039      136.27778      6788.5541      80897.271    
     35300   313.65404     -25968.792     -26114.057      145.26545      6766.3034      80897.271    
     35400   298.68533     -25969.512     -26107.845      138.33285      6808.9561      80897.271    
     35500   302.72822     -25969.267     -26109.473      140.20528      6862.5782      80897.271    
     35600   293.51688     -25973.138     -26109.077      135.93914      6870.6308      80897.271    
     35700   296.94657     -25975.246     -26112.774      137.52757      6600.8523      80897.271    
     35800   300.01202     -25973.37      -26112.317      138.9473       6769.4547      80897.271    
     35900   295.95399     -25971.801     -26108.869      137.06787      6761.3098      80897.271    
     36000   303.56377     -25969.67      -26110.262      140.59225      6809.1019      80897.271    
     36100   301.76323     -25969.562     -26109.32       139.75835      6874.6658      80897.271    
     36200   295.66074     -25971.221     -26108.153      136.93205      6883.7753      80897.271    
     36300   300.86104     -25971.241     -26110.582      139.34051      6777.9913      80897.271    
     36400   299.22258     -25970.682     -26109.263      138.58168      6730.9464      80897.271    
     36500   305.23936     -25966.454     -26107.822      141.36828      6956.1906      80897.271    
     36600   299.12831     -25965.879     -26104.417      138.53802      7017.7767      80897.271    
     36700   301.6984      -25969.14      -26108.868      139.72833      6786.0734      80897.271    
     36800   306.58815     -25972.397     -26114.39       141.99296      6647.9146      80897.271    
     36900   292.80749     -25973.283     -26108.894      135.6106       6818.532       80897.271    
     37000   300.36858     -25970.87      -26109.982      139.11243      6793.9691      80897.271    
     37100   300.23495     -25969.518     -26108.569      139.05055      6754.0004      80897.271    
     37200   304.89096     -25967.969     -26109.176      141.20692      6869.5081      80897.271    
     37300   301.50994     -25968.944     -26108.585      139.64104      6758.1971      80897.271    
     37400   302.53359     -25971.903     -26112.018      140.11513      6741.1523      80897.271    
     37500   294.17418     -25974.712     -26110.956      136.24356      6663.2187      80897.271    
     37600   295.59372     -25973.903     -26110.804      136.90101      6709.1742      80897.271    
     37700   299.94118     -25969.644     -26108.559      138.91449      6822.0851      80897.271    
     37800   302.52691     -25967.756     -26107.868      140.11204      6842.2068      80897.271    
     37900   303.77986     -25969.033     -26109.725      140.69233      6803.1398      80897.271    
     38000   300.03836     -25971.693     -26110.652      138.9595       6756.4841      80897.271    
     38100   292.86079     -25972.764     -26108.399      135.63528      6798.6414      80897.271    
     38200   304.87022     -25970.76      -26111.957      141.19732      6665.3031      80897.271    
     38300   298.93597     -25970.991     -26109.44       138.44894      6809.6877      80897.271    
     38400   299.02906     -25970.83      -26109.322      138.49205      6773.7843      80897.271    
     38500   300.62833     -25970.419     -26109.652      139.23273      6800.3884      80897.271    
     38600   298.27522     -25970.707     -26108.85       138.14292      6779.7842      80897.271    
     38700   302.59588     -25971.264     -26111.408      140.14398      6791.9113      80897.271    
     38800   297.37418     -25974.281     -26112.006      137.72561      6644.9204      80897.271    
     38900   295.02508     -25975.533     -26112.171      136.63765      6667.8517      80897.271    
     39000   304.04679     -25971.129     -26111.945      140.81596      6724.9586      80897.271    
     39100   296.75777     -25969.293     -26106.734      137.44013      6908.3864      80897.271    
     39200   307.58361     -25968.479     -26110.933      142.45399      6812.2684      80897.271    
     39300   298.58535     -25972.207     -26110.494      138.28655      6758.7768      80897.271    
     39400   304.80641     -25972.108     -26113.275      141.16777      6642.7955      80897.271    
     39500   298.41999     -25971.486     -26109.696      138.20997      6899.0597      80897.271    
     39600   294.51086     -25970.967     -26107.366      136.39949      6940.1103      80897.271    
     39700   307.93779     -25968.543     -26111.162      142.61803      6844.9287      80897.271    
     39800   307.62952     -25965.403     -26107.879      142.47526      6927.0702      80897.271    
     39900   302.08258     -25965.791     -26105.697      139.90625      7025.2459      80897.271    
     40000   297.72452     -25970.921     -26108.809      137.88787      6826.9557      80897.271    
     40100   302.726       -25972.153     -26112.357      140.20425      6756.4916      80897.271    
     40200   297.05402     -25972.723     -26110.301      137.57733      6743.5616      80897.271    
     40300   300.62112     -25970.349     -26109.579      139.22939      6874.2701      80897.271    
     40400   296.75101     -25967.653     -26105.09       137.437        6989.0991      80897.271    
     40500   308.22668     -25965.76      -26108.511      142.75183      6928.5292      80897.271    
     40600   302.75806     -25969.151     -26109.37       140.21909      6869.0629      80897.271    
     40700   296.66308     -25973.197     -26110.593      137.39627      6770.7732      80897.271    
     40800   295.64469     -25973.788     -26110.713      136.92461      6774.5676      80897.271    
     40900   300.01284     -25971.17      -26110.118      138.94767      6736.2507      80897.271    
     41000   302.97723     -25968.127     -26108.447      140.3206       6872.0884      80897.271    
     41100   303.88315     -25967.902     -26108.642      140.74017      6809.6645      80897.271    
     41200   301.04656     -25969.252     -26108.679      139.42643      6854.721       80897.271    
     41300   293.32894     -25976.281     -26112.133      135.8521       6608.0015      80897.271    
     41400   296.7153      -25975.463     -26112.884      137.42046      6659.1668      80897.271    
     41500   302.15434     -25971.419     -26111.359      139.93949      6769.4485      80897.271    
     41600   302.89276     -25968.97      -26109.251      140.28148      6802.2814      80897.271    
     41700   307.70376     -25967.032     -26109.542      142.50964      6828.4954      80897.271    
     41800   300.75123     -25969.337     -26108.627      139.28965      6808.0822      80897.271    
     41900   299.54059     -25971.657     -26110.386      138.72896      6778.8803      80897.271    
     42000   298.12099     -25972.604     -26110.676      138.07149      6732.5542      80897.271    
     42100   293.9573      -25972.534     -26108.677      136.14312      6768.0828      80897.271    
     42200   305.32865     -25970.975     -26112.385      141.40963      6708.5752      80897.271    
     42300   299.36707     -25971.266     -26109.915      138.64859      6737.3777      80897.271    
     42400   297.85943     -25970.411     -26108.361      137.95035      6868.4209      80897.271    
     42500   298.79804     -25969.06      -26107.445      138.38506      6910.8601      80897.271    
     42600   307.36925     -25966.836     -26109.191      142.35472      6805.0736      80897.271    
     42700   304.92152     -25967.452     -26108.673      141.22108      6899.4183      80897.271    
     42800   299.97        -25971.063     -26109.991      138.92784      6803.6837      80897.271    
     42900   297.68488     -25973.261     -26111.131      137.86951      6707.5446      80897.271    
     43000   289.68942     -25974.942     -26109.108      134.1665       6768.6418      80897.271    
     43100   305.10814     -25970.365     -26111.672      141.30751      6669.6714      80897.271    
     43200   301.38836     -25967.823     -26107.408      139.58473      6844.6804      80897.271    
     43300   303.64869     -25968.582     -26109.214      140.63158      6845.4067      80897.271    
     43400   296.77362     -25971.702     -26109.149      137.44747      6802.9118      80897.271    
     43500   300.68924     -25972.562     -26111.823      139.26094      6726.6901      80897.271    
     43600   300.78647     -25971.946     -26111.252      139.30598      6721.0314      80897.271    
     43700   307.33779     -25966.622     -26108.962      142.34015      6933.6834      80897.271    
     43800   298.32648     -25966.251     -26104.418      138.16666      7023.6305      80897.271    
     43900   301.77718     -25968.996     -26108.761      139.76481      6856.8344      80897.271    
     44000   298.25252     -25972.347     -26110.479      138.1324       6761.2122      80897.271    
     44100   295.65001     -25972.5       -26109.427      136.92708      6760.791       80897.271    
     44200   301.44765     -25970.219     -26109.831      139.61219      6800.0635      80897.271    
     44300   302.0462      -25967.958     -26107.848      139.8894       6898.0443      80897.271    
     44400   309.34378     -25964.812     -26108.081      143.2692       6957.5915      80897.271    
     44500   296.08948     -25966.615     -26103.746      137.13062      7027.7222      80897.271    
     44600   295.01046     -25970.539     -26107.17       136.63088      6961.9436      80897.271    
     44700   305.97374     -25971.765     -26113.474      141.7084       6701.7834      80897.271    
     44800   304.3043      -25972.707     -26113.642      140.93522      6584.1197      80897.271    
     44900   295.93186     -25972.465     -26109.522      137.05761      6776.3098      80897.271    
     45000   298.12375     -25968.642     -26106.715      138.07276      6932.0948      80897.271    
     45100   307.92957     -25963.742     -26106.356      142.61422      7007.7544      80897.271    
     45200   299.41892     -25967.154     -26105.826      138.67261      7011.291       80897.271    
     45300   305.78903     -25970.179     -26111.802      141.62286      6739.3096      80897.271    
     45400   297.00476     -25973.178     -26110.733      137.55452      6747.8327      80897.271    
     45500   295.433       -25972.772     -26109.599      136.82657      6876.005       80897.271    
     45600   294.15431     -25969.994     -26106.228      136.23436      6913.8167      80897.271    
     45700   308.19212     -25965.61      -26108.346      142.73582      6984.9182      80897.271    
     45800   309.61848     -25967.173     -26110.569      143.39642      6806.1382      80897.271    
     45900   305.38251     -25969.074     -26110.509      141.43458      6833.8706      80897.271    
     46000   294.70524     -25971.611     -26108.1        136.48952      6845.012       80897.271    
     46100   294.63877     -25973.165     -26109.623      136.45874      6884.4749      80897.271    
     46200   296.78589     -25973.669     -26111.122      137.45315      6840.081       80897.271    
     46300   299.52207     -25972.039     -26110.759      138.72038      6740.5118      80897.271    
     46400   308.57476     -25967.873     -26110.786      142.91303      6899.4191      80897.271    
     46500   297.30664     -25967.993     -26105.688      137.69433      7007.4524      80897.271    
     46600   300.87749     -25970.298     -26109.646      139.34813      6871.6158      80897.271    
     46700   297.25587     -25973.754     -26111.424      137.67082      6719.9274      80897.271    
     46800   301.78782     -25972.483     -26112.253      139.76974      6763.4326      80897.271    
     46900   296.76513     -25971.164     -26108.607      137.44353      6911.5258      80897.271    
     47000   302.58688     -25969.33      -26109.47       140.13981      6924.0414      80897.271    
     47100   298.83907     -25969.643     -26108.047      138.40406      6886.4215      80897.271    
     47200   295.4393      -25974.386     -26111.216      136.82949      6783.5347      80897.271    
     47300   296.78603     -25975.548     -26113.001      137.45321      6769.1196      80897.271    
     47400   293.80205     -25972.702     -26108.773      136.07122      6730.6811      80897.271    
     47500   308.30534     -25969.299     -26112.087      142.78826      6866.0573      80897.271    
     47600   296.49281     -25969.506     -26106.823      137.31741      6868.808       80897.271    
     47700   302.70018     -25968.452     -26108.645      140.19229      6915.4133      80897.271    
     47800   303.10592     -25971.975     -26112.355      140.3802       6793.8764      80897.271    
     47900   296.35829     -25975.864     -26113.119      137.25511      6726.7757      80897.271    
     48000   293.95349     -25974.086     -26110.227      136.14135      6719.8912      80897.271    
     48100   304.51269     -25970.106     -26111.138      141.03173      6852.6915      80897.271    
     48200   298.57976     -25969.406     -26107.69       138.28396      6873.1706      80897.271    
     48300   299.39834     -25970.115     -26108.778      138.66308      6912.8564      80897.271    
     48400   300.375       -25972.999     -26112.115      139.11541      6734.6348      80897.271    
     48500   291.91136     -25977.332     -26112.528      135.19556      6642.4616      80897.271    
     48600   297.35882     -25977.03      -26114.748      137.71849      6547.1803      80897.271    
     48700   297.68007     -25970.879     -26108.747      137.86728      6851.6208      80897.271    
     48800   302.69182     -25969.089     -26109.277      140.18842      6873.5991      80897.271    
     48900   301.58623     -25969.403     -26109.08       139.67638      6889.171       80897.271    
     49000   299.86028     -25971.6       -26110.477      138.87702      6812.6617      80897.271    
     49100   297.66355     -25973.915     -26111.774      137.85963      6804.3983      80897.271    
     49200   298.20017     -25974.617     -26112.725      138.10816      6670.8689      80897.271    
     49300   299.60148     -25971.247     -26110.004      138.75716      6854.7064      80897.271    
     49400   299.19572     -25967.437     -26106.007      138.56923      6966.4506      80897.271    
     49500   309.11823     -25967.453     -26110.618      143.16474      6904.7641      80897.271    
     49600   301.66591     -25970.485     -26110.198      139.71328      6727.9596      80897.271    
     49700   295.1008      -25971.831     -26108.504      136.67272      6893.1987      80897.271    
     49800   298.63988     -25970.885     -26109.197      138.31181      6846.6818      80897.271    
     49900   302.76593     -25970.032     -26110.255      140.22274      6882.1212      80897.271    
     50000   291.13004     -25974.959     -26109.793      134.8337       6843.7113      80897.271    
     50100   298.95616     -25974.241     -26112.699      138.45829      6752.5333      80897.271    
     50200   301.40418     -25970.772     -26110.364      139.59206      6805.9321      80897.271    
     50300   299.05857     -25969.172     -26107.678      138.50572      6979.7872      80897.271    
     50400   305.00387     -25969.073     -26110.332      141.25922      6857.796       80897.271    
     50500   298.61375     -25973.622     -26111.922      138.2997       6711.7351      80897.271    
     50600   293.92787     -25976.117     -26112.246      136.12949      6694.151       80897.271    
     50700   295.25173     -25974.501     -26111.243      136.74262      6767.7652      80897.271    
     50800   298.44432     -25971.763     -26109.984      138.22123      6767.5933      80897.271    
     50900   302.84209     -25970.345     -26110.603      140.25801      6782.2242      80897.271    
     51000   300.30779     -25970.1       -26109.184      139.08428      6861.7014      80897.271    
     51100   306.74281     -25966.98      -26109.044      142.06459      6837.0824      80897.271    
     51200   305.08147     -25964.028     -26105.324      141.29516      7041.4665      80897.271    
     51300   305.36566     -25965.304     -26106.731      141.42678      6954.8671      80897.271    
     51400   302.90136     -25970.204     -26110.489      140.28546      6869.2656      80897.271    
     51500   297.41164     -25971.923     -26109.666      137.74296      6767.8324      80897.271    
     51600   301.07092     -25972.098     -26111.536      139.43772      6815.8741      80897.271    
     51700   299.6831      -25972.143     -26110.938      138.79496      6735.4026      80897.271    
     51800   299.99939     -25969.732     -26108.673      138.94145      6862.4924      80897.271    
     51900   303.78813     -25966.81      -26107.506      140.69616      7029.4263      80897.271    
     52000   301.31674     -25967.957     -26107.509      139.55156      6889.7905      80897.271    
     52100   298.37642     -25973.051     -26111.241      138.18979      6844.5078      80897.271    
     52200   297.79995     -25973.936     -26111.859      137.9228       6757.0015      80897.271    
     52300   295.92965     -25972.786     -26109.842      137.05659      6841.0958      80897.271    
     52400   302.17867     -25969.83      -26109.781      139.95076      6847.5803      80897.271    
     52500   304.91107     -25967.676     -26108.892      141.21624      6869.3824      80897.271    
     52600   300.46718     -25966.989     -26106.147      139.1581       7053.2632      80897.271    
     52700   301.63436     -25968.269     -26107.968      139.69866      6908.4648      80897.271    
     52800   300.6843      -25971.28      -26110.539      139.25866      6826.5898      80897.271    
     52900   296.12749     -25973.902     -26111.05       137.14822      6707.7101      80897.271    
     53000   298.55944     -25974.294     -26112.568      138.27455      6708.0876      80897.271    
     53100   302.24302     -25971.107     -26111.087      139.98056      6784.0243      80897.271    
     53200   301.2303      -25967.476     -26106.988      139.51153      6948.0115      80897.271    
     53300   304.87796     -25967.367     -26108.568      141.2009       6910.7252      80897.271    
     53400   299.97383     -25968.654     -26107.584      138.92961      6881.6168      80897.271    
     53500   300.30892     -25970.392     -26109.476      139.08481      6856.5892      80897.271    
     53600   297.20116     -25971.102     -26108.748      137.64548      6902.7097      80897.271    
     53700   299.08446     -25971.045     -26109.562      138.51771      6763.8503      80897.271    
     53800   302.11348     -25971.549     -26111.469      139.92057      6803.9126      80897.271    
     53900   292.01125     -25973.25      -26108.491      135.24183      6861.2927      80897.271    
     54000   300.82614     -25972.339     -26111.663      139.32435      6697.2729      80897.271    
     54100   294.05562     -25971.312     -26107.501      136.18866      6848.2225      80897.271    
     54200   306.62491     -25967.685     -26109.695      142.00998      6887.2418      80897.271    
     54300   304.83538     -25967.657     -26108.838      141.18118      6916.1898      80897.271    
     54400   294.30202     -25971.975     -26108.278      136.30277      6921.2543      80897.271    
     54500   298.52559     -25974.219     -26112.477      138.25887      6730.6471      80897.271    
     54600   294.39106     -25973.414     -26109.758      136.34401      6766.3803      80897.271    
     54700   303.6332      -25970.715     -26111.339      140.62441      6794.4393      80897.271    
     54800   300.57849     -25969.507     -26108.717      139.20965      6881.3615      80897.271    
     54900   305.49818     -25969.331     -26110.819      141.48815      6841.3886      80897.271    
     55000   294.58332     -25973.904     -26110.337      136.43305      6749.3658      80897.271    
     55100   293.21124     -25974.594     -26110.392      135.79759      6840.6539      80897.271    
     55200   306.65734     -25970.01      -26112.035      142.025        6806.4865      80897.271    
     55300   301.62772     -25965.721     -26105.417      139.69559      7028.6335      80897.271    
     55400   306.73474     -25965.705     -26107.766      142.06085      6924.0539      80897.271    
     55500   301.33256     -25969.75      -26109.309      139.55889      6945.569       80897.271    
     55600   298.75516     -25971.907     -26110.272      138.36519      6810.918       80897.271    
     55700   296.47873     -25972.428     -26109.739      137.31089      6746.9266      80897.271    
     55800   304.22324     -25969.403     -26110.301      140.89768      6847.3522      80897.271    
     55900   303.57546     -25966.99      -26107.587      140.59767      6965.2883      80897.271    
     56000   297.72679     -25970.076     -26107.965      137.88892      6851.745       80897.271    
     56100   297.87621     -25973.321     -26111.279      137.95812      6799.5792      80897.271    
     56200   300.96962     -25972.689     -26112.08       139.3908       6711.6264      80897.271    
     56300   302.24068     -25971.138     -26111.117      139.97948      6848.0226      80897.271    
     56400   304.17796     -25968.345     -26109.221      140.87671      6906.6171      80897.271    
     56500   302.97225     -25966.353     -26106.672      140.3183       6980.9533      80897.271    
     56600   305.37074     -25966.674     -26108.103      141.42913      6995.2255      80897.271    
     56700   300.21265     -25971.145     -26110.185      139.04022      6801.0004      80897.271    
     56800   299.93568     -25973.32      -26112.232      138.91194      6613.422       80897.271    
     56900   296.22227     -25974.695     -26111.887      137.19211      6791.104       80897.271    
     57000   298.68198     -25972.096     -26110.427      138.3313       6692.4155      80897.271    
     57100   302.84634     -25968.469     -26108.729      140.25998      6862.3631      80897.271    
     57200   298.93591     -25968.724     -26107.173      138.44891      6906.3049      80897.271    
     57300   299.59157     -25970.1       -26108.853      138.75257      6980.6703      80897.271    
     57400   296.04546     -25973.975     -26111.085      137.11023      6812.7718      80897.271    
     57500   301.62568     -25974.756     -26114.451      139.69465      6625.4013      80897.271    
     57600   298.24052     -25972.232     -26110.359      138.12685      6845.2998      80897.271    
     57700   301.11944     -25967.63      -26107.09       139.46018      6950.5494      80897.271    
     57800   304.98133     -25966.849     -26108.098      141.24878      6976.5         80897.271    
     57900   300.50286     -25970.365     -26109.54       139.17463      6817.7785      80897.271    
     58000   297.28738     -25972.535     -26110.221      137.68541      6833.387       80897.271    
     58100   298.62715     -25972.387     -26110.693      138.30591      6743.4091      80897.271    
     58200   296.39261     -25971.401     -26108.672      137.271        6887.4439      80897.271    
     58300   308.24864     -25965.873     -26108.635      142.762        6870.1038      80897.271    
     58400   308.56699     -25965.871     -26108.78       142.90944      6921.7652      80897.271    
     58500   303.67606     -25969.211     -26109.855      140.64426      6813.0467      80897.271    
     58600   298.80697     -25971.437     -26109.826      138.38919      6828.0197      80897.271    
     58700   294.36848     -25972.207     -26108.54       136.33355      6787.782       80897.271    
     58800   304.05294     -25970.722     -26111.54       140.81881      6820.0297      80897.271    
     58900   304.59511     -25968.618     -26109.688      141.06991      6798.0634      80897.271    
     59000   304.56146     -25964.457     -26105.511      141.05432      6989.7171      80897.271    
     59100   305.46914     -25965.569     -26107.044      141.4747       6963.395       80897.271    
     59200   302.42798     -25970.57      -26110.636      140.06622      6783.6978      80897.271    
     59300   299.34099     -25971.991     -26110.628      138.63652      6755.0464      80897.271    
     59400   299.76888     -25972.065     -26110.9        138.83469      6762.6705      80897.271    
     59500   302.84373     -25970.536     -26110.794      140.25877      6868.9158      80897.271    
     59600   297.84125     -25968.544     -26106.486      137.94193      6956.1397      80897.271    
     59700   307.43856     -25965.258     -26107.645      142.38682      6921.0086      80897.271    
     59800   303.304       -25966.866     -26107.338      140.47194      6990.6334      80897.271    
     59900   301.0303      -25972.049     -26111.468      139.4189       6732.0598      80897.271    
     60000   297.54132     -25973.334     -26111.137      137.80302      6781.2426      80897.271    
     60100   300.04422     -25971.466     -26110.429      138.96221      6806.0386      80897.271    
     60200   297.28082     -25969.269     -26106.951      137.68237      6920.1516      80897.271    
     60300   301.62304     -25967.689     -26107.383      139.69342      6938.3684      80897.271    
     60400   310.02055     -25966.168     -26109.75       143.58264      6921.6095      80897.271    
     60500   298.28342     -25969.269     -26107.416      138.14671      6891.8162      80897.271    
     60600   301.27293     -25972.281     -26111.812      139.53127      6719.226       80897.271    
     60700   288.47948     -25975.198     -26108.804      133.60613      6794.1811      80897.271    
     60800   301.27173     -25973.213     -26112.744      139.53072      6757.5514      80897.271    
     60900   301.48016     -25971.102     -26110.729      139.62725      6820.9956      80897.271    
     61000   302.4294      -25969.812     -26109.878      140.06688      6809.6701      80897.271    
     61100   295.66936     -25970.648     -26107.584      136.93604      6933.0873      80897.271    
     61200   295.10808     -25971.553     -26108.229      136.67609      6875.3518      80897.271    
     61300   302.13316     -25971.501     -26111.431      139.92968      6767.7055      80897.271    
     61400   310.19942     -25969.759     -26113.425      143.66548      6736.9509      80897.271    
     61500   293.236       -25970.042     -26105.851      135.80906      6962.6817      80897.271    
     61600   306.96064     -25968.737     -26110.903      142.16548      6851.5347      80897.271    
     61700   288.48559     -25972.278     -26105.887      133.60896      6883.1405      80897.271    
     61800   307.37056     -25971.454     -26113.81       142.35533      6697.64        80897.271    
     61900   298.85381     -25972.117     -26110.528      138.41088      6709.8755      80897.271    
     62000   300.23646     -25971.092     -26110.143      139.05124      6816.2324      80897.271    
     62100   299.06201     -25969.242     -26107.75       138.50731      6873.4135      80897.271    
     62200   297.5156      -25969.479     -26107.27       137.79111      6935.402       80897.271    
     62300   298.58511     -25971.786     -26110.073      138.28644      6773.0343      80897.271    
     62400   303.35167     -25973.311     -26113.805      140.49402      6742.1811      80897.271    
     62500   292.72024     -25973.12      -26108.69       135.57019      6852.4179      80897.271    
     62600   302.89299     -25967.998     -26108.28       140.28159      6874.5976      80897.271    
     62700   301.27669     -25967.525     -26107.058      139.53302      6962.67        80897.271    
     62800   302.54454     -25968.963     -26109.083      140.1202       6859.5938      80897.271    
     62900   303.98198     -25971.657     -26112.443      140.78594      6684.819       80897.271    
     63000   290.82014     -25977.608     -26112.298      134.69018      6701.2813      80897.271    
     63100   293.47336     -25975.781     -26111.7        135.91899      6682.0656      80897.271    
     63200   300.82045     -25971.887     -26111.209      139.32171      6717.8829      80897.271    
     63300   301.36006     -25969.153     -26108.725      139.57163      6890.7003      80897.271    
     63400   301.13201     -25967.84      -26107.306      139.46601      6920.0711      80897.271    
     63500   302.92528     -25969.246     -26109.542      140.29654      6849.9024      80897.271    
     63600   296.12692     -25974.555     -26111.703      137.14796      6696.3045      80897.271    
     63700   297.78878     -25974.431     -26112.348      137.91763      6714.5837      80897.271    
     63800   297.92619     -25971.923     -26109.905      137.98127      6850.3096      80897.271    
     63900   299.53796     -25969.37      -26108.097      138.72774      6842.1629      80897.271    
     64000   302.43621     -25969.055     -26109.125      140.07004      6960.0754      80897.271    
     64100   300.46675     -25970.525     -26109.683      139.1579       6818.6116      80897.271    
     64200   299.4374      -25970.956     -26109.637      138.68117      6811.2079      80897.271    
     64300   299.67409     -25970.869     -26109.66       138.79079      6783.6518      80897.271    
     64400   298.54056     -25970.938     -26109.204      138.26581      6799.6953      80897.271    
     64500   302.40577     -25970.841     -26110.897      140.05593      6743.8313      80897.271    
     64600   295.38697     -25972.967     -26109.772      136.80526      6784.1573      80897.271    
     64700   299.2421      -25973.773     -26112.364      138.59072      6747.4465      80897.271    
     64800   297.20114     -25973.544     -26111.19       137.64547      6732.0828      80897.271    
     64900   302.90034     -25969.711     -26109.996      140.28499      6810.5695      80897.271    
     65000   299.81617     -25967.065     -26105.921      138.85659      6959.0537      80897.271    
     65100   303.04448     -25967.556     -26107.908      140.35175      6950.1188      80897.271    
     65200   300.45105     -25969.755     -26108.906      139.15063      6735.972       80897.271    
     65300   309.9835      -25969.7       -26113.266      143.56548      6755.6731      80897.271    
     65400   292.57493     -25972.54      -26108.042      135.50289      6886.6078      80897.271    
     65500   301.36966     -25971.852     -26111.429      139.57607      6652.7642      80897.271    
     65600   296.05941     -25972.22      -26109.336      137.11669      6790.3701      80897.271    
     65700   305.36791     -25968.935     -26110.363      141.42782      6828.4405      80897.271    
     65800   301.73486     -25966.134     -26105.879      139.74521      6931.1562      80897.271    
     65900   303.38371     -25967.324     -26107.833      140.50886      6960.3089      80897.271    
     66000   296.28073     -25971.991     -26109.21       137.21919      6822.2585      80897.271    
     66100   300.0838      -25972.791     -26111.771      138.98054      6741.3596      80897.271    
     66200   303.24867     -25971.395     -26111.841      140.44632      6725.9482      80897.271    
     66300   299.49652     -25969.778     -26108.486      138.70855      6900.9428      80897.271    
     66400   299.38547     -25967.313     -26105.97       138.65712      7037.4569      80897.271    
     66500   308.33019     -25964.271     -26107.071      142.79977      7000.559       80897.271    
     66600   305.32528     -25967.414     -26108.822      141.40807      6876.2828      80897.271    
     66700   299.86464     -25971.554     -26110.433      138.87904      6806.0123      80897.271    
     66800   299.91178     -25972.548     -26111.449      138.90087      6768.0087      80897.271    
     66900   293.60615     -25972.863     -26108.843      135.98049      6837.9764      80897.271    
     67000   303.34226     -25969.301     -26109.79       140.48966      6767.124       80897.271    
     67100   306.05405     -25966.633     -26108.378      141.7456       6958.4776      80897.271    
     67200   300.16539     -25968.276     -26107.294      139.01833      6943.9905      80897.271    
     67300   296.74061     -25974.023     -26111.455      137.43218      6716.8238      80897.271    
     67400   299.79429     -25973.401     -26112.247      138.84646      6633.1473      80897.271    
     67500   293.47094     -25971.997     -26107.914      135.91787      6807.197       80897.271    
     67600   308.33292     -25968.428     -26111.229      142.80103      6762.8101      80897.271    
     67700   298.90328     -25968.681     -26107.114      138.43379      6969.326       80897.271    
     67800   303.33567     -25970.102     -26110.589      140.48661      6737.8922      80897.271    
     67900   292.51454     -25975.811     -26111.286      135.47492      6750.8064      80897.271    
     68000   296.75064     -25974.86      -26112.297      137.43683      6744.9839      80897.271    
     68100   299.52755     -25971.49      -26110.213      138.72292      6721.641       80897.271    
     68200   304.13579     -25968.748     -26109.605      140.85718      6852.5403      80897.271    
     68300   301.29292     -25968.439     -26107.979      139.54053      6931.4591      80897.271    
     68400   296.57289     -25970.017     -26107.372      137.3545       6915.0704      80897.271    
     68500   293.56918     -25974.906     -26110.869      135.96336      6819.6086      80897.271    
     68600   298.46212     -25977.198     -26115.427      138.22948      6591.9278      80897.271    
     68700   294.94322     -25974.723     -26111.322      136.59974      6672.8971      80897.271    
     68800   299.26444     -25971.107     -26109.708      138.60106      6911.4048      80897.271    
     68900   298.49568     -25969.973     -26108.218      138.24502      6877.0891      80897.271    
     69000   303.35426     -25969.028     -26109.524      140.49522      6785.1764      80897.271    
     69100   303.79923     -25968.816     -26109.518      140.7013       6832.336       80897.271    
     69200   299.36059     -25972.254     -26110.899      138.64559      6776.6409      80897.271    
     69300   301.58303     -25973.478     -26113.153      139.67489      6712.0753      80897.271    
     69400   291.53721     -25972.928     -26107.95       135.02228      6912.469       80897.271    
     69500   304.15584     -25969.103     -26109.97       140.86646      6827.9324      80897.271    
     69600   300.90429     -25967.645     -26107.005      139.36054      6961.742       80897.271    
     69700   304.35025     -25968.412     -26109.368      140.9565       6890.3793      80897.271    
     69800   293.74691     -25974.036     -26110.082      136.04568      6780.2357      80897.271    
     69900   298.28835     -25974.489     -26112.638      138.149        6736.8732      80897.271    
     70000   294.0674      -25973.84      -26110.034      136.19411      6796.0955      80897.271    
     70100   305.34355     -25969.443     -26110.859      141.41654      6805.8543      80897.271    
     70200   300.64311     -25968.925     -26108.164      139.23958      6833.6789      80897.271    
     70300   297.98672     -25969.802     -26107.811      138.0093       6870.6515      80897.271    
     70400   298.08076     -25972.298     -26110.351      138.05286      6815.6066      80897.271    
     70500   293.263       -25977.233     -26113.054      135.82156      6673.4351      80897.271    
     70600   299.26555     -25976.066     -26114.667      138.60158      6672.2175      80897.271    
     70700   292.75739     -25974.029     -26109.616      135.58739      6785.7052      80897.271    
     70800   301.19798     -25970.971     -26110.467      139.49656      6832.1843      80897.271    
     70900   298.43098     -25969.566     -26107.781      138.21505      6970.3479      80897.271    
     71000   309.08635     -25967.699     -26110.849      143.14997      6845.552       80897.271    
     71100   296.29236     -25971.596     -26108.821      137.22458      6917.0466      80897.271    
     71200   294.07857     -25974.775     -26110.975      136.19929      6817.6323      80897.271    
     71300   295.10367     -25974.392     -26111.066      136.67405      6825.3974      80897.271    
     71400   298.52938     -25971.86      -26110.12       138.26063      6719.9809      80897.271    
     71500   305.09476     -25970.186     -26111.487      141.30131      6713.3446      80897.271    
     71600   297.07714     -25970.88      -26108.468      137.58804      6902.342       80897.271    
     71700   294.0851      -25970.657     -26106.86       136.20231      6813.4085      80897.271    
     71800   306.87539     -25968.75      -26110.876      142.12599      6889.5344      80897.271    
     71900   298.75494     -25970.456     -26108.821      138.36509      6764.7187      80897.271    
     72000   299.39933     -25972.461     -26111.125      138.66354      6816.3576      80897.271    
     72100   297.82149     -25974.265     -26112.198      137.93278      6724.066       80897.271    
     72200   296.34719     -25974.088     -26111.338      137.24997      6740.0178      80897.271    
     72300   300.35414     -25969.748     -26108.853      139.10575      6891.798       80897.271    
     72400   305.24537     -25967.907     -26109.278      141.37106      6911.8784      80897.271    
     72500   304.51225     -25968.71      -26109.741      141.03153      6892.4559      80897.271    
     72600   296.61688     -25971.419     -26108.794      137.37487      6844.4673      80897.271    
     72700   296.56429     -25976.866     -26114.217      137.35052      6683.6769      80897.271    
     72800   290.11035     -25978.811     -26113.173      134.36145      6675.0476      80897.271    
     72900   296.61088     -25974.412     -26111.784      137.37209      6849.4499      80897.271    
     73000   301.13219     -25970.749     -26110.215      139.46609      6832.9933      80897.271    
     73100   302.23966     -25968.581     -26108.56       139.97901      6853.7399      80897.271    
     73200   300.92602     -25968.421     -26107.792      139.37061      6915.2983      80897.271    
     73300   297.03015     -25971.567     -26109.133      137.56628      6854.0489      80897.271    
     73400   298.7359      -25975.17      -26113.526      138.35627      6667.3971      80897.271    
     73500   299.40881     -25975.38      -26114.048      138.66793      6633.9038      80897.271    
     73600   293.9185      -25973.347     -26109.472      136.12515      6823.0221      80897.271    
     73700   295.32188     -25972.065     -26108.84       136.77511      6793.684       80897.271    
     73800   308.50122     -25969.731     -26112.61       142.87898      6723.308       80897.271    
     73900   299.97816     -25970.099     -26109.03       138.93162      6820.69        80897.271    
     74000   306.56058     -25970.334     -26112.314      141.98019      6698.4773      80897.271    
     74100   292.79704     -25973.723     -26109.329      135.60576      6729.0297      80897.271    
     74200   298.47308     -25974.212     -26112.446      138.23455      6693.135       80897.271    
     74300   300.35061     -25971.954     -26111.058      139.10411      6776.4624      80897.271    
     74400   299.24181     -25968.243     -26106.834      138.59058      6913.7387      80897.271    
     74500   301.90464     -25967.611     -26107.435      139.82384      6912.1221      80897.271    
     74600   305.79508     -25968.982     -26110.607      141.62566      6856.458       80897.271    
     74700   295.44305     -25974.347     -26111.179      136.83123      6778.7947      80897.271    
     74800   301.44878     -25974.459     -26114.071      139.61271      6663.6085      80897.271    
     74900   299.20341     -25972.702     -26111.274      138.5728       6739.082       80897.271    
     75000   300.20711     -25969.325     -26108.363      139.03765      6939.9917      80897.271    
     75100   294.47577     -25968.743     -26105.126      136.38324      7038.0848      80897.271    
     75200   307.29803     -25968.726     -26111.048      142.32173      6819.7326      80897.271    
     75300   304.27121     -25973.02      -26113.94       140.91989      6643.301       80897.271    
     75400   294.259       -25974.9       -26111.183      136.28285      6780.3569      80897.271    
[...]
    181800   301.21375     -25968.668     -26108.172      139.50386      6830.9913      80897.271    
    181900   296.54273     -25971.766     -26109.107      137.34053      6918.302       80897.271    
    182000   293.41114     -25977.03      -26112.92       135.89017      6708.7366      80897.271    
    182100   295.14048     -25976.279     -26112.97       136.6911       6733.6621      80897.271    
    182200   296.63328     -25972.793     -26110.176      137.38247      6801.8049      80897.271    
    182300   302.53473     -25970.422     -26110.537      140.11566      6761.278       80897.271    
    182400   301.47329     -25969.734     -26109.358      139.62407      6768.2136      80897.271    
    182500   297.09278     -25968.675     -26106.271      137.59528      6988.9048      80897.271    
    182600   307.68701     -25965.14      -26107.642      142.50188      6905.0958      80897.271    
    182700   304.66187     -25967.459     -26108.56       141.10082      6891.3127      80897.271    
    182800   298.18888     -25972.669     -26110.772      138.10293      6796.8836      80897.271    
    182900   294.94197     -25972.836     -26109.435      136.59916      6766.8696      80897.271    
    183000   300.10467     -25970.354     -26109.344      138.99021      6853.1566      80897.271    
    183100   301.62229     -25968.733     -26108.426      139.69307      6894.0614      80897.271    
    183200   301.65195     -25969.585     -26109.292      139.70681      6833.6434      80897.271    
    183300   298.58128     -25973.407     -26111.692      138.28467      6745.3098      80897.271    
    183400   298.71706     -25974.354     -26112.702      138.34755      6719.3222      80897.271    
    183500   299.79269     -25971.92      -26110.766      138.84572      6841.1997      80897.271    
    183600   301.56993     -25967.757     -26107.426      139.66883      6936.1508      80897.271    
    183700   299.04915     -25968.194     -26106.696      138.50135      6975.2058      80897.271    
    183800   306.46935     -25970.163     -26112.1        141.93794      6781.1904      80897.271    
    183900   296.1293      -25973.276     -26110.425      137.14906      6852.1346      80897.271    
    184000   295.00535     -25973.089     -26109.718      136.62851      6790.7173      80897.271    
    184100   300.43875     -25971.353     -26110.498      139.14493      6734.6063      80897.271    
    184200   299.87571     -25970.044     -26108.929      138.88417      6908.0051      80897.271    
    184300   303.09901     -25967.605     -26107.982      140.377        6883.3965      80897.271    
    184400   305.17846     -25964.257     -26105.597      141.34008      7054.3893      80897.271    
    184500   306.67208     -25966.473     -26108.505      142.03183      6975.8204      80897.271    
    184600   299.16671     -25971.084     -26109.64       138.5558       6795.1351      80897.271    
    184700   297.32327     -25972.21      -26109.912      137.70203      6822.7554      80897.271    
    184800   296.06734     -25972.95      -26110.07       137.12036      6738.0961      80897.271    
    184900   304.94507     -25970.924     -26112.156      141.23199      6742.6729      80897.271    
    185000   306.2385      -25966.977     -26108.808      141.83102      6885.1066      80897.271    
    185100   295.49993     -25967.904     -26104.762      136.85757      6989.484       80897.271    
    185200   302.68052     -25969.488     -26109.671      140.18318      6868.5208      80897.271    
    185300   299.86813     -25970.235     -26109.115      138.88066      6864.4324      80897.271    
    185400   299.51272     -25970.882     -26109.598      138.71605      6838.364       80897.271    
    185500   300.28597     -25972.739     -26111.814      139.07417      6770.8674      80897.271    
    185600   293.60187     -25976.49      -26112.469      135.97851      6740.2845      80897.271    
    185700   292.01474     -25977.496     -26112.74       135.24344      6649.9011      80897.271    
    185800   299.01605     -25972.5       -26110.986      138.48603      6772.8325      80897.271    
    185900   301.7017      -25969.499     -26109.229      139.72985      6873.2756      80897.271    
    186000   301.06651     -25969.348     -26108.783      139.43567      6858.6824      80897.271    
    186100   299.36409     -25971.643     -26110.291      138.64722      6791.2762      80897.271    
    186200   299.73409     -25974.234     -26113.053      138.81858      6678.7411      80897.271    
    186300   294.31951     -25975.475     -26111.785      136.31087      6635.4589      80897.271    
    186400   297.25403     -25971.463     -26109.133      137.66996      6911.6841      80897.271    
    186500   301.95254     -25967.654     -26107.5        139.84603      6852.7877      80897.271    
    186600   305.99372     -25966.783     -26108.5        141.71766      6871.9331      80897.271    
    186700   302.27648     -25969.827     -26109.823      139.99606      6856.9583      80897.271    
    186800   296.02183     -25973.294     -26110.393      137.09928      6741.0985      80897.271    
    186900   297.73766     -25973.142     -26111.036      137.89395      6817.9475      80897.271    
    187000   298.55608     -25971.738     -26110.011      138.27299      6808.7925      80897.271    
    187100   304.06161     -25968.201     -26109.024      140.82282      6817.2065      80897.271    
    187200   304.59957     -25966.329     -26107.401      141.07197      6970.219       80897.271    
    187300   303.65751     -25968.39      -26109.026      140.63566      6881.2516      80897.271    
    187400   302.505       -25970.377     -26110.479      140.10189      6843.7803      80897.271    
    187500   299.86963     -25971.046     -26109.928      138.88135      6817.9015      80897.271    
    187600   296.63426     -25971.381     -26108.764      137.38292      6826.4109      80897.271    
    187700   305.87964     -25970.051     -26111.716      141.66482      6835.1554      80897.271    
    187800   298.67776     -25970.288     -26108.617      138.32935      6875.6073      80897.271    
    187900   299.99521     -25971.217     -26110.156      138.93951      6838.176       80897.271    
    188000   297.22235     -25972.533     -26110.188      137.65529      6757.2058      80897.271    
    188100   301.44066     -25972.851     -26112.46       139.60896      6735.2923      80897.271    
    188200   294.50048     -25971.697     -26108.091      136.39469      6880.5426      80897.271    
    188300   305.27239     -25968.493     -26109.877      141.38358      6815.5042      80897.271    
    188400   302.75993     -25968.895     -26109.115      140.21996      6836.0004      80897.271    
    188500   294.9865      -25972.418     -26109.037      136.61978      6867.5048      80897.271    
    188600   294.38601     -25975.674     -26112.015      136.34167      6651.2755      80897.271    
    188700   293.55136     -25974.999     -26110.954      135.95511      6628.8213      80897.271    
    188800   302.29205     -25970.582     -26110.585      140.00327      6779.9552      80897.271    
    188900   302.33307     -25969.453     -26109.475      140.02227      6846.1564      80897.271    
    189000   298.69966     -25969.353     -26107.693      138.33949      6921.0131      80897.271    
    189100   299.78537     -25970.722     -26109.565      138.84233      6859.0672      80897.271    
    189200   294.70496     -25973.89      -26110.379      136.48939      6744.5986      80897.271    
    189300   298.17281     -25974.603     -26112.699      138.09548      6754.5297      80897.271    
    189400   291.56784     -25974.738     -26109.774      135.03647      6734.3929      80897.271    
    189500   303.52329     -25970.458     -26111.032      140.5735       6704.9218      80897.271    
    189600   300.92631     -25968.445     -26107.815      139.37074      6859.9592      80897.271    
    189700   305.99049     -25966.97      -26108.687      141.71616      6903.3117      80897.271    
    189800   296.18391     -25970.961     -26108.135      137.17435      6890.0402      80897.271    
    189900   297.1196      -25973.255     -26110.863      137.6077       6642.5825      80897.271    
    190000   299.44098     -25972.532     -26111.215      138.68283      6713.797       80897.271    
    190100   304.87541     -25970.576     -26111.776      141.19972      6782.1378      80897.271    
    190200   303.31188     -25968.465     -26108.94       140.47559      6889.6821      80897.271    
    190300   303.5482      -25964.471     -26105.056      140.58504      7051.2033      80897.271    
    190400   306.65981     -25964.181     -26106.207      142.02615      6979.5844      80897.271    
    190500   303.59021     -25969.884     -26110.488      140.6045       6718.3958      80897.271    
    190600   302.62812     -25972.456     -26112.615      140.15892      6723.0593      80897.271    
    190700   294.21262     -25973.709     -26109.971      136.26137      6753.0995      80897.271    
    190800   298.96132     -25971.189     -26109.649      138.46068      6818.3451      80897.271    
    190900   301.2958      -25968.74      -26108.282      139.54187      6837.0164      80897.271    
    191000   311.06435     -25965.862     -26109.928      144.06606      6797.3854      80897.271    
    191100   305.34026     -25963.467     -26104.882      141.41501      7053.6999      80897.271    
    191200   298.83221     -25967.476     -26105.877      138.40088      6941.2435      80897.271    
    191300   300.93816     -25971.287     -26110.663      139.37623      6750.167       80897.271    
    191400   298.67355     -25972.679     -26111.006      138.3274       6662.5958      80897.271    
    191500   297.44024     -25972.436     -26110.192      137.7562       6821.9883      80897.271    
    191600   305.09911     -25969.427     -26110.73       141.30333      6834.0686      80897.271    
    191700   300.15764     -25967.162     -26106.177      139.01474      6965.9435      80897.271    
    191800   308.98387     -25965.548     -26108.651      143.10251      6812.9862      80897.271    
    191900   296.21661     -25969.206     -26106.395      137.18949      6854.9077      80897.271    
    192000   301.66719     -25972.634     -26112.348      139.71387      6673.7845      80897.271    
    192100   297.22951     -25974.489     -26112.147      137.65861      6682.2332      80897.271    
    192200   295.80629     -25972.846     -26109.845      136.99946      6790.6994      80897.271    
    192300   306.04421     -25969.16      -26110.901      141.74104      6759.7471      80897.271    
    192400   299.37598     -25968.983     -26107.636      138.65272      6924.4949      80897.271    
    192500   301.70038     -25969.434     -26109.163      139.72924      6849.3026      80897.271    
    192600   299.49839     -25971.822     -26110.532      138.70941      6713.6785      80897.271    
    192700   300.57031     -25974         -26113.206      139.20586      6693.2869      80897.271    
    192800   290.51117     -25978.467     -26113.014      134.54708      6622.0322      80897.271    
    192900   288.43118     -25978.577     -26112.161      133.58376      6658.9713      80897.271    
    193000   300.66392     -25973.292     -26112.542      139.24922      6623.5984      80897.271    
    193100   297.70705     -25970.74      -26108.62       137.87977      6827.1103      80897.271    
    193200   302.88101     -25968.26      -26108.536      140.27604      6941.094       80897.271    
    193300   300.32917     -25969.295     -26108.389      139.09418      6881.8042      80897.271    
    193400   300.01166     -25972.138     -26111.085      138.94713      6817.3527      80897.271    
    193500   294.31973     -25976.33      -26112.641      136.31098      6690.386       80897.271    
    193600   297.24991     -25975.798     -26113.466      137.66806      6624.3207      80897.271    
    193700   294.19134     -25973.805     -26110.056      136.25151      6743.4324      80897.271    
    193800   298.58469     -25970.969     -26109.255      138.28624      6876.5374      80897.271    
    193900   301.77021     -25969.898     -26109.66       139.76158      6803.5996      80897.271    
    194000   301.71318     -25970.265     -26110          139.73517      6831.2719      80897.271    
    194100   295.22459     -25971.825     -26108.555      136.73005      6832.8672      80897.271    
    194200   299.32352     -25973.534     -26112.163      138.62843      6745.9016      80897.271    
    194300   294.59961     -25973.692     -26110.133      136.4406       6748.1569      80897.271    
    194400   303.58752     -25970.253     -26110.857      140.60325      6821.5829      80897.271    
    194500   299.51011     -25967.863     -26106.578      138.71484      6917.1585      80897.271    
    194600   303.13788     -25966.941     -26107.336      140.395        6942.1997      80897.271    
    194700   299.01065     -25972.239     -26110.722      138.48352      6743.9764      80897.271    
    194800   295.33526     -25974.757     -26111.538      136.78131      6743.8511      80897.271    
    194900   298.00778     -25973.464     -26111.483      138.01906      6736.5547      80897.271    
    195000   301.00718     -25970.05      -26109.458      139.40819      6818.2632      80897.271    
    195100   304.91921     -25967.685     -26108.905      141.22001      6932.9994      80897.271    
    195200   297.51314     -25968.834     -26106.624      137.78997      6953.5608      80897.271    
    195300   303.72365     -25969.177     -26109.843      140.6663       6855.8523      80897.271    
    195400   299.381       -25971.237     -26109.892      138.65505      6823.9936      80897.271    
    195500   300.72612     -25971.35      -26110.628      139.27802      6797.5524      80897.271    
    195600   304.30678     -25971.467     -26112.403      140.93637      6678.5115      80897.271    
    195700   297.30607     -25971.683     -26109.378      137.69406      6830.5711      80897.271    
    195800   298.5348      -25970.798     -26109.061      138.26314      6846.7422      80897.271    
    195900   301.50461     -25970.994     -26110.633      139.63857      6776.8571      80897.271    
    196000   300.03946     -25971.877     -26110.837      138.96         6815.2081      80897.271    
    196100   298.80969     -25971.217     -26109.608      138.39045      6785.8742      80897.271    
    196200   305.30137     -25967.059     -26108.456      141.397        6998.5783      80897.271    
    196300   300.32658     -25967.222     -26106.315      139.09298      6973.9765      80897.271    
    196400   302.41593     -25970.607     -26110.668      140.06064      6798.6401      80897.271    
    196500   296.2597      -25973.856     -26111.065      137.20945      6732.1235      80897.271    
    196600   298.75725     -25972.711     -26111.078      138.36616      6703.3388      80897.271    
    196700   301.26408     -25969.897     -26109.424      139.52717      6844.642       80897.271    
    196800   299.57563     -25969.703     -26108.448      138.74519      6821.9642      80897.271    
    196900   300.41347     -25969.981     -26109.114      139.13322      6866.8581      80897.271    
    197000   298.40768     -25970.668     -26108.872      138.20427      6917.2072      80897.271    
    197100   302.37049     -25970.453     -26110.492      140.0396       6816.1001      80897.271    
    197200   299.01961     -25971.466     -26109.954      138.48767      6866.0154      80897.271    
    197300   300.55526     -25971.447     -26110.646      139.19889      6838.3368      80897.271    
    197400   297.71483     -25971.118     -26109.001      137.88338      6847.675       80897.271    
    197500   311.83657     -25966.827     -26111.251      144.42371      6946.3765      80897.271    
    197600   302.86745     -25966.225     -26106.495      140.26976      6857.4091      80897.271    
    197700   300.04056     -25969.239     -26108.2        138.96052      6836.9615      80897.271    
    197800   301.33798     -25971.786     -26111.347      139.5614       6837.1701      80897.271    
    197900   292.30647     -25974.462     -26109.84       135.37856      6782.2785      80897.271    
    198000   298.06324     -25973.559     -26111.604      138.04474      6776.3653      80897.271    
    198100   301.03362     -25971.636     -26111.057      139.42044      6837.8586      80897.271    
    198200   296.09738     -25971.193     -26108.327      137.13427      6932.0556      80897.271    
    198300   302.75442     -25970.102     -26110.32       140.21741      6830.1427      80897.271    
    198400   302.30554     -25968.888     -26108.897      140.00951      6918.2889      80897.271    
    198500   301.85082     -25967.335     -26107.134      139.79892      6818.6016      80897.271    
    198600   306.14268     -25967.588     -26109.374      141.78665      6925.3182      80897.271    
    198700   296.92732     -25971.917     -26109.435      137.51865      6784.5782      80897.271    
    198800   298.9399      -25973.624     -26112.075      138.45076      6849.16        80897.271    
    198900   301.97132     -25973.319     -26113.174      139.85472      6658.5484      80897.271    
    199000   300.8666      -25969.863     -26109.206      139.34309      6826.3215      80897.271    
    199100   303.21479     -25966.686     -26107.117      140.43062      7041.8123      80897.271    
    199200   294.0689      -25968.952     -26105.147      136.19481      6949.0414      80897.271    
    199300   306.06382     -25970.053     -26111.803      141.75012      6797.6123      80897.271    
    199400   297.63037     -25972.861     -26110.705      137.84426      6744.2158      80897.271    
    199500   297.49818     -25973.981     -26111.765      137.78304      6800.8638      80897.271    
    199600   291.43116     -25976.654     -26111.627      134.97317      6715.0211      80897.271    
    199700   296.22602     -25975.492     -26112.686      137.19385      6710.3728      80897.271    
    199800   301.59284     -25971.101     -26110.781      139.67944      6800.5667      80897.271    
    199900   300.78327     -25968.717     -26108.021      139.30449      6843.6869      80897.271    
    200000   300.35543     -25968.663     -26107.769      139.10634      6934.8832      80897.271    
Loop time of 11827.3 on 20 procs for 200000 steps with 3584 atoms

Performance: 1.461 ns/day, 16.427 hours/ns, 16.910 timesteps/s, 60.606 katom-step/s
99.9% CPU use with 20 MPI tasks x 1 OpenMP threads

MPI task timing breakdown:
Section |  min time  |  avg time  |  max time  |%varavg| %total
---------------------------------------------------------------
Pair    | 9498       | 10712      | 11565      | 699.0 | 90.57
Neigh   | 114.31     | 130.45     | 147.13     |  81.1 |  1.10
Comm    | 54.251     | 934.12     | 2188.8     |2435.9 |  7.90
Output  | 0.31317    | 0.35576    | 0.41281    |   4.5 |  0.00
Modify  | 19.944     | 49.284     | 75.137     | 295.3 |  0.42
Other   |            | 0.8907     |            |       |  0.01

Nlocal:          179.2 ave         192 max         160 min
Histogram: 4 0 0 2 2 2 2 0 0 8
Nghost:           1124 ave        1212 max        1082 min
Histogram: 8 0 2 6 0 0 0 0 0 4
Neighs:              0 ave           0 max           0 min
Histogram: 20 0 0 0 0 0 0 0 0 0
FullNghs:        10234 ave       11042 max        9108 min
Histogram: 4 0 0 2 2 2 2 0 0 8

Total # of neighbors = 204680
Ave neighs/atom = 57.109375
Neighbor list builds = 200000
Dangerous builds not checked
Total wall time: 3:17:07
