ITEM: TIMESTEP
0
ITEM: NUMBER OF ATOMS
128
ITEM: BOX BOUNDS pp pp pp
0.0000000000000000e+00 1.4212108580510600e+01
0.0000000000000000e+00 1.4212108580510600e+01
0.0000000000000000e+00 1.4212108580510600e+01
ITEM: ATOMS id type xs ys zs
1 1  0.007984900295204676    0.9997203996875278   0.00344919965410501
2 1    0.1284336000995021    0.1262633999616917    0.1275616999215796
3 1    0.9981601998146948 0.0004722001638238887    0.2438990998670984
4 1      0.12028550023494    0.1293568001950876    0.3696096001689341
5 1    0.9921933997779792 0.0007988997505669269    0.4972572000815731
6 1    0.1269529000414644    0.1299253998475756     0.622811800223524
7 1    0.9969253000177664  0.004506199740679095    0.7495598003387387
8 1    0.1189461001105908    0.1322211000116415    0.8730067997801803
9 1  0.006362300111047379    0.2515029996957413    0.9920593000425877
10 1    0.1291389000867078    0.3722598001576712    0.1267616997009515
11 1    0.9966747003280845    0.2462196000105623    0.2557921000536989
12 1    0.1268231001606409    0.3827185001568982     0.369828300299347
13 1  0.004978100160100113    0.2477649998275971    0.5000525002845618
14 1    0.1215808998510987    0.3723516999621654    0.6301928998967882
15 1     0.993935600089758    0.2552139001368148    0.7526214002240413
16 1    0.1270430998870916    0.3699996000038355     0.884387700023358
17 1    0.9969056998297702    0.4989833999526915    0.9999785000235351
18 1      0.12978189967739    0.6286820002383485    0.1223173000791657
19 1  0.002562300294407946    0.5047543001351227    0.2430532999682372
20 1    0.1194728002802099    0.6086880001650821    0.3814347997195811
21 1    0.9978584001221509    0.5022803998126741    0.4947365002292565
22 1    0.1153339999279059    0.6294944996598514    0.6316365998153306
23 1   0.01084559966079729    0.5077828999910953    0.7497382003267233
24 1    0.1205593997747548    0.6239425001410603    0.8794449000438861
25 1  0.004767099801989123    0.7506136003371807    0.9961663000467984
26 1     0.129221699904436    0.8774405000747594    0.1187957001901363
27 1    0.9943950998158546    0.7466804999331595    0.2413137002557847
28 1    0.1270412000986227    0.8647542002918231    0.3750654999434638
29 1  0.002397200232956283    0.7518546997771463    0.4945491001693068
30 1     0.126625299814262    0.8737903999009444    0.6314070997392847
31 1  0.001076099996940112    0.7455820999377213    0.7543779003139881
32 1    0.1142346999956337     0.876775600144783    0.8826179000068782
33 1    0.2503461002879682    0.9954886996790947 0.0008588000809913245
34 1    0.3772784002898014    0.1330320000927036    0.1270398997989595
35 1    0.2477237997483349  0.003317400070011718    0.2570224002516567
36 1    0.3713153998300234      0.12577740029733    0.3687872999498079
37 1     0.246983899687733  0.001567200241528114    0.5000578999055656
38 1    0.3831438001724278    0.1139225999314615    0.6248055001618187
39 1    0.2495307997339118  0.007561500068143942    0.7482800000967856
40 1    0.3718694998747416    0.1241559997944095    0.8797910999038243
41 1    0.2474178001160239    0.2514219997516811  0.003020499720841405
42 1    0.3784905997254028    0.3759991003254786    0.1194488003228448
43 1    0.2517050998966882    0.2508438997495979    0.2545676997543751
44 1    0.3743925997931572    0.3702269997581852    0.3783474000032455
45 1    0.2482327003072511    0.2472695997284411     0.488881400014633
46 1    0.3856620000438444    0.3751724003369835    0.6238999997621351
47 1    0.2453789999031031    0.2520310001650236    0.7431873996856651
48 1    0.3867457998130864    0.3850781000579281    0.8773505999735352
49 1    0.2486623001773487    0.4972721000521721  0.008338999757046757
50 1    0.3783759003484057    0.6218704001544065    0.1271075998164868
51 1    0.2552165999473167    0.5013756002238479    0.2478449000052215
52 1    0.3798727999730802    0.6263402998628224    0.3775760999573795
53 1     0.256884899894906    0.4931413998349992    0.4981319998995993
54 1    0.3716268997017646     0.619975499770875    0.6280825001746012
55 1     0.250115599656662    0.5015682000751995    0.7502653001555464
56 1    0.3738770999320002    0.6300922997647317    0.8793461997002986
57 1    0.2486010003360855    0.7569709996976037    0.9930819998001685
58 1    0.3717184997618559    0.8705676001495543    0.1275499001243117
59 1    0.2549720000710698    0.7473540002758973     0.240374900082368
60 1    0.3847897002067182    0.8726627002419383     0.380334499935674
61 1    0.2562853998311587    0.7522651997368777     0.496712900130853
62 1     0.377656600327435     0.877644099701346    0.6265895000416654
63 1    0.2502927000486089    0.7489011999666001    0.7494809999275502
64 1    0.3730171001697721    0.8685039999572353    0.8751555998563266
65 1    0.5001697003460843  0.002804400189754818    0.9959907996989176
66 1    0.6301653001920872    0.1171936001308091    0.1248012003252143
67 1    0.5039277000614285    0.9983020000260135    0.2520891998329556
68 1    0.6202908998379802    0.1293826999409216    0.3743480997109619
69 1    0.4995797998431078  0.001002799825181745    0.4941710999612752
70 1    0.6315215000755042    0.1228107996862273    0.6234233998289422
71 1     0.495945899939555 0.0004418000301947044    0.7517281998992558
72 1    0.6232181002434887    0.1320044002881238    0.8801263999033286
73 1    0.4954982000107263    0.2587214000772781    0.9945184003092383
74 1    0.6249434001777733    0.3856341998059162    0.1226554997187738
75 1    0.4936641998092541    0.2537371002741412     0.244301000117694
76 1    0.6186860000533502    0.3676192002335725    0.3787866001377392
77 1    0.4957225002953703    0.2452345997960834    0.5050444998600007
78 1    0.6237356997227164    0.3725731998178812    0.6279502003128777
79 1    0.5094643999504167    0.2489499000065257    0.7547879999108905
80 1    0.6255011998846283    0.3712367999520622     0.873153599953299
81 1    0.4997614998340255    0.5025252002221483  0.004753699960655153
82 1    0.6334259001050057    0.6253166002536067    0.1204432002684926
83 1    0.5028042003421894    0.4941660000846742    0.2474287998912588
84 1    0.6256477003133439    0.6388766000881334    0.3689110001023954
85 1     0.508772499804545    0.4995773997770088    0.5029444997206176
86 1     0.625382600312267    0.6182078000760914    0.6278369996578951
87 1    0.5042141002093687    0.4867057003410178    0.7444456000363521
88 1    0.6192933997190014     0.617095699791291    0.8750618002633634
89 1    0.5032775002724491    0.7394318999512208  0.001832599987007999
90 1    0.6250305997648703    0.8776181000407112    0.1229108003294781
91 1    0.5037032998619836    0.7579341002764137    0.2493388000749913
92 1    0.6250961002495258    0.8818764998170112    0.3747369997794275
93 1    0.5044002998844562    0.7454479002875291    0.4916042000678964
94 1    0.6176843999094054    0.8768202001417791    0.6273525001227984
95 1    0.5047500002805547    0.7529916999561457    0.7585414999420649
96 1    0.6239997998721585    0.8662165997579023    0.8761847997049725
97 1    0.7589627998474294  0.006477800213702873    0.9998169997094193
98 1    0.8727668002065297    0.1287020001035121    0.1189421999152267
99 1    0.7492116000719053  0.006907599913402364    0.2492218997578717
100 1    0.8808439999654324    0.1267100001240845    0.3774777999766211
101 1    0.7483605996780168     0.994990200110233    0.5029127000761496
102 1    0.8650302001533341     0.121929599691937    0.6210642002907415
103 1    0.7547208001709934    0.9997191000914901      0.75309659994277
104 1    0.8762541996813666    0.1248153002737803    0.8793530002393919
105 1    0.7529629997813835    0.2452201001883136    0.9943084997175632
106 1    0.8705965001539183    0.3689755000317906    0.1359075002177197
107 1     0.754356400337523    0.2507198998526074    0.2591775998004417
108 1    0.8753805003334018    0.3693509003441212    0.3718991999011387
109 1     0.745740400163705    0.2480942000988655    0.4975463999548161
110 1     0.877329199911871    0.3710989998509086    0.6299962000204705
111 1    0.7546340002431001    0.2475564002392105     0.748090700248367
112 1    0.8643184000750632    0.3712550998403952    0.8714227997795843
113 1    0.7515782003416304    0.4965303002031013    0.9962326997646626
114 1    0.8788019996643794    0.6281644999702964    0.1279185998123499
115 1    0.7443356001731267    0.4988273998780059    0.2393400001646901
116 1    0.8767445998187227    0.6214220001183457    0.3786853998132516
117 1    0.7541985996855441    0.5048961003464414    0.4976090000957424
118 1    0.8826408001978074    0.6211419002318687    0.6139596999677941
119 1    0.7482440997237264     0.496996300020263    0.7510700998047471
120 1    0.8714610003039417    0.6247632003161206    0.8794182002760191
121 1    0.7475409000582168    0.7568762002530056  0.004407099737887715
122 1     0.871847899965512    0.8748503003312477    0.1304615996631646
123 1    0.7445499997453462     0.756212500004266    0.2503977998648352
124 1    0.8771565999077193    0.8679547999595161    0.3772982003073996
125 1    0.7442780999088013    0.7464397003374759    0.4906088002706137
126 1    0.8772363002557417    0.8623331000163027     0.629872599782684
127 1    0.7592052001908045    0.7526638998993413     0.743936900010663
128 1     0.885402400264234    0.8761175999650754    0.8796116001494039
ITEM: TIMESTEP
100
ITEM: NUMBER OF ATOMS
128
ITEM: BOX BOUNDS pp pp pp
0.0000000000000000e+00 1.4212108580510600e+01
0.0000000000000000e+00 1.4212108580510600e+01
0.0000000000000000e+00 1.4212108580510600e+01
ITEM: ATOMS id type xs ys zs
1 1 -0.0008459288402796208   0.01544624671599884  0.001763838283184997
2 1    0.1218579287443728    0.1086276636006694    0.1234576288299237
3 1 -0.001111291388537052  0.003214898071155171    0.2451063279790252
4 1    0.1198254724324573    0.1266353895243722    0.3676831198014074
5 1     1.002826649211925 -0.003930799252819257    0.4797052282334794
6 1    0.1133207344294041    0.1173666491196603    0.6177613732863385
7 1     0.989505502272928   0.01711700326817502    0.7527321036136567
8 1    0.1209401890603731    0.1339766020028574    0.8750099120045967
9 1  0.002095021537382034    0.2527271568363005     0.999222592129017
10 1     0.138541064643375    0.3793858004905033    0.1196014402095727
11 1     0.998922932828324    0.2455747182824261    0.2411071793401557
12 1    0.1274906222321081    0.3661638756123874    0.3662543205133187
13 1 -0.003592657188098986    0.2580272383404982    0.4958624028580102
14 1    0.1317791763766404     0.384114383443341    0.6149647274278197
15 1     1.004878906879862    0.2358386429001992    0.7392709441546322
16 1    0.1401174985864758     0.370778402973056    0.8731964939480827
17 1  0.002227283416745137    0.5034764279520172    0.9969141477619988
18 1    0.1305056605958832    0.6198072774053411    0.1211867869403335
19 1    0.9959417632885478    0.5132962718938701    0.2523233103759028
20 1    0.1323571970892702    0.6217416859653901    0.3771451185346966
21 1    0.9965858455397754    0.4912040815712934    0.5096767006364687
22 1    0.1333234725149709    0.6292600331354192    0.6182135775531489
23 1   0.01018880992952311    0.5105464794607572     0.764494371172507
24 1    0.1412652197312262    0.6195482230950099    0.8891090976434213
25 1  0.007849947520061039     0.745476671047747   0.01212198615978123
26 1    0.1295162432552963     0.887846477675546    0.1230838494869472
27 1  0.009457167067018114     0.754724601625584    0.2522563646108444
28 1    0.1282592286835421    0.8705304705685173    0.3691428968547556
29 1  0.004767848483103388    0.7561316827872603    0.4953022511929423
30 1    0.1178439627923181    0.8794388594078727    0.6153011554319857
31 1  0.004360249628382255    0.7371127859363166     0.767072772053037
32 1    0.1245175834070174    0.8878324100286589     0.877342510404817
33 1    0.2584383737447171  0.006975081507295785    0.9857939296932769
34 1    0.3650115148124785    0.1200570401130794    0.1129821876782895
35 1    0.2479570049881009 0.0005551632157219604    0.2662742845704341
36 1    0.3784624707187202    0.1268961209122016    0.3752696839567794
37 1    0.2364176883972189  0.005629889159053469    0.5014533847037081
38 1    0.3781319445192746    0.1170294241161443    0.6256974771509741
39 1    0.2409628328659008  0.002843823897589009    0.7454289221889928
40 1    0.3747037474318644    0.1382487465216112    0.8736654016800164
41 1    0.2470382881063226    0.2469699513180786  0.006419703179942321
42 1    0.3685529995626805    0.3732443481205723    0.1290109204878027
43 1    0.2557509903647269    0.2470956989478024    0.2419473182181299
44 1    0.3724904987796365    0.3792081382342629    0.3821532384535533
45 1    0.2487862416913492    0.2357989407858928    0.5029936091427911
46 1    0.3921330786832866    0.3683360214464888     0.619558130088805
47 1    0.2504397486546698    0.2464056626414586    0.7546098118734456
48 1    0.3801997862599225     0.367642417308265    0.8649187447844786
49 1    0.2590872315791096    0.4861867071595514    0.9868806618358749
50 1    0.3647093986037195    0.6195975938257741    0.1205082177909606
51 1    0.2560207384284395    0.4908461027576571     0.251193765108302
52 1     0.378384626940327    0.6188213721068959    0.3677551168979697
53 1    0.2557860392834106    0.5031784116849984    0.5131409748117608
54 1    0.3821020053490345     0.631097375554672    0.6290621641265386
55 1    0.2443173140651436    0.4886042483351042    0.7558984293496361
56 1    0.3609724410943905     0.625284692689358    0.8920635578485866
57 1    0.2362367833397807     0.759208032019849    0.9970434231622387
58 1    0.3787464376025416    0.8743919283699763    0.1226515480231114
59 1     0.254988327837717    0.7484115625346299    0.2483271693284328
60 1    0.3725062320044088     0.894339656879703    0.3797079181316008
61 1    0.2573033793752741    0.7566358495729353    0.4991747737330753
62 1     0.384504620336346    0.8822707854891682    0.6288639619050985
63 1    0.2361573440399834    0.7418217565598518    0.7619513795068302
64 1    0.3760276197284519    0.8694961813613392    0.8646287941573757
65 1    0.4927879379577018 -0.001113127525373124    0.9990541987865806
66 1    0.6404259352588548     0.122459095604948    0.1256512775287772
67 1    0.5000016991139206  0.003572900791675225    0.2446885697379302
68 1    0.6228528234079959    0.1266540683793387    0.3745870268341003
69 1    0.5171255296677446    0.9956000942225565    0.5005111905061156
70 1    0.6336822312092493    0.1200766548989996    0.6322418448562633
71 1    0.5049766134242895  0.006414011041981264    0.7706403392475331
72 1    0.6384555711938357    0.1284980073550831    0.8776903427306731
73 1    0.5007666720825711    0.2383503556226778    0.9928274869257363
74 1     0.625606719839053    0.3742333002007001    0.1093879898353264
75 1    0.4956012487801821    0.2447988659326429    0.2508033471946366
76 1    0.6167162366459303    0.3550439199573946    0.3810821646913508
77 1    0.5009740827908348    0.2353135793394098    0.4990676249633381
78 1    0.6245958667926937    0.3755549335308102    0.6159624235117113
79 1    0.5058862731438801    0.2495804291144169    0.7525856106263136
80 1    0.6266930295695046    0.3622090143108411    0.8977879659914788
81 1    0.4967257315503682    0.5016425162893249  0.009665362072449699
82 1    0.6147213115416491    0.6127206575135251    0.1319962667359207
83 1    0.4963240367968278    0.4969138852521001    0.2533041376268098
84 1    0.6182785086661161    0.6256554340882392    0.3662876519888169
85 1    0.5154157971760249    0.5057948838571785    0.4921749528785772
86 1    0.6163602872396645    0.6237888112316792    0.6324086000909755
87 1    0.5029471409254384    0.5092681165320926    0.7581010830703603
88 1    0.6417737862536764    0.6236806217577654    0.8634052852718624
89 1    0.5148610028333509    0.7452776080861716  0.001636789660733227
90 1    0.6238867284566881    0.8762412324477264    0.1125979725382829
91 1    0.4975102816381703     0.760978335435356    0.2570528790879816
92 1    0.6320442880992401    0.8781896711935996     0.375353219669525
93 1    0.4969805160421688    0.7512444023898185    0.4981521062262292
94 1    0.6213803068347823      0.88101029205389     0.633869557726319
95 1    0.4868950757256378    0.7360665927936133    0.7483917640183909
96 1    0.6239046311869009    0.8563598996216019    0.8575506263881034
97 1    0.7445337024720954    0.9852955295092222    0.9831644180117861
98 1    0.8662523780789083    0.1326978037021493    0.1248444618628802
99 1    0.7565540905802567 -0.002098146266850537    0.2687814890013541
100 1    0.8700967649755953    0.1283930482808791    0.3680626454304837
101 1      0.74787703840146    0.9932750087811006    0.4953457578419672
102 1    0.8721964856931956    0.1278496499271421    0.6178199762384184
103 1    0.7634654885252034   0.00688610257845481    0.7635551668838974
104 1    0.8819723255857964    0.1360544345961911    0.8812784783389194
105 1    0.7546663466418272     0.253277160498794     1.009381864732918
106 1    0.8839424843384586    0.3793725001816012      0.13439710840386
107 1    0.7410483231200325     0.253811910712088     0.238265925561023
108 1    0.8739983717488858    0.3744679778455597    0.3671339357435173
109 1    0.7506853835621098    0.2471679478640184    0.5076624322975057
110 1      0.87594718551827    0.3753779405339013    0.6316769439387289
111 1    0.7446936846468438    0.2554996071044747    0.7460259424479564
112 1     0.881980705920188    0.3765609413153788    0.8722157925337578
113 1    0.7471797541875919     0.498600438803191     1.002062788254607
114 1    0.8654328824257992    0.6376514801715014     0.106153422279028
115 1    0.7409893368138838    0.4981826036749026    0.2467036378296105
116 1    0.8798086730263063    0.6276213602676453    0.3835532691926641
117 1    0.7415838555365706    0.4929569517923491    0.4960575268095573
118 1    0.8793646881402851    0.6364048509623783    0.6269932487150166
119 1    0.7435878217910507    0.4796839612207079    0.7466774816032343
120 1     0.858263149756619    0.6293914908941192    0.8780624414542085
121 1    0.7341240564209131    0.7488541523678994 -0.001954975335014569
122 1    0.8664269907759723     0.880885266624694    0.1291306496516037
123 1    0.7463752282666938    0.7540403457399425    0.2547698289704695
124 1    0.8698256734524354    0.8664465586770426    0.3683135605229634
125 1    0.7451261132144654    0.7547393951041114    0.5134583888047469
126 1    0.8883390147713596    0.8872603046258206    0.6301743488476266
127 1    0.7621599849494319    0.7469295050614766    0.7468571815996053
128 1    0.8791466629274962       0.8721518199738    0.8765136681267065
ITEM: TIMESTEP
200
ITEM: NUMBER OF ATOMS
128
ITEM: BOX BOUNDS pp pp pp
0.0000000000000000e+00 1.4212108580510600e+01
0.0000000000000000e+00 1.4212108580510600e+01
0.0000000000000000e+00 1.4212108580510600e+01
ITEM: ATOMS id type xs ys zs
1 1    0.9713448612623744  0.008593225158715384    0.9964589812931947
2 1    0.1462476644218266    0.1116533685847263    0.1244679291339957
3 1    0.9843824816500262    0.9983137671145121    0.2586783202335834
4 1    0.1154278023913865    0.1465671232088566      0.37389202183154
5 1  0.001981221059122662    0.9846861683621962    0.4694902522320588
6 1    0.0998896560548739    0.1032321054250292    0.6066873898485192
7 1    0.9923445784949604   0.02018145094446179    0.7682222653267031
8 1    0.1328982429197457    0.1204826765539616    0.8758849542232728
9 1    0.9985175414582685    0.2582206056741892   0.03118225191580253
10 1    0.1161740815670457    0.3983100714959606    0.1287317974006214
11 1   0.01400785891302201    0.2437744400732231    0.2285129881961771
12 1     0.126221475077617    0.3617765172845401    0.3802149681966443
13 1    0.9868758557606829    0.2708787425844524    0.5005412919346995
14 1    0.1273829096246101    0.3753988933531695    0.6201283204616285
15 1    0.0166810846185396    0.2442492308047199     0.729626172988602
16 1    0.1108529497182169    0.3605986232149218    0.8664931638077236
17 1    0.9947264303801419    0.5079378071288623    0.9905690075752106
18 1    0.1446060654679232    0.6007236594684993    0.1226207364512235
19 1    0.9967697262387801    0.5223889615453007    0.2543800719886136
20 1    0.1407796835687886    0.6412093408830192    0.3815835958468215
21 1    0.9958803262155436    0.4893410274531105    0.4985236069060317
22 1    0.1310596846960233    0.6237894968312977    0.6084526376529442
23 1  0.005114602231310746    0.5159006370483512    0.7619247200624082
24 1    0.1515397735179326    0.6071085015616092    0.9057799364662034
25 1   0.01606217767172754    0.7516022874879428  0.008175917690972132
26 1    0.1327956903145374    0.8995971820461904     0.131883677636546
27 1   0.01078284548698486     0.738471328635665    0.2444099372580019
28 1    0.1387145098875761    0.8747624379167173    0.3677857278517269
29 1  0.001797839147290617    0.7605279849731759    0.4926038031475248
30 1    0.1058667365189904    0.8797513933235577    0.6280403887437294
31 1   0.01437931997477793    0.7346518700498201    0.7673352374979522
32 1     0.110811728294139    0.8945351926403368    0.8687247123932285
33 1    0.2655004881435409    0.9967011512683008    0.9668684677301809
34 1    0.3589120346721638    0.1041607365343187    0.1195903595075676
35 1    0.2566958891561843   0.00487459040918984    0.2518827689765124
36 1    0.3863488892454325    0.1056237123958313    0.3902132110461607
37 1    0.2376692423501952  0.007798579764000046    0.4953161638174098
38 1    0.3814822825782392    0.1149005509275847    0.6322329949773074
39 1    0.2466400552841523 0.0001692597780187732    0.7470452363017858
40 1    0.3694348460585576    0.1395311464523622    0.8628110726891749
41 1    0.2491051121083298    0.2470083063386919  0.002199517601248796
42 1    0.3783471973562335    0.3659823371965636    0.1261182478727358
43 1     0.249665426491624     0.241993765214056    0.2382311517425651
44 1    0.3789683993496779    0.3703105714687499    0.3917012328203918
45 1    0.2524845496952142    0.2391658541790977    0.5202339288375135
46 1    0.3808513968298741    0.3739812043509743     0.622102955019143
47 1    0.2468936553708092    0.2434845923783951    0.7219169612670844
48 1    0.3751250165335794    0.3491404532970073     0.860660050503722
49 1    0.2765571856622284    0.4641842390584003     0.987177108076482
50 1     0.363388884801661    0.6324525012909369    0.1138240673503202
51 1    0.2466802639813613    0.4937467701156339    0.2638851728804948
52 1    0.3719108697671832    0.6132129142685547    0.3708293190632173
53 1    0.2647993299196567    0.5107729115100457    0.5057202504516201
54 1    0.3757145470128463    0.6226223384945333    0.6141521065777462
55 1     0.263929856978932    0.5021905760788488    0.7394629993606922
56 1    0.3602121672883006    0.6358821660721388    0.8893251325001845
57 1    0.2322029673687463    0.7742887118588093   0.01376709661931385
58 1    0.3772722622505486    0.8813361848636867    0.1127643046686229
59 1    0.2556508488216665     0.760072202742173    0.2581829338976243
60 1    0.3679162791161446    0.8960840463413707    0.3830241470386708
61 1    0.2651849321624266    0.7537208086128909    0.5012575953435535
62 1    0.3823547865837157    0.8867208710962593    0.6350666284582612
63 1    0.2398990106278978    0.7584585145466354    0.7558562368929457
64 1    0.3789877775789715    0.8629287659292555    0.8639947283222349
65 1    0.5005724374444886  0.001987673009880555    0.9866550311773556
66 1     0.638764146948695    0.1064005950803393     0.115950692877918
67 1    0.4937167731206051  0.007054260381939861     0.234338095033865
68 1    0.6365335010356677    0.1279806857183874     0.362714023121288
69 1    0.5260207186883115  0.003776644304785099    0.5057683019343989
70 1    0.6311739986244571     0.104737582009658    0.6453992203825692
71 1    0.5085869260780439   0.01638855707459428    0.7761390967335453
72 1    0.6498365065470677    0.1389907567591776    0.8791973278572101
73 1    0.5005477612482215    0.2144589582071303   0.01765720884931021
74 1    0.5984846858388165    0.3634976469195711    0.1162737422143388
75 1    0.5001745875838718    0.2381116100839767     0.242353281157725
76 1    0.6271300813677111    0.3575911975592261    0.3821252938953513
77 1    0.5030674622100475    0.2249350376382124    0.5074566790985598
78 1    0.6010423780313767     0.374866972779448    0.5996906409676428
79 1    0.5172874896727395     0.239849916136323    0.7444154811035729
80 1    0.6201986374755903    0.3738624426934115    0.8911785437388492
81 1    0.4886947008251112    0.5051720949725899    0.9852679931117115
82 1    0.6093686995227585    0.6229343259645004    0.1530726104007513
83 1    0.4932127346808318    0.4746157254784006    0.2544293086794246
84 1    0.6211014651029364    0.6291898591617971    0.3624115380582197
85 1    0.5000164479251045    0.5115189108997186    0.4825465739404375
86 1    0.6257923795740936    0.6290461192609514    0.6352456624495412
87 1     0.496586576761599    0.5109708724692242    0.7749700172806432
88 1    0.6438969328724636    0.6341502633736297    0.8529465049315549
89 1    0.5050520042962899    0.7375908663496753    0.9884757258262545
90 1    0.6242655831280585    0.8936422432443969    0.1401761044310156
91 1    0.4844347367929118    0.7626496817827674     0.254112788687182
92 1    0.6283903103956048    0.8545186352166529    0.3751024622175069
93 1     0.491383639803974    0.7671860728046322    0.5038633188261973
94 1    0.6193677904507815    0.8783877841978448    0.6492054332610898
95 1    0.4802229416291813    0.7262416543171406    0.7566142726060534
96 1     0.616256693108439    0.8584498114491712    0.8500883166962584
97 1    0.7396925643247663    0.9756652603491403    0.9746753874732657
98 1    0.8584151786549742    0.1098582878744734    0.1326119052119802
99 1    0.7529459951432785    0.9906418211851566    0.2620345597005974
100 1    0.8691943178046744     0.149223534951485    0.3722842188582568
101 1    0.7534959058812966    0.9992103841899235    0.4926370515723881
102 1    0.8854810018901074    0.1188929525148238    0.6075834016550553
103 1    0.7667464248649177    0.9944775812511301    0.7628189565188611
104 1    0.8646567099122179    0.1568068369240155    0.8849725597508197
105 1     0.772016878910545    0.2751801040067228   0.02163287195256294
106 1    0.8922913612840958    0.3988564463625884    0.1329553172825438
107 1    0.7378260756583492    0.2679264468959368    0.2331138780067424
108 1    0.8737136426303913    0.3787131684647895    0.3565108721563232
109 1    0.7612890661738994    0.2606375029774453    0.5105648093182923
110 1    0.8825527616536227    0.3824242388401944    0.6441465736236954
111 1    0.7404568830284819    0.2684108607439385    0.7448841785799097
112 1    0.8951684748746389    0.3688423117877732    0.8620047118899408
113 1     0.755234956128684    0.4954933109268408  0.007806352828067781
114 1    0.8608712226870483    0.6324259880972244    0.1149540263138124
115 1    0.7549635022692371    0.4990136075869086    0.2653809882992647
116 1    0.8676886811353509    0.6389356292440077     0.393739880514337
117 1    0.7413081906047342    0.4941899219896423    0.4951855034545183
118 1    0.8827273766028189    0.6192717471250304    0.6286792979563597
119 1    0.7362854452982359    0.4847685671690711    0.7513555819307816
120 1    0.8671000826794777    0.6205580693735462    0.8834412346019458
121 1    0.7240809698556098    0.7510279155101799    0.9977897115741625
122 1    0.8635386660043395    0.8704078455336935    0.1150054253675324
123 1    0.7447691421045385    0.7352371147864383    0.2346234236173998
124 1    0.8694496890634202    0.8559028870845559    0.3692573678745306
125 1    0.7547319461085983    0.7645638297060833     0.528992003295616
126 1    0.8968043453912047      0.89510788412124    0.6250590896304381
127 1      0.76678102832856    0.7672819844871369      0.72955493570464
128 1    0.8904855305724401    0.8565090500551389    0.8785532981410585
ITEM: TIMESTEP
300
ITEM: NUMBER OF ATOMS
128
ITEM: BOX BOUNDS pp pp pp
0.0000000000000000e+00 1.4212108580510600e+01
0.0000000000000000e+00 1.4212108580510600e+01
0.0000000000000000e+00 1.4212108580510600e+01
ITEM: ATOMS id type xs ys zs
1 1    0.9749542581349796  0.004276341661853165    0.9896040842103986
2 1    0.1343813259168655    0.1048039003002051    0.1047347191261284
3 1    0.9809826280461537    0.9998878759128907    0.2560146377270835
4 1    0.1099290181708793    0.1457680149685833    0.3901065905310124
5 1    0.9875165411972349    0.9861619775122262    0.4611540278975838
6 1   0.09452184932468342    0.1040581168651479    0.6010157558877214
7 1     0.974294929562725   0.02691945518754569    0.7794090223967474
8 1    0.1331481220944003    0.1285698826682329    0.8902844424156668
9 1 0.0009887171134945289    0.2382672799521269   0.01521314981980535
10 1    0.1101607894816626    0.3970256129437894     0.133925951573933
11 1   0.01652979437694577    0.2415692906103189    0.2363693151129175
12 1    0.1271899926372851     0.364503075604478    0.3860648407940716
13 1    0.9783967953595556    0.2763830043461972    0.5175896648228561
14 1    0.1208717034386046    0.4013105238610186    0.6264335912563931
15 1    0.0102129842835332    0.2306514211263513    0.7302790655621518
16 1    0.1088897314088634    0.3628545404076603    0.8670591899887562
17 1    0.9847558629141066    0.5053757228472279    0.9834128668450693
18 1    0.1541970791475016    0.6127762245244177    0.1160477022781923
19 1   0.00991744009681246    0.5357595462587387    0.2771795047018896
20 1    0.1358238738529763    0.6429282481430819    0.3928635755093708
21 1    0.9931932597785468    0.5030579030277871    0.4738368599445916
22 1    0.1153051007932227    0.6253559349955816    0.6130032199571361
23 1   0.02592305023983855    0.5219751825537682    0.7648922320535061
24 1    0.1493551813621235    0.6088407561474739    0.8996426546655391