ITEM: TIMESTEP
0
ITEM: NUMBER OF ATOMS
128
ITEM: BOX BOUNDS pp pp pp
0.0000000000000000e+00 1.4212108580510600e+01
0.0000000000000000e+00 1.4212108580510600e+01
0.0000000000000000e+00 1.4212108580510600e+01
ITEM: ATOMS id type x y z fx fy fz
   1 1    0.11348227000000000   14.20813487051059987    0.04902040000000000   -0.61856783004651816    0.47254608474765075    0.40116661939809373
   2 1    1.82531226999999996    1.79446915000000007    1.81292073000000009   -0.03692121561925354    0.03154636404867298    0.14889814878504304
   3 1   14.18596114051059942    0.00671096000000000    3.46632049000000020    0.17654675782289117   -0.03234333902463903    0.25418007517247093
   4 1    1.70951059000000005    1.83843288999999999    5.25293177000000000   -0.05877432843046906   -0.60076922230049923    0.23171804128484422
   5 1   14.10116033051060036    0.01135405000000000    7.06707332000000044    0.58738650637252598   -0.47767026816129277    0.52404317471885842
   6 1    1.80426839999999999    1.84651388999999999    8.85146892999999935   -0.28537952956101076   -0.14047307654369970    0.11367923378698383
   7 1   14.16841061051060002    0.06404260000000001   10.65282526999999924   -0.01680605715452177   -0.02289516568494421   -0.32303757603349342
   8 1    1.69047488999999995    1.87914062999999998   12.40726742999999921    0.60955857409236092   -0.30789405266434583   -0.29237206113324282
   9 1    0.09042169999999999    3.57438793999999982   14.09925449051059942   -0.77449987387627173    0.17558985732488361    0.74813992621611636
  10 1    1.83533607000000010    5.29059670000000004    1.80155104000000010   -0.42561045696120525   -0.05359625312263193    0.11805658240867889
  11 1   14.16484906051059944    3.49929968999999996    3.63534509999999988    0.08924972600077524    0.17370468568429626   -0.45844052657630396
  12 1    1.80242367000000003    5.43923688000000016    5.25603995999999984   -0.13853107025073694   -0.11985798944759679   -0.00332229722886179
  13 1    0.07074930000000000    3.52126308000000021    7.10680042999999984   -0.14686680550225639    0.24041931905816361   -0.07034593381617796
  14 1    1.72792094999999990    5.29190278999999997    8.95636992000000021   -0.06519142292093040    0.09915919677245247   -0.55546349033442888
  15 1   14.12592067051060063    3.62712766000000020   10.69633705999999940    0.22659645143590862   -0.57744890054209264    0.10909764435571984
  16 1    1.80555032999999998    5.25847449000000022   12.56901401999999912    0.20007307666826762    0.61576878998776841   -0.84297390622262991
  17 1   14.16813205051060010    7.09160625999999983   14.21180302051060096   -0.09344793678236735   -0.32178197185427881    0.34600356546000965
  18 1    1.84447445000000010    8.93489684999999945    1.73838675000000009   -0.25474122024611878   -0.07771253863754678   -0.33451420787688046
  19 1    0.03641569000000000    7.17362291999999968    3.45429989000000015   -0.12912298688232832   -0.20390977733218774    0.08585335219735382
  20 1    1.69796041000000009    8.65073995000000018    5.42099278999999967    0.78923375302419341    1.17453459349813927   -0.64071673967853315
  21 1   14.18167193051059982    7.13846357999999981    7.03124885999999982   -0.20533265297277992   -1.07546064815895503    0.75015480137606971
  22 1    1.63913932999999989    8.94644418000000030    8.97688793999999923    1.05819851833598100    0.10318267404005216   -1.08885429324257066
  23 1    0.15413884000000000    7.21666571000000001   10.65536071000000007   -0.83523664629538252   -0.82450111639070467    0.59078884687171551
  24 1    1.71340328000000008    8.86753855999999985   12.49876640999999999    0.66821910356960190   -0.09060261924552127    0.02760409838208081
  25 1    0.06775054000000000   10.66780198999999918   14.15762362051060030   -0.47739909244787820   -0.27506573805009843    0.74511600522702470
  26 1    1.83651282999999999   12.47027965999999921    1.68833739000000005    0.12099125292257286   -0.28975615584827613    0.64238190493838054
  27 1   14.13245113051060109   10.61190434000000060    3.42957650999999997    0.75528037372752144    0.07571684126258044    0.83532449016561316
  28 1    1.80552332999999998   12.28998059000000076    5.33047161000000003   -0.26184001603958496    0.57105088998693077   -0.40240980532790749
  29 1    0.03406927000000000   10.68544063000000044    7.02858551000000009    0.30619077972779463   -0.23392582302877557    0.31602776793140019
  30 1    1.79961251000000000   12.41840404000000042    8.97362625999999963   -0.18200977342561750    0.04836301935656939   -0.46562998545862139
  31 1    0.01529365000000000   10.59629376000000001   10.72130063000000000   -0.42846086797280997   -0.06146420070344719    0.30848755096848901
  32 1    1.62351595999999998   12.46083003000000033   12.54386142999999976    0.66226033987870514    0.20672011902756612   -1.03667985819977337
  33 1    3.55794596000000007   14.14799349051060062    0.01220536000000000    0.12407231735409301    0.36522516661652116   -0.17998912740372708
  34 1    5.36192158999999968    1.89066522999999997    1.80550484999999994   -0.32281592754540328   -0.61610494561954909   -0.27073411638238781
  35 1    3.52067753999999988    0.04714725000000000    3.65283026000000000    0.02520361540962363   -0.49041867294885994   -0.27093057585548108
  36 1    5.27717478000000018    1.78756206999999989    5.24124515000000013    0.55993320883866571   -0.01685664974189929    0.20497209653032494
  37 1    3.51016199999999978    0.02227322000000000    7.10687716999999974    0.11290913609723732   -0.27889778379875857   -0.27090954860077737
  38 1    5.44528128999999961    1.61908036000000011    8.87980360999999974   -0.67779674959516978    0.56101678124615517    0.00766636181357573
  39 1    3.54635882000000002    0.10746486000000000   10.63463660999999938   -0.04074701231231961   -0.22343294165320352    0.21356801675204184
  40 1    5.28504971000000001    1.76451855000000002   12.50368663999999974    0.00829322765420831    0.25880948931454395   -0.29368557066221873
  41 1    3.51632863999999978    3.57323675999999990    0.04292767000000000    0.40341248790087997   -0.01138195621733943   -0.21524687516226754
  42 1    5.37914949999999958    5.34374004000000014    1.69761932000000004   -0.37677850095489140   -0.05566530157350910    0.18579401352258065
  43 1    3.57726020999999994    3.56502074000000002    3.61794378999999999    0.04244226215577251    0.11782187323569460   -0.30427697097933193
  44 1    5.32090828000000027    5.26170632000000005    5.37711433000000039    0.57588709451441378    0.24468377595995472    0.01040918523053228
  45 1    3.52791009000000022    3.51422239999999997    6.94803554000000023   -0.00875598366672464    0.23979358171399248    0.86975132567873126
  46 1    5.48107022000000033    5.33199089000000015    8.86693454000000081   -0.67453075654013750   -0.09343697450807631   -0.07985008938268698
  47 1    3.48735299000000021    3.58189194000000022   10.56226002000000008    0.76677515105041938   -0.18821191922943900    0.55173465719460713
  48 1    5.49647329999999990    5.47277176999999959   12.46900199000000065   -1.09695498484715337   -0.31745495726630646   -0.23148970203015568
  49 1    3.53401560999999997    7.06728508000000044    0.11851477000000001    0.21334829148440607    0.05775695427571211   -0.42457821764033088
  50 1    5.37751937999999985    8.83808965000000057    1.80646700999999998   -0.26478977131799319    0.35482139775524085   -0.06112631148921294
  51 1    3.62716603000000015    7.12560446999999986    3.52239863000000009   -0.05937560712493806    0.14982986941789275    0.05485654514304869
  52 1    5.39879348000000014    8.90161634999999940    5.36615252999999992    0.06164448432044060   -0.17329885987499982   -0.43584346248715222
  53 1    3.65087609000000013    7.00857912000000027    7.07950606999999987   -0.34803126566079401    0.23242507772000448    0.47183781311213263
  54 1    5.28160185000000038    8.81115911999999923    8.92637668999999967    0.63016243826354157    0.15523375191680439   -0.31880453184774737
  55 1    3.55467005999999985    7.12834171999999988   10.66285191000000054   -0.30451900562804868   -0.29861656239770962    0.08641884344486915
  56 1    5.31358193999999973    8.95494017999999947   12.49736367000000037    0.12790981781470784   -0.57406878747337775   -0.42856331838475625
  57 1    3.53314440999999979   10.75815404000000086   14.11378921051059976   -0.20646245364795301   -0.27448856876734889    0.49923852954889780
  58 1    5.28290368000000043   12.37260125999999971    1.81275303000000010    0.36270438407530226    0.44510727877198025   -0.35865462540953441
  59 1    3.62368975000000004   10.62147620000000003    3.41623418000000001   -0.19628875541195900   -0.15412040687682596    1.04418366525786621
  60 1    5.46867299999999990   12.40237705000000012    5.40535520999999974   -0.78517937369316138    0.10547184483654992   -0.49463757219186627
  61 1    3.64235592999999991   10.69127469999999924    7.05933766999999968   -0.40556285852378243   -0.30680651445699691    0.55557334103305278
  62 1    5.36729661000000036   12.47317323999999950    8.90515800999999918    0.03091023791972218   -0.00838747630722671   -0.21904686046732785
  63 1    3.55718703000000014   10.64346517000000070   10.65170535000000029   -0.20672718053293637   -0.13475279354097325    0.26079814623234238
  64 1    5.30135953000000004   12.34327314999999992   12.43780641000000031    0.50745078703207502    0.41958181816639140   -0.06613121562224650
  65 1    7.10846609000000029    0.03985644000000000   14.15512939051060037   -0.33147355080260127   -0.26595889962742192    0.13502772610104899
  66 1    8.95597766999999934    1.66556817000000001    1.77368820999999999   -0.38808354897998837    0.58536931719837548   -0.24641104634716096
  67 1    7.16187518999999995   14.18797642051059960    3.58271907999999994   -0.33008297614563703    0.04155725471695743   -0.22209268075783545
  68 1    8.81564161999999918    1.83880098000000003    5.32027583999999987    0.02965498507254268    0.02626278596500416   -0.07490348787223072
  69 1    7.10008236000000004    0.01425190000000000    7.02321332999999992    0.23024576747171394    0.34255915764030243    0.19545388422650017
  70 1    8.97525212999999944    1.74540041999999995    8.86016105000000032   -0.29537964210831974   -0.24707745037226742    0.13725493521193843
  71 1    7.04843697999999996    0.00627891000000000   10.68364279999999944    0.39934620140716837   -0.22215251830514568    0.78413556596987899
  72 1    8.85724330999999943    1.87606087000000010   12.50845196000000037    0.17322071212283646   -0.40840331802931423   -0.11846915069688350
  73 1    7.04207421999999994    3.67697662999999997   14.13420349051060043    0.40709227187661423   -0.66890006204267138    0.45729761560885862
  74 1    8.88176346000000017    5.48067511999999990    1.74319328000000007    0.14589368487057713   -0.93468122181254354   -0.22385131959835525
  75 1    7.01600921000000000    3.60613922000000020    3.47203234000000016    0.51368605177434945    0.19984351525773869    0.11608364403649106
  76 1    8.79283260999999960    5.22464398999999968    5.38335629000000004    0.15745930560237240   -0.06506429407084230   -0.20290985139343845
  77 1    7.04526200000000014    3.48530075999999989    7.17774727000000023    0.23776346025055270   -0.26084243213725300   -0.10435582659874808
  78 1    8.86459948999999980    5.29505076999999957    8.92449642999999959    0.43984279212130378   -0.06851864872355387   -0.59005415525544103
  79 1    7.24056337000000028    3.53810300999999994   10.72712901000000052   -0.76196022353237491   -0.12458182611563562   -0.32546115379239798
  80 1    8.88969097000000019    5.27605770999999990   12.40935376999999917    0.28003863460745360    0.17352387580897244    0.29686792739648821
  81 1    7.10266470000000005    7.14194271000000036    0.06756010000000000    0.17183774726074036    0.31001045644343500   -0.02078094926109103
  82 1    9.00231767000000005    8.88706741999999927    1.71175184000000002   -0.35276766271816279   -0.24090093194808818    0.29050775987022193
  83 1    7.14590789000000015    7.02314084999999988    3.51648497000000004    0.01070025986862367    0.22938067419623928    0.38753734324596056
  84 1    8.89177304999999940    9.07978360999999978    5.24300318999999959   -0.19795869091084334   -1.28079389792770604   -0.34046615457967544
  85 1    7.23073001000000026    7.10004825000000039    7.14790184000000028   -0.41314930746672568    0.36810312295940084   -0.27350632778907541
  86 1    8.88800542000000071    8.78603638000000053    8.92288761000000008    0.05808782931307686    0.46900680014067542    0.21883195742189970
  87 1    7.16594554000000006    6.91711425999999996   10.58014170000000043   -0.02914517067541250    0.93698990307217978    0.15028910932216211
  88 1    8.80146504000000007    8.77023108999999934   12.43647331999999928    0.58260854034037235    0.46664289184535734   -0.26415039205879831
  89 1    7.15263447999999968   10.50888645000000032    0.02604511000000000    0.01649607007870085    0.43064358523205493   -0.07712599726198505
  90 1    8.88300274999999928   12.47280373000000075    1.74682164000000006    0.06173746236525393    0.53973073368303204   -0.26904726945685575
  91 1    7.15868599000000039   10.77184173000000023    3.54363010000000012   -0.16646714159174872   -0.16671721490276148   -0.12183297661584261
  92 1    8.88393364999999946   12.53332456999999955    5.32580293000000005    0.00089700124926947   -0.37544909675277660    0.06739678656796644
  93 1    7.16859183000000044   10.59438650000000059    6.98673227000000008   -0.07347217668209464    0.11325646109462596    0.93562655250906668
  94 1    8.77859776000000025   12.46146388999999921    8.91600185000000067    0.26202094811686150   -0.05719761671821138   -0.03038247265068088
  95 1    7.17356180999999982   10.70159980000000033   10.78047416000000069   -0.48560142406322260   -0.29194839976183268   -0.52589972455526923
  96 1    8.86835291000000048   12.31076436999999935   12.45243351000000054    0.20891264242595764    0.65532985968845181    0.04766005052284020
  97 1   10.78646172000000014    0.09206320000000000   14.20950776051060060   -0.71664084282080642   -0.71410521574818375   -0.22432428983116809
  98 1   12.40385653000000055    1.82912680000000005    1.69041945999999998    0.35828515948392514    0.25299216495989840    0.28843415024712532
  99 1   10.64787661000000085    0.09817156000000000    3.54196869999999997    0.34724495104601066   -0.29511561163236155    0.29702985821979166
 100 1   12.51865057000000014    1.80081628000000005    5.36475548000000035   -0.31883120458223146   -0.14047872633589550    0.29922028698574243
 101 1   10.63578210000000013   14.14090876051059986    7.14744989999999980    0.34613752449671176   -0.05815963693447244   -0.17376781585618556
 102 1   12.29390313000000035    1.73287670999999999    8.82663185000000006    0.34735863859390642    0.32662025583202420   -0.15466123182384051
 103 1   10.72617396000000056   14.20811640051060110   10.70309065000000004   -0.14389410834929250   -0.42732932198375401    0.05464379450281288
 104 1   12.45341982999999964    1.77388860000000004   12.49746032000000007    0.59050700568531700   -0.04266232154631372   -0.17123068160238974
 105 1   10.70119191000000036    3.48509468999999994   14.13122036051059993   -0.37510169858384146    0.35090052221538193    0.52315857794626919
 106 1   12.37301199000000018    5.24391987000000004    1.93153215000000000    0.34525540593265897   -0.00713308227930895   -0.58774040093945945
 107 1   10.72099507000000074    3.56325843999999980    3.68346018999999991   -0.49159259755940637   -0.44508747443728042   -0.27023748836873246
 108 1   12.44100272000000018    5.24925510000000006    5.28547180999999977    0.08126901286129491    0.63385775331786287    0.07736537380493463
 109 1   10.59854353999999965    3.52594171000000012    7.07118346000000031    0.22589504554155185    0.20218793022489293   -0.06992571340028490
 110 1   12.46869784999999986    5.27409927999999972    8.95357440000000082    0.11318044578306546    0.60929641005214741   -0.40447812828562424
 111 1   10.72494035000000068    3.51829844000000014   10.63194625999999943   -0.40654489364613217   -0.18546654047464708    0.14408849951939642
 112 1   12.28378694999999965    5.27631779000000023   12.38475545000000011    0.70809577116852451    0.46576253236634435   -0.17429268859620331
 113 1   10.68151098999999959    7.05674254000000012   14.15856730051060097    0.31592815738477514    0.02782334749592716    0.38058612680200954
 114 1   12.48962943999999986    8.92754208000000027    1.81799303000000001   -0.78474744506714322   -0.04058488139691988   -0.75139531202196008
 115 1   10.57857837000000067    7.08938916999999957    3.40152607000000007    0.24495285727919458    0.10388634896357159    1.07704294565278413
 116 1   12.46038944999999920    8.83171693999999974    5.38191801999999964   -0.12778847012295047    0.45155802573954629   -0.76589555576681967
 117 1   10.71875239000000057    7.17563819999999986    7.07207313999999965   -0.52381469561564964   -0.56341123838566232    0.06995517492321308
 118 1   12.54418689000000064    8.82773612999999990    8.72566192000000029   -0.25150018795999907    0.57909837863441926    0.49381733928078897
 119 1   10.63412639000000048    7.06336537999999958   10.67428980999999943    0.03545883187466339    0.28821288911224568   -0.15370271904103233
 120 1   12.38529836000000017    8.87920244000000025   12.49838695000000044    0.14662052777474605    0.06317734582426879    0.01347248066389634
 121 1   10.62413244000000034   10.75680674000000003    0.06263418000000000    0.27033033220238273   -0.29312637512071787   -0.26886298069549108
 122 1   12.39079702000000083   12.43346745999999925    1.85413442000000006   -0.02738797572136431    0.07650727834218889   -0.35710949644404921
 123 1   10.58162543999999983   10.74737415999999968    3.55868071999999991    0.51519087762551630   -0.12862925706905159   -0.07892163631838724
 124 1   12.46624483999999988   12.33546785999999962    5.36220299000000011   -0.17741286516348476    0.44788582284163503   -0.58601802958275917
 125 1   10.57776117000000049   10.60848207000000087    6.97258553999999986    0.19657496871201618    0.25311128583595072    0.95488287133128957
 126 1   12.46737755000000014   12.25557165000000026    8.95181778000000072    0.31381608860911359    0.80866284890723394   -0.77258539384399716
 127 1   10.78990673999999927   10.69694106999999939   10.57291200000000053   -0.74337564523182964   -0.52069925785540860    0.57301803040278387
 128 1   12.58343505000000029   12.45147846000000058   12.50113557000000064   -0.36825800922365465    0.01907506809043211   -0.34410086634492537
ITEM: TIMESTEP
100
ITEM: NUMBER OF ATOMS
128
ITEM: BOX BOUNDS pp pp pp
0.0000000000000000e+00 1.4212108580510600e+01
0.0000000000000000e+00 1.4212108580510600e+01
0.0000000000000000e+00 1.4212108580510600e+01
ITEM: ATOMS id type x y z fx fy fz
   1 1   -0.01202243252943938    0.21952373548913084    0.02506786119908658   -0.66931228671809795   -0.81429912347800126   -0.09326578130116636
   2 1    1.73185811471114981    1.54382814993989315    1.75459322602325085    1.26962146143756427    0.82450602221118674    0.28695191538341724
   3 1   -0.01579379387847497    0.04569048046253138    3.48347774700814972   -0.62410502713787730   -0.29882610160808754    0.42733338895571665
   4 1    1.70297262492106238    1.79975590605563163    5.22555242183848900   -0.08379214757792669    0.90994881274865880    0.15159735298821517
   5 1   14.25228122602949554   -0.05586494578925721    6.81762279029282769   -0.44304967780403187   -0.26496768390646641    0.19565188793495120
   6 1    1.61052658213389699    1.66802756101930139    8.77969171399078263   -0.00356846224926638   -0.06416065938028367   -0.14453799928339858
   7 1   14.06295963931552961    0.24326870902025821   10.69791038859344390    0.47630347942062989   -0.40908781017405116    0.37652148728600310
   8 1    1.71881509867350246    1.90409001491246310   12.43573587843235195    0.21358153835788424   -0.50673729403263124    0.08901357486771549
   9 1    0.02977467356778172    3.59178579420123478   14.20105997543684495    0.21626052910450552    0.22498061911176837    0.91989339608594256
  10 1    1.96896065357118299    5.39187219047496402    1.69978865464389295   -0.99788433789863862    0.46770671393969421    0.44850669065959908
  11 1   14.19680118491823606    3.49013456085814155    3.42664141232293540    0.45057607386743087   -0.08866944753256167    0.06732332601959817
  12 1    1.81191056615957957    5.20396075846382722    5.20524617121641597   -0.08907881658296155    0.37057118370094516    0.60093024503575743
  13 1   -0.05105923404981469    3.66711112802444728    7.04725031041092986    0.04546225678596358    0.09821046147988960    0.25667444916631954
  14 1    1.87285996331507065    5.45907532483264468    8.73994547938827893   -0.52368451934707139   -0.91386803089244362    0.79802606076456750
  15 1   14.28144813484139242    3.35176440037789680   10.50659892874222123   -0.01047867964511451    1.17148143602955512    0.07251919910650198
  16 1    1.99136510394053379    5.26954292236138588   12.40996338411131816   -1.62583085019810625   -0.64657646982389516    0.42020477390886629
  17 1    0.03165439375835253    7.15546166178169063   14.16825211344071533   -0.34734388906492220    0.04879463515531274   -0.14420373778089612
  18 1    1.85476061875995568    8.80876832547536281    1.72231977451922336    0.49638057551720027   -0.52468818656012961    0.22249534146336336
  19 1   14.15443247972202556    7.29502235012697220    3.58604628445620666    0.23598657780473650   -0.02917016081464210   -0.34711803559963661
  20 1    1.88107485644474881    8.83626034996984799    5.36002737522464923   -0.18917057109719271    0.13542806884897624    0.32698558877687406
  21 1   14.16358624661125276    6.98104574248120713    7.24358061040188961    0.03780934397090777    0.47538036710097697   -0.93894883890458103
  22 1    1.89480766771348752    8.94311191629627622    8.78611849013126189   -0.69943613291124929   -0.31563506556403920    0.17797344826999684
  23 1    0.14480447302456706    7.25594200149370483   10.86507701229284173   -0.10785766083082350    0.17204474427173991   -0.62909563174753569
  24 1    2.00767664146987457    8.80508661748868526   12.63611503562810334   -0.60847606875070559   -0.43736131084357266    0.33939272183329394
  25 1    0.11156430650641740   10.59479539316816243    0.17227898351425752    0.18779044868292441    0.53282722873832022   -0.80810320455819107
  26 1    1.84069891208409464   12.61817054354873946    1.74928103341571739    0.17104819115224432    0.03676445377539044    0.04151862380630329
  27 1    0.13440628522049039   10.72622798668540511    3.58509484397419209   -0.53964408115964324   -0.86214117618353114   -0.70463189148270711
  28 1    1.82283408450303974   12.37207357036275468    5.24629893182401119    0.42458748835865912   -0.03569097415280145    0.33005868460002208
  29 1    0.06776118033728810   10.74622557693674096    7.03928937412543121   -0.21662371489191212    0.09595125840328063   -0.19626407683995151
  30 1    1.67481119476207629   12.49868055982508253    8.74472683071300949   -0.26248794567975853   -0.20303278420861043    0.94388415584624630
  31 1    0.06196834115669960   10.47592694980959749   10.90172152557101803    0.24866913116903377    0.24530908831098558   -0.42518695732385264
  32 1    1.76965741556331690   12.61797061262370789   12.46888702017101025   -0.75996725031932610   -0.11456583539405368    0.01518381978349552
  33 1    3.67295422903049928    0.09913061573959922   14.01021036680908338   -0.14757211503635065   -0.69328498880520972   -0.29104745250646630
  34 1    5.18758328165159721    1.70626368994180067    1.60571511894747698    0.31908680729352201   -0.05138301070323387    0.87389794530637366
  35 1    3.52399187818909843    0.00789003990174593    3.78431904451278678    0.18620156915376196    0.29500741786464668   -0.94796058899183477
  36 1    5.37874972750276470    1.80346144884981019    5.33337349536764549   -0.09620507173030787   -0.83261668463427330    0.30849911259675655
  37 1    3.35999385785459648    0.08001259602470741    7.12670995147365272    0.48868999249214251   -0.07933976163201099   -0.33981906351379743
  38 1    5.37405225326754010    1.66323488265326858    8.89248048382119372    0.23879785483689109   -0.12224304553987703    0.24669484401308961
  39 1    3.42458994455761090    0.04041673401638585   10.59411678120295264    0.47328549680676202    0.12242612686445203    0.15567927213320629
  40 1    5.32533034402587546    1.96480619668462597   12.41662755171179988   -0.27307955918891497   -0.49806105344346241   -0.05899924771148170
  41 1    3.51093497411051647    3.50996376425595003    0.09123751864798944   -0.02864081633267165    0.11362219859192385   -0.31269383594296046
  42 1    5.23791524745768999    5.30458920255147159    1.83351721004427115    0.62561841131861995   -0.07030091314705386   -0.45110056790679665
  43 1    3.63476084463661797    3.51175090322332606    3.43858155727941250   -0.31528571066546646   -0.16734024437646375    0.28425004661608777
  44 1    5.29387541386474414    5.38934723519861780    5.43120331929565747    0.26147916571494545   -0.57296831107526569    0.23975730246752455
  45 1    3.53577708025460780    3.35120014961849710    7.14859978844025612    0.12865892260256406    0.54821775987862142    0.07945511879467362
  46 1    5.57303789225677537    5.23483153091078002    8.80522741676020715   -0.58208743810991326    0.39664266334831211    0.21780223708922192
  47 1    3.55927690075594994    3.50194403231307305   10.72459658226408408   -0.14698386019739745    0.09887234210215488   -1.60930815701743590
  48 1    5.40344064461293971    5.22497395358645100   12.29231911419594603    0.13224007945354010   -0.02262756863391860    0.34511665730027707
  49 1    3.68217586702620059    6.90973827255245432   14.02565512201761599    0.31968362292678620   -0.44427313038110761    0.87639808175299294
  50 1    5.18328957328878204    8.80578827967500466    1.71267587608895155    0.40224948442755976    0.49329029713540135   -0.00173314256806054
  51 1    3.63859453340748518    6.97595810871228483    3.56999306446646347   -0.37548259019602004    0.51639278675152012    0.30771029567984864
  52 1    5.37764340327192336    8.79475653232375798    5.22657565239231392   -0.22779587024471012    0.00924190414957229    0.57015854067703220
  53 1    3.63525896367458179    7.15122622223606097    7.29281525113379825    0.50956313778045459    0.18086255828756118   -0.69394315643497373
  54 1    5.43047518885132074    8.96922442625827543    8.94029978045734630   -0.87786327023410515   -0.75138145040576632   -0.65512060760684754
  55 1    3.47226419559253063    6.94409663023726598   10.74291055375444870    0.97594969179460767    1.02354555310305684   -0.98253458951840189
  56 1    5.13017952740544469    8.88661394623235878   12.67810414486071124    0.66323186836551740    0.56296474962208032   -0.55746211826453784
  57 1    3.35742281553552013   10.78994698626186199   14.17008938946571384    0.36756312138538766    0.56806336004821600    0.43059616856101607
  58 1    5.38278549568890341   12.42695302791614864    1.74313711807216998   -0.31307655413137270    0.07385250076506350   -0.02594389634641468
  59 1    3.62392180199246683   10.63650638965175865    3.52925269398652830   -0.06018786900109940    0.39647026117390738    0.09231431834637688
  60 1    5.29409901616353018   12.71045231143093091    5.39645016136593991    0.27624610660153004   -0.56858142923581756    0.21991187219218938
  61 1    3.65682356581370716   10.75339085003744088    7.09432608494627637    0.26516098110875957   -0.28810068800317584   -0.13226016545630012
  62 1    5.46462141392815326   12.53892820078443293    8.93748290896534137   -0.30744486870827908    0.02893118605075552    0.13472494128790294
  63 1    3.35629381558124118   10.54285135161371478   10.82893573862090975    0.73006598381083010    0.93127441176754466   -0.62240405612915439
  64 1    5.34414536085170866   12.35737413984668898   12.28819830440057181   -0.19527748787561561   -0.32373682614296950    0.28948979791647356
  65 1    7.00355568142077800   -0.01581988925455791   14.19866675096990427    0.50545101859767516    0.32658307804083125   -0.57743852487546710
  66 1    9.10180292967389626    1.74040196340864917    1.78576959951885361   -0.59946622045356934   -0.92037121137055622   -0.37624277189564242
  67 1    7.10607843824682917    0.05077845399868058    3.47754052152530324   -0.01939342200701879   -0.07115530152769121   -0.22171582385545524
  68 1    8.85205195595203165    1.80002137197057577    5.32367149821687047    0.37537818426220826    0.02509545463355953   -0.40976814522829408
  69 1    7.34944417739204159   14.14957664185755526    7.11331938523354079   -0.36309327959330789    0.49324810406132280   -0.04859625494385497
  70 1    9.00596067548607238    1.70654245740908217    8.98548974823955149   -0.21399069125086528   -0.46007072173914054    0.12360044716160684
  71 1    7.17678246060452807    0.09115662136523164   10.95242417790746359   -0.12847769608794377    0.19872735144537965   -0.53131993337982686
  72 1    9.07379990163870787    1.82622763290969070   12.47383045095388887   -0.18614312945641978    0.44072390744519535    0.08704371858649324
  73 1    7.11695031713844539    3.38746113431281159   14.11017204590403118   -0.08323836965036513   -0.08263226747937655    0.84506534952898005
  74 1    8.89119063104969598    5.31864429689516882    1.55463398894344884   -0.81527318551151451    0.07846006146770752    0.97456688736400277
  75 1    7.04353876030059389    3.47910806302057729    3.56444440268567408    0.05866557269173582    0.07504465260047154   -0.57374444218780163