LAMMPS DATA file

108 atoms 
2 atom types 

0.0000000000000000e+00  10.956 xlo xhi
0.0000000000000000e+00  10.956 ylo yhi
0.0000000000000000e+00  10.629 zlo zhi

Masses 

1 178.49 # element 72 
2 15.999 # element 8 

Atoms

   1 1    1.9467490730185575    1.6077981767278755    2.2475431047983556
   2 1    3.2363397540338679    7.2871883862131588   10.6093947546734171
   3 1    5.0791872325101854    5.3675798328640978    2.2459892941640489
   4 1    8.9281753164684652    5.1304806505247740    7.8224976290160324
   5 1    0.2552149635473160    7.0086949301196233    5.3383078683761864
   6 1   10.7318687001944113   10.8804217294139391   10.6198333754162384
   7 1    7.1937750449098212    3.5387997639199322    5.1364068067733326
   8 1    7.2744908468363567    7.1084769617290275    5.4586647075886070
   9 1    1.6531945209719985    5.2867566882100316    2.6503459242586294
  10 1   10.7089956037119620    3.2730596139414150    5.3011007042587321
  11 1   10.8248255460266201    3.6253509599592477    0.1953332022982756
  12 1    1.9309054724325079    5.1491346348073552    7.7840005405403376
  13 1    8.9458005716732512    9.0418986719339323    8.0212621866721552
  14 1    1.7221956959764668    1.6945734242145472    7.9331243472754052
  15 1    7.3843914969365398    7.2862967138092882   10.4757499671833543
  16 1    8.7245940954740231    9.0314719546865589    2.9551627029441785
  17 1    5.0813474491296162    8.9830796309286853    2.4254562862877083
  18 1    5.4466255308348543    9.3064072006039726    7.9738527531897843
  19 1   10.9604458174125874   10.7458095068678681    5.2936824807193270
  20 1    3.5315226707331475    3.4821655089294516    5.1911564146721760
  21 1   10.9444980670497998    7.2869035485669782   10.3199145340381389
  22 1    1.6486363068446226    9.0992318621290487    7.9333575091398361
  23 1    7.2417284954954768    3.7804691443292073    0.0782943578587435
  24 1    8.9481965565031398    5.4075585472296464    2.6707487360917783
  25 1    3.8264588216475217    6.9997223863132270    4.8056335466169937
  26 1    3.7744597042075432    0.0508760604733601    0.0213402616307190
  27 1    7.2026493888417988    0.0697117651565764    5.2409660477076718
  28 1    5.6639736019707110    1.6216245657460764    2.6325479055978036
  29 1    5.3524106950439281    1.7321385575112040    7.5932830928551276
  30 1    1.4292478699657682    8.9913755839021956    2.5762013424347674
  31 1    3.3333192912028364   10.9279719048435791    5.2465047326850884
  32 1    3.7377963119548920    3.6192465420865516   10.2086201179179987
  33 1    7.1824797711961512   10.9491153038453088   10.5584081842535067
  34 1    9.0350212090818083    1.7935089494877199    2.5193664598310490
  35 1    5.4416447992572889    5.4768867170224285    7.8863113510746006
  36 1    9.0525854019328715    1.7016984843140102    7.7726073408925247
  37 2   10.5075472941709087    9.5621874733075032    1.6863798432312065
  38 2    5.0613608251353863    7.0962082429701168    3.3372206367725519
  39 2   10.8507169260637415    5.6148204529741248    4.0467926555656613
  40 2   10.5275732340536567    1.7486339407304363    4.1968940376207327
  41 2    1.7411944107045056   10.8515721342745337    3.8550668573194136
  42 2    1.7061858585875220    0.0702923990725638    1.1627071165927785
  43 2    2.0986246954107193    3.9490842212221553    0.7287077573495786
  44 2    0.4489024836281483    1.9336588347560104    9.7373093127158921
  45 2    1.7446499252599730   10.8676003136701294    8.9441353659629179
  46 2    1.7629121384302888   10.4966926167264312    6.2737032683941942
  47 2   10.9364731851186345    1.8142736189658684    6.7588624964467279
  48 2    1.8912383962184174    3.3847307106425450    3.3259400722914760
  49 2    1.5125039270791807    7.5109688859479276    0.9513424808333132
  50 2    1.7772300166663004    7.1801331240850983    8.9120634383188779
  51 2   10.7261701229893145    2.2918278970991079    1.6437675955314874
  52 2    3.7221561432712047    5.1054339634851269    6.4588197462854300
  53 2    3.4856809753380995    1.6580625772985420    6.7322779334660785
  54 2    5.3754690890261125    3.5539176217855366    8.7025225792014584
  55 2   10.8110096651537724    5.3032160645937472    1.4689775941698033
  56 2    2.3616533436510982    7.4936110318845097    5.9621871677481355
  57 2   10.8608943466798564    8.6189095867294618    6.9275954366465324
  58 2    3.9072578905397055    1.6535018198602958    4.0841367259560064
  59 2    5.8514963067126988   10.7062406042856288    3.3752330644382487
  60 2    5.5287319915044062   10.6806026775962568    0.7905677517178603
  61 2    3.8919429232354705    1.6570409997711888    1.6331985561640401
  62 2    3.5971725254353690    1.6258070375513309    9.5109857674153737
  63 2    5.7579452996899132   -0.0029946319357234    8.8244715058846612
  64 2   10.8659535215914715    9.1633387872433403    9.6640937625184264
  65 2    3.4790070439566669    5.0860669243853120    3.7611610259344612
  66 2    5.5779659905604682    3.3480225806998836    3.3522516683605126
  67 2    5.3555010846693998    4.1436914150166420    0.5280143555057061
  68 2    8.9673844086316610    7.1110186687542383    6.2122891656547194
  69 2    3.5304486367408305    5.5071085531648105    9.1968567033905657
  70 2    5.3233533421777972    3.7207229558238590    6.0264286322929328
  71 2   10.9234333146644111    5.4512575415243107    9.2136038749240576
  72 2    9.2182111834963152    0.1072209704987553    6.4325448621625965
  73 2    1.7651594768774572    3.5787156741247736    6.2921184208845098
  74 2    6.6330735505958200    1.9556992257312062    0.9721383428870284
  75 2    9.0305867258119186    0.7756300284259845    0.8214927401771682
  76 2    7.3273593067283667    8.7091125616059202    4.3738078546719983
  77 2    7.5080185270686552    1.8981476648173803    3.8759444139174888
  78 2    3.5278469287628900    9.5481207704577518    7.2741198440518309
  79 2    8.9395207534476580    7.2698040129032790    9.0564356368626004
  80 2    7.3729547523025865    1.7675562421638600    9.3215206076712551
  81 2    7.6975313398372229    9.0944884150550287    9.6501322797046125
  82 2    5.8278968297539109    7.2372746307984732    8.6981265545469775
  83 2    9.0629646513332780    7.2204860193157847    3.6393142046927616
  84 2    5.1238721667738725    7.4360560670293054    6.1702687845863728
  85 2    7.3142677734673107    8.9417229685648589    1.4164960562098912
  86 2    9.0943303049811792    7.3156290650851119    0.6661738410849991
  87 2    7.6244183302338016    5.2768024056255323    9.4655887627090625
  88 2    4.0454635969038613    8.9748229162261932    9.6613997293144127
  89 2    9.3122582522460569   10.9050592214454625    9.0160581510820030
  90 2    7.2335920209710141    5.1958410722527892    6.8235915940035667
  91 2    5.4601968199093873    0.3743398485096134    5.9198746514230516
  92 2    0.4297303241171950    5.6157611857396601    6.4872864096275977
  93 2   10.8448961108162223    9.2191052424933329    4.0425773774833109
  94 2    1.5461491827440916    7.3084685474340798    3.4427436167679177
  95 2    3.9594975998927717    9.0760695701286451    4.2187076132826311
  96 2    3.2375800698338812    6.0014081825021020    1.5568240345987272
  97 2    5.2521992602417633    7.1764568917440279    0.8471288701607191
  98 2    9.1213070323181675   10.9040492188667688    3.6314471800467771
  99 2    9.2416265150463861    3.3808510606797499    9.0965290226774709
 100 2    7.1756345087518021    5.9087513720257103    1.5884632051830125
 101 2    8.7740539671775863    3.6852701496732458    1.3083806966048324
 102 2    9.0539227180361284    3.5595163283616627    3.5700187766211324
 103 2    7.1021663663414829    5.2527412010417569    4.5462300653023933
 104 2    3.2703584608933469    9.3255818667004799    1.6431241123110614
 105 2    9.1129260807090144    3.4835890846013249    6.2630194032189319
 106 2    7.2753153124588898    1.6717925264150471    6.7158932303998657
 107 2    2.1100988232186930    3.5399760800090192    8.7571311224585866
 108 2    6.9342673651077220    9.3206719798039703    6.8216293722812651
