ITEM: TIMESTEP
0
ITEM: NUMBER OF ATOMS
108
ITEM: BOX BOUNDS pp pp pp
0.0000000000000000e+00 1.0956000000000000e+01
0.0000000000000000e+00 1.0956000000000000e+01
0.0000000000000000e+00 1.0629000000000000e+01
ITEM: ATOMS id type x y z fx fy fz
1 1 1.94675 1.6078 2.24754 0.158541 2.34579 3.40853
42 2 1.70619 0.0702924 1.16271 -0.714724 -0.663796 -2.74905
48 2 1.89124 3.38473 3.32594 -1.18021 -0.500504 1.17023
26 1 3.77446 0.0508761 0.0213403 -2.34781 -2.29016 -0.201751
28 1 5.66397 1.62162 2.63255 -1.41584 -1.76236 0.354583
61 2 3.89194 1.65704 1.6332 -1.98614 -0.546644 -2.33274
66 2 5.57797 3.34802 3.35225 0.0419337 4.72686 0.481362
74 2 6.63307 1.9557 0.972138 1.14993 -0.370446 0.761252
11 1 10.8248 3.62535 0.195333 0.085999 0.687103 -2.11852
34 1 9.03502 1.79351 2.51937 0.848493 -0.133762 1.64171
51 2 10.7262 2.29183 1.64377 4.36515 -0.481379 0.260622
75 2 9.03059 0.77563 0.821493 -1.33285 -2.18862 -1.08068
9 1 1.65319 5.28676 2.65035 -0.988157 -0.0399738 -0.918002
43 2 2.09862 3.94908 0.728708 -1.39197 -1.40248 0.48916
96 2 3.23758 6.00141 1.55682 1.00208 -0.939303 -0.0475162
3 1 5.07919 5.36758 2.24599 1.00213 1.04227 -0.334071
23 1 7.24173 3.78047 0.0782944 1.24999 -3.04807 -1.95932
38 2 5.06136 7.09621 3.33722 2.80778 0.104381 -1.69072
67 2 5.3555 4.14369 0.528014 -0.502914 1.50745 2.1202
97 2 5.2522 7.17646 0.847129 -0.942741 0.941916 -0.489197
100 2 7.17563 5.90875 1.58846 0.121187 -2.65567 0.974147
24 1 8.9482 5.40756 2.67075 1.05859 0.991861 -0.787219
55 2 10.811 5.30322 1.46898 0.105952 -0.0468153 0.0877992
101 2 8.77405 3.68527 1.30838 -0.0438326 0.282287 -1.83537
30 1 1.42925 8.99138 2.5762 -1.93301 2.90437 -0.595125
49 2 1.5125 7.51097 0.951342 -1.17618 1.27312 -0.137719
94 2 1.54615 7.30847 3.44274 1.39961 -2.20607 1.4361
104 2 3.27036 9.32558 1.64312 1.59939 -0.729204 -0.668907
17 1 5.08135 8.98308 2.42546 1.82266 -0.384138 0.338918
59 2 5.8515 10.7062 3.37523 1.02855 -0.19893 0.480943
60 2 5.52873 10.6806 0.790568 -2.41622 -1.00065 1.75389
16 1 8.72459 9.03147 2.95516 1.49935 -0.206738 -2.68193
37 2 10.5075 9.56219 1.68638 1.01028 -0.0797749 -1.39784
85 2 7.31427 8.94172 1.4165 -0.594713 0.931293 1.72067
86 2 9.09433 7.31563 0.666174 3.70855 -0.838061 2.65933
20 1 3.53152 3.48217 5.19116 -0.470212 -0.382929 -1.48617
53 2 3.48568 1.65806 6.73228 -0.745388 0.0917594 0.328367
73 2 1.76516 3.57872 6.29212 -0.771493 -1.27429 -1.27824
7 1 7.19378 3.5388 5.13641 -0.693689 -2.44058 0.151463
27 1 7.20265 0.0697118 5.24097 1.74522 -1.79595 -1.46106
58 2 3.90726 1.6535 4.08414 -1.53102 -0.395655 1.12223
91 2 5.4602 0.37434 5.91987 -2.16798 -0.495291 1.02313
106 2 7.27532 1.67179 6.71589 -0.124594 1.03351 -0.857795
10 1 10.709 3.27306 5.3011 4.01971 1.99265 -2.81305
40 2 10.5276 1.74863 4.19689 1.36737 -1.82987 0.372301
47 2 10.9365 1.81427 6.75886 1.17703 -0.582074 1.36887
72 2 9.21821 0.107221 6.43254 -0.929918 -2.22076 -1.06428
77 2 7.50802 1.89815 3.87594 -2.63931 -2.34727 1.97961
102 2 9.05392 3.55952 3.57002 0.476766 3.0444 2.72999
105 2 9.11293 3.48359 6.26302 -2.66862 1.3177 2.46232
5 1 0.255215 7.00869 5.33831 -0.38608 5.56536 -1.8652
65 2 3.47901 5.08607 3.76116 0.965275 0.518637 1.51924
92 2 0.42973 5.61576 6.48729 -1.38652 -3.01432 3.23718
8 1 7.27449 7.10848 5.45866 -2.65869 -0.293062 -1.02002
25 1 3.82646 6.99972 4.80563 -1.98908 0.509588 2.63386
52 2 3.72216 5.10543 6.45882 -1.46043 2.54282 2.19464
70 2 5.32335 3.72072 6.02643 2.66899 -3.5443 0.150027
90 2 7.23359 5.19584 6.82359 -0.730473 0.264591 1.71708
103 2 7.10217 5.25274 4.54623 0.619366 4.64191 -3.82894
39 2 10.8507 5.61482 4.04679 0.0803467 -3.67927 -1.09924
68 2 8.96738 7.11102 6.21229 2.25463 -0.592712 2.28003
83 2 9.06296 7.22049 3.63931 -0.253971 -1.54073 -0.515915
19 1 0.00444582 10.7458 5.29368 -1.42178 0.764091 -2.32871
31 1 3.33332 10.928 5.2465 3.52452 -1.45124 -1.42968
41 2 1.74119 10.8516 3.85507 0.550222 1.50229 -1.36087
46 2 1.76291 10.4967 6.2737 -3.78926 1.18316 1.19677
56 2 2.36165 7.49361 5.96219 -3.82698 0.150872 1.26064
84 2 5.12387 7.43606 6.17027 3.06796 -1.51516 0.475936
95 2 3.9595 9.07607 4.21871 -0.84017 1.13176 0.0972177
108 2 6.93427 9.32067 6.82163 4.96517 0.186754 -1.38726
57 2 10.8609 8.61891 6.9276 -0.0816272 1.42478 0.314126
76 2 7.32736 8.70911 4.37381 -0.870871 2.9962 -0.219468
93 2 10.8449 9.21911 4.04258 -0.0631552 -1.50785 2.18258
98 2 9.12131 10.904 3.63145 -2.20162 -0.371289 0.517315
14 1 1.7222 1.69457 7.93312 -0.161272 0.609461 1.72784
44 2 0.448902 1.93366 9.73731 -0.401015 -0.992581 -0.293246
62 2 3.59717 1.62581 9.51099 0.914677 0.919817 -0.669359
107 2 2.1101 3.53998 8.75713 0.109153 -1.93095 0.183492
29 1 5.35241 1.73214 7.59328 1.51357 0.523514 1.19975
32 1 3.7378 3.61925 10.2086 -2.62284 -0.514643 -1.56469
54 2 5.37547 3.55392 8.70252 -0.368119 0.079005 -0.376167
36 1 9.05259 1.7017 7.77261 -1.19713 -0.391846 3.22734
80 2 7.37295 1.76756 9.32152 0.0216396 0.185217 -0.381014
99 2 9.24163 3.38085 9.09653 0.569714 1.09017 -1.39253
2 1 3.23634 7.28719 10.6094 2.80596 0.135492 -1.76541
12 1 1.93091 5.14913 7.784 0.461805 2.95429 -0.827317
50 2 1.77723 7.18013 8.91206 0.025737 1.69135 0.183534
69 2 3.53045 5.50711 9.19686 1.78118 0.221916 0.908659
35 1 5.44164 5.47689 7.88631 -1.85748 0.111372 -1.27234
82 2 5.8279 7.23727 8.69813 0.743667 0.0219189 0.0989372
4 1 8.92818 5.13048 7.8225 2.14922 1.53445 3.46401
15 1 7.38439 7.2863 10.4757 -2.21514 -0.433507 1.1991
21 1 10.9445 7.2869 10.3199 -3.15725 -2.58777 -0.545062
71 2 10.9234 5.45126 9.2136 -0.0859388 -0.710868 0.335783
79 2 8.93952 7.2698 9.05644 1.56548 -0.484296 -4.37084
87 2 7.62442 5.2768 9.46559 -1.1176 0.473491 -0.705961
22 1 1.64864 9.09923 7.93336 1.82291 -0.69871 -0.742306
45 2 1.74465 10.8676 8.94414 -0.362866 -0.53717 0.0814516
78 2 3.52785 9.54812 7.27412 2.28092 0.332639 -0.530989
18 1 5.44663 9.30641 7.97385 -4.95066 -5.35168 0.648275
33 1 7.18248 10.9491 10.5584 3.85533 1.85149 -2.272
63 2 5.75795 10.953 8.82447 -0.640087 2.70371 0.825414
88 2 4.04546 8.97482 9.6614 -1.24503 1.09501 1.53502
6 1 10.7319 10.8804 10.6198 0.303087 1.77951 0.730191
13 1 8.9458 9.0419 8.02126 0.735336 -0.0792901 0.0494468
64 2 10.866 9.16334 9.66409 0.538817 -1.4337 -1.51806
81 2 7.69753 9.09449 9.65013 -1.86795 2.81789 -1.26383
89 2 9.31226 10.9051 9.01606 0.173694 0.401904 -1.3199
