ITEM: TIMESTEP
0
ITEM: NUMBER OF ATOMS
96
ITEM: BOX BOUNDS xy xz yz pp pp pp
-6.4403077717034334e+00 1.2880619210125166e+01 -6.4403077717034334e+00
0.0000000000000000e+00 1.1154943116692575e+01 0.0000000000000000e+00
0.0000000000000000e+00 1.5046356078130312e+01 0.0000000000000000e+00
ITEM: ATOMS id type x y z
1 1     6.39326550077228     11.1137915031614   0.0534655133474345
2 1   -0.047057508306879     1.81800808595147     2.56118560423902
3 1     6.39326813555874     11.1137913658922     5.06891200061247
4 1  -0.0470110075888747     1.81800638721904     7.57663737436001
5 1      6.3933153875079     11.1137911440517     10.0843683885384
6 1  -0.0470100642799915     1.81800628259417      12.592093605502
7 1     11.2234962365203     2.74758706222082   0.0534607068808058
8 1    -1.65713682000672     4.60674272858885     2.56118549451913
9 1     11.2234998706325     2.74758547782201     5.06891346259591
10 1    -1.65709356637873     4.60674169482741      7.5766385995323
11 1     11.2235490777745     2.74758524714381     10.0843656232781
12 1      -1.657091560019     4.60674142347152     12.5920893840185
13 1     9.61341955570227     5.53632228695742    0.053460746592247
14 1     -3.2672077950978     7.39547886667424     2.56118549148497
15 1     9.61342035134779     5.53632109379099     5.06890951602707
16 1    -3.26716588801848     7.39547710655813     7.57663686441592
17 1     9.61346537300885     5.53631876877104     10.0843641575762
18 1    -3.26716379166442     7.39547669102796     12.5920911390448
19 1     8.00334356667958     8.32505487886635   0.0534618690807393
20 1    -4.87728967352859     10.1842127396903     2.56118558149072
21 1     8.00334545426418     8.32505635764472     5.06891227060423
22 1    -4.87724527368656     10.1842139086527     7.57663753840268
23 1     8.00339146827151     8.32505702832375     10.0843656285436
24 1    -4.87724358758232     10.1842124709206     12.5920934121049
25 1    -3.26719705014791     11.1137928647077   0.0534635590750234
26 1      3.1730994927207     1.81800615703744     2.56118556245423
27 1    -3.26719591773513     11.1137927455658     5.06891400547239
28 1     3.17314281968168     1.81800502221271     7.57663832428559
29 1    -3.26714940036937     11.1137928397799     10.0843683920394
30 1     3.17314531271694     1.81800493345027     12.5920925927489
31 1     1.56303301655504      2.7475865352087   0.0534645823138459
32 1     1.56301895621215     4.60674455218195     2.56118829418552
33 1     1.56303489610032     2.74758510753572     5.06891295993098
34 1     1.56306027459173     4.60674046283149     7.57664059657963
35 1     1.56308096774717     2.74758389615711     10.0843683901887
36 1     1.56306199246478     4.60674128870217     12.5920938075407
37 1  -0.0470455861867756     5.53632173245464   0.0534646871112843
38 1   -0.047058774385001     7.39547831122052     2.56118944759086
39 1  -0.0470437136297098     5.53632164030039     5.06891558456987
40 1    -0.04700898747829     7.39547825602479     7.57664138269112
41 1  -0.0469975173001109     5.53631979190508     10.0843687130421
42 1  -0.0470081011639981     7.39547721944799      12.592097225254
43 1    -1.65712019744527     8.32505616392265   0.0534651092797793
44 1    -1.65713276487648     10.1842132951721     2.56118828822204
45 1    -1.65711793192582     8.32505535614636     5.06891512964122
46 1    -1.65709009991755     10.1842163291094     7.57664113365335
47 1    -1.65706965589073     8.32505591430089     10.0843687038719
48 1    -1.65708718222286     10.1842151032711     12.5920932466199
49 1  -0.0470441597419513     11.1137934559634   0.0534636300939383
50 1     6.39325240920749     1.81800555347101     2.56118549422399
51 1  -0.0470418575019581     11.1137926720114     5.06891661773179
52 1     6.39329727547323     1.81800588983898     7.57663796434809
53 1  -0.0469923843420095     11.1137919298697     10.0843686928803
54 1     6.39329906164927     1.81800497162335     12.5920900421834
55 1     4.78319053516379     2.74758605261522   0.0534628324728436
56 1     4.78317259824392     4.60674169784412     2.56118549656868
57 1     4.78319063559404     2.74758447408878     5.06891127872029
58 1     4.78321723048014     4.60674188177114     7.57663636418701
59 1     4.78323738499826     2.74758210501754     10.0843656321017
60 1     4.78321865606268     4.60674156577559     12.5920916402537
61 1     3.17310911384698     5.53632040917991   0.0534645592552348
62 1     3.17309745285642     7.39547697935685      2.5611894277555
63 1     3.17311103303562     5.53632031112968     5.06891569597647
64 1     3.17314368869934     7.39547820341357     7.57664264607583
65 1     3.17315652428804     5.53632131813857     10.0843687120812
66 1     3.17314620206811     7.39547721220422     12.5920959605153
67 1     1.56303538890171     8.32505711955105   0.0534692015447936
68 1     1.56302029530624     10.1842147822016     2.56118943857438
69 1     1.56303728186824     8.32505655727011     5.06891657825725
70 1     1.56306709524371     10.1842119618275     7.57664187279449
71 1     1.56308717686439     8.32505595810494     10.0843732474047
72 1     1.56306879630429     10.1842123568305     12.5920967349748
73 1     3.17311080640425     11.1137921238467   0.0534656453603921
74 1     9.61340773360761     1.81800751178912     2.56118549562877
75 1     3.17311228113044     11.1137913603242      5.0689146348874
76 1     9.61345175155564     1.81800728442995     7.57663700421591
77 1     3.17316265233891     11.1137902360139     10.0843687299709
78 1     9.61345339513608      1.8180063602229     12.5920909714732
79 1     8.00334406540438     2.74758451848263   0.0534607197145104
80 1     8.00332639462933     4.60674229971207     2.56118097098511
81 1     8.00334596578775     2.74758520369321     5.06890954351235
82 1     8.00337295438632     4.60674168304328     7.57663295336732
83 1     8.00339583729079     2.74758581850274     10.0843641549331
84 1     8.00337466771996     4.60674113861451     12.5920895156732
85 1     6.39326320444632     5.53632098217363   0.0534606623665431
86 1     6.39325689470166     7.39547762067803     2.56118549745015
87 1     6.39326615852139     5.53631980950425     5.06890960098857
88 1      6.3932992047124     7.39547708519026     7.57663809928174
89 1     6.39331286767268      5.5363202685527     10.0843641472294
90 1     6.39330057461624     7.39547666520669     12.5920898782493
91 1     4.78318953766828     8.32505784797447    0.053464102509202
92 1     4.78317293992736     10.1842122166202      2.5611882984894
93 1     4.78319101927081     8.32505702593361     5.06891618846325
94 1     4.78322152183214     10.1842115358848     7.57664057904499
95 1     4.78323874099241     8.32505612327804     10.0843687219911
96 1     4.78322206495776     10.1842103043032     12.5920938458025
ITEM: TIMESTEP
1
ITEM: NUMBER OF ATOMS
96
ITEM: BOX BOUNDS xy xz yz pp pp pp
-6.4403084848132108e+00 1.2880619566680105e+01 -6.4403081282582715e+00
-3.0878562568054286e-07 1.1154943425478201e+01 0.0000000000000000e+00
-4.1650579722321961e-07 1.5046356494636109e+01 0.0000000000000000e+00
ITEM: ATOMS id type x y z
1 1     6.39326549973963     11.1137918104249   0.0534650975159369
2 1  -0.0470578653828273     1.81800787718829     2.56118533117133
3 1     6.39326813370668     11.1137916730985     5.06891186465112
4 1  -0.0470113689540433     1.81800617818021     7.57663737904318
5 1     6.39331538203502     11.1137914512962     10.0843685288329
6 1  -0.0470104258175345     1.81800607354222     12.5920938866408
7 1     11.2234965038116     2.74758690479647   0.0534602929412751
8 1    -1.65713726519088     4.60674267434155      2.5611852213893
9 1     11.2235001368079     2.74758532092104     5.06891332546966
10 1    -1.65709401482492     4.60674164180714     7.57663860298069
11 1     11.2235493390683      2.7475850894416     10.0843657641817
12 1    -1.65709200905168     4.60674137033113     12.5920896666418
13 1     9.61341973288299     5.53632228406628    0.053460331923601
14 1    -3.26720833206213     7.39547896732273     2.56118521834764
15 1     9.61342052838557     5.53632109123816     5.06890938015865
16 1    -3.26716642647765     7.39547720773539     7.57663686955091
17 1     9.61346554656835     5.53631876780919      10.084364298518
18 1    -3.26716433086699      7.3954767923608     12.5920914199588
19 1      8.0033436555304     8.32505503164539    0.053461454339718
20 1    -4.87729029668079     10.1842129952658      2.5611853084377
21 1     8.00334554264161     8.32505650980949     5.06891213429738
22 1    -4.87724590032765     10.1842141635038     7.57663754313185
23 1     8.00339155333817     8.32505718017399     10.0843657694396
24 1    -4.87724421465721     10.1842127262453     12.5920936932222
25 1    -3.26719758665403     11.1137931706569   0.0534631444465422
26 1     3.17309931295406     1.81800594905289     2.56118528941427
27 1    -3.26719645436413      11.113793051456      5.0689138682335
28 1     3.17314263694635      1.8180048152259     7.57663832843393
29 1     -3.2671499409511     11.1137931452687     10.0843685323255
30 1     3.17314512923316     1.81800472642833     12.5920928744749
31 1     1.56303274886419     2.74758637790534   0.0534641670626732
32 1     1.56301868844966     4.60674449752473     2.56118802063924
33 1     1.56303462793873     2.74758495077794     5.06891282335043
34 1     1.56306000510648     4.60674040953182     7.57664060037755
35 1     1.56308069624097     2.74758373956202      10.084368530479
36 1     1.56306172251708     4.60674123505181     12.5920940886907
37 1  -0.0470459437419352     5.53632172955772   0.0534642720661171
38 1  -0.0470591296011286      7.3954784118626     2.56118917406753
39 1  -0.0470440716285446     5.53632163748779     5.06891544764739
40 1  -0.0470093484757633     7.39547835680893     7.57664138721804
41 1  -0.0469978792649261     5.53631979066006     10.0843688533318
42 1  -0.0470084623859426     7.39547732051247     12.5920975050838
43 1    -1.65712064419079      8.3250563170769   0.0534646931490254
44 1    -1.65713321119002     10.1842135504878     2.56118801467778
45 1    -1.65711837917333     8.32505550949678     5.06891499382465
46 1    -1.65709054882705     10.1842165822847     7.57664113740154
47 1    -1.65707010767666      8.3250560665637     10.0843688441695
48 1    -1.65708763202615     10.1842153568337     12.5920935278284
49 1  -0.0470445166571446     11.1137937617907   0.0534632155689429
50 1      6.3932524093112     1.81800534559679     2.56118522108592
51 1  -0.0470422149576339     11.1137929779859     5.06891648030188
52 1     6.39329727239177     1.81800568236496     7.57663796852507
53 1  -0.0469927461489969     11.1137922358929     10.0843688331863
54 1     6.39329905797194     1.81800476451747     12.5920903240441
55 1     4.78319044428887      2.7475858955005   0.0534624169922257
56 1     4.78317250937015     4.60674164472382     2.56118522342462
57 1     4.78319054491653      2.7475843174961     5.06891114317285
58 1     4.78321713803441     4.60674182762985     7.57663636965215
59 1     4.78323729038068     2.74758194993727     10.0843657729913
60 1     4.78321856329068     4.60674151155718      12.592091920837
61 1      3.1731089347195     5.53632040705402   0.0534641440191316
62 1     3.17309727571242     7.39547708019836      2.5611891542488
63 1     3.17311085339294     5.53632030908975     5.06891555924921
64 1     3.17314350660816     7.39547830344822     7.57664264918003
65 1     3.17315634121488     5.53632131462178     10.0843688523804
66 1     3.17314601931297     7.39547731249597     12.5920962417806
67 1     1.56303511994603     8.32505727142421   0.0534687852695473
68 1     1.56302002741077     10.1842150371212      2.5611891650591
69 1     1.56303701244255     8.32505670928711      5.0689164413238
70 1     1.56306682350361     10.1842122174168     7.57664187677038
71 1     1.56308690194738     8.32505611018458     10.0843733865709
72 1     1.56306852410954     10.1842126123082     12.5920970153605
73 1     3.17311062797102     11.1137924309853   0.0534652295496015
74 1     9.61340791187419      1.8180073031463     2.56118522249393
75 1     3.17311210229136     11.1137916675977     5.06891449871998
76 1     9.61345192656093     1.81800707490305     7.57663700895043
77 1     3.17316246803901      11.113790543783     10.0843688702543
78 1     9.61345356983164     1.81800615107658     12.5920912528266
79 1     8.00334415301786     2.74758436182305   0.0534603049442039
80 1       8.003326484908     4.60674224597224     2.56118069897218
81 1     8.00334605291231     2.74758504680477     5.06890940774492
82 1     8.00337303955454     4.60674162938179     7.57663295891012
83 1      8.0033959189471        2.74758566121     10.0843642958768
84 1     8.00337475243524     4.60674108509545     12.5920897974348
85 1     6.39326320368567      5.5363209800679   0.0534602474884165
86 1     6.39325689224314     7.39547772150192     2.56118522431499
87 1     6.39326615697318     5.53631980771704     5.06890946532937
88 1     6.39329920053947     7.39547718560357     7.57663810300388
89 1     6.39331286215601     5.53632026535036     10.0843642881795
90 1     6.39330057024729      7.3954767657627     12.5920901606049
91 1     4.78318944775334     8.32505799881111   0.0534636883566302
92 1     4.78317285176911     10.1842124722557     2.56118802494214
93 1     4.78319092891845     8.32505717698124      5.0689160506276
94 1     4.78322142890467     10.1842117924162     7.57664058239656
95 1     4.78323864634401     8.32505627466768     10.0843688622804
96 1     4.78322197198924     10.1842105612226     12.5920941273918
