ITEM: TIMESTEP
1
ITEM: NUMBER OF ATOMS
96
ITEM: BOX BOUNDS xy xz yz pp pp pp
-6.4403084848132108e+00 1.2880619566680105e+01 -6.4403081282582715e+00
-3.0878562568054286e-07 1.1154943425478201e+01 0.0000000000000000e+00
-4.1650579722321961e-07 1.5046356494636109e+01 0.0000000000000000e+00
ITEM: ATOMS id type x y z
1 1     6.39326549973963     11.1137918104249   0.0534650975159369
2 1  -0.0470578653828269     1.81800787718829     2.56118533117133
3 1     6.39326813370668     11.1137916730985     5.06891186465112
4 1  -0.0470113689540433     1.81800617818021     7.57663737904318
5 1     6.39331538203502     11.1137914512962     10.0843685288329
6 1  -0.0470104258175342     1.81800607354222     12.5920938866408
7 1     11.2234965038116     2.74758690479647   0.0534602929412751
8 1    -1.65713726519088     4.60674267434155      2.5611852213893
9 1     11.2235001368079     2.74758532092104     5.06891332546966
10 1    -1.65709401482491     4.60674164180714     7.57663860298069
11 1     11.2235493390683      2.7475850894416     10.0843657641817
12 1    -1.65709200905168     4.60674137033113     12.5920896666418
13 1     9.61341973288299     5.53632228406628    0.053460331923601
14 1    -3.26720833206213     7.39547896732273     2.56118521834764
15 1     9.61342052838557     5.53632109123816     5.06890938015865
16 1    -3.26716642647765     7.39547720773539     7.57663686955091
17 1     9.61346554656835     5.53631876780919      10.084364298518
18 1    -3.26716433086699      7.3954767923608     12.5920914199588
19 1      8.0033436555304     8.32505503164539    0.053461454339718
20 1    -4.87729029668078     10.1842129952658      2.5611853084377
21 1     8.00334554264161     8.32505650980949     5.06891213429738
22 1    -4.87724590032765     10.1842141635038     7.57663754313185
23 1     8.00339155333817     8.32505718017399     10.0843657694396
24 1     -4.8772442146572     10.1842127262453     12.5920936932222
25 1    -3.26719758665403     11.1137931706569   0.0534631444465422
26 1     3.17309931295406     1.81800594905289     2.56118528941427
27 1    -3.26719645436413      11.113793051456      5.0689138682335
28 1     3.17314263694635      1.8180048152259     7.57663832843393
29 1     -3.2671499409511     11.1137931452687     10.0843685323255
30 1     3.17314512923316     1.81800472642833     12.5920928744749
31 1     1.56303274886419     2.74758637790534   0.0534641670626732
32 1     1.56301868844966     4.60674449752473     2.56118802063924
33 1     1.56303462793873     2.74758495077794     5.06891282335043
34 1     1.56306000510648     4.60674040953182     7.57664060037755
35 1     1.56308069624097     2.74758373956202      10.084368530479
36 1     1.56306172251708     4.60674123505181     12.5920940886907
37 1  -0.0470459437419345     5.53632172955772   0.0534642720661171
38 1  -0.0470591296011271      7.3954784118626     2.56118917406753
39 1  -0.0470440716285432     5.53632163748779     5.06891544764739
40 1  -0.0470093484757633     7.39547835680893     7.57664138721804
41 1  -0.0469978792649247     5.53631979066006     10.0843688533318
42 1  -0.0470084623859411     7.39547732051247     12.5920975050838
43 1    -1.65712064419079      8.3250563170769   0.0534646931490254
44 1    -1.65713321119001     10.1842135504878     2.56118801467778
45 1    -1.65711837917332     8.32505550949678     5.06891499382465
46 1    -1.65709054882705     10.1842165822847     7.57664113740154
47 1    -1.65707010767666      8.3250560665637     10.0843688441695
48 1    -1.65708763202615     10.1842153568337     12.5920935278284
49 1  -0.0470445166571431     11.1137937617907   0.0534632155689429
50 1      6.3932524093112     1.81800534559679     2.56118522108592
51 1  -0.0470422149576324     11.1137929779859     5.06891648030188
52 1     6.39329727239177     1.81800568236496     7.57663796852507
53 1  -0.0469927461489955     11.1137922358929     10.0843688331863
54 1     6.39329905797194     1.81800476451747     12.5920903240441
55 1     4.78319044428887      2.7475858955005   0.0534624169922257
56 1     4.78317250937015     4.60674164472382     2.56118522342462
57 1     4.78319054491653      2.7475843174961     5.06891114317285
58 1     4.78321713803441     4.60674182762985     7.57663636965215
59 1     4.78323729038068     2.74758194993727     10.0843657729913
60 1     4.78321856329068     4.60674151155718      12.592091920837
61 1      3.1731089347195     5.53632040705402   0.0534641440191316
62 1     3.17309727571242     7.39547708019836      2.5611891542488
63 1     3.17311085339294     5.53632030908975     5.06891555924921
64 1     3.17314350660816     7.39547830344822     7.57664264918003
65 1     3.17315634121488     5.53632131462178     10.0843688523804
66 1     3.17314601931297     7.39547731249597     12.5920962417806
67 1     1.56303511994604     8.32505727142421   0.0534687852695473
68 1     1.56302002741077     10.1842150371212      2.5611891650591
69 1     1.56303701244255     8.32505670928711      5.0689164413238
70 1     1.56306682350362     10.1842122174168     7.57664187677038
71 1     1.56308690194738     8.32505611018458     10.0843733865708
72 1     1.56306852410955     10.1842126123082     12.5920970153605
73 1     3.17311062797102     11.1137924309853   0.0534652295496015
74 1     9.61340791187419      1.8180073031463     2.56118522249393
75 1     3.17311210229136     11.1137916675977     5.06891449871998
76 1     9.61345192656093     1.81800707490305     7.57663700895043
77 1     3.17316246803901      11.113790543783     10.0843688702543
78 1     9.61345356983164     1.81800615107658     12.5920912528266
79 1     8.00334415301786     2.74758436182305   0.0534603049442039
80 1       8.003326484908     4.60674224597224     2.56118069897218
81 1     8.00334605291231     2.74758504680477     5.06890940774492
82 1     8.00337303955454     4.60674162938179     7.57663295891012
83 1      8.0033959189471        2.74758566121     10.0843642958768
84 1     8.00337475243524     4.60674108509545     12.5920897974348
85 1     6.39326320368567      5.5363209800679   0.0534602474884165
86 1     6.39325689224314     7.39547772150192     2.56118522431499
87 1     6.39326615697318     5.53631980771704     5.06890946532937
88 1     6.39329920053947     7.39547718560357     7.57663810300388
89 1     6.39331286215601     5.53632026535036     10.0843642881795
90 1     6.39330057024729      7.3954767657627     12.5920901606049
91 1     4.78318944775334     8.32505799881111   0.0534636883566302
92 1     4.78317285176911     10.1842124722557     2.56118802494214
93 1     4.78319092891845     8.32505717698124      5.0689160506276
94 1     4.78322142890467     10.1842117924162     7.57664058239656
95 1     4.78323864634401     8.32505627466768     10.0843688622804
96 1     4.78322197198924     10.1842105612226     12.5920941273918
