108
Lattice="11.3413402252035080 0.0000000000000000 0.0000000000000000 0.0000000000000000 11.3413402252035080 0.0000000000000000 0.0000000000000000 0.0000000000000000 11.0028391067626110" Properties=species:S:1:pos:R:3:forces:R:3 stress="-13954.1132310352859349 -8854.6663181810763490 7972.2157825930453328 -8854.6663181810763490 4165.8533135029938421 26842.3793894440241274 7972.2157825930453328 26842.3793894440241274 -17537.5546440650687146" pbc="T T T" energy=-1021.9588430925755347
Hf    2.100041787611730548235300375    2.281834150961789209333119288    2.287358576193222692296558307   -0.600102790572018429671174999   -6.507214239630352281551495253   -1.025924833452297901814631587
Hf    3.859880288629929268040541501    6.853586175228834953543355368   10.439419762174903638651812798   -0.220196094597421732075304135    3.575456604612048838731652722    2.139920813552736333917891898
Hf    5.010992700837119784296191938    4.903654734819706817461337778    2.148919424484086793114556713    1.776119827540349360717186755    0.367036498279423029078571972    1.518319423851989480311885927
Hf    9.189290696330193242147288402    5.845513981348159582296375447    7.338485641183229546413713251   -2.502136118496465222449387511   -4.099724037483589711428066948   -2.464868970233631273458740907
Hf    0.138111074983651660463834787    7.057835278764584607813503681    4.761113027839182443301524472    0.760591771896748314318870143    1.090797602232365326457852461    0.748716407983840870343783536
Hf    0.392076966023241157976997329   10.600123394390738695847176132   -0.116433686658041934958163210   -2.524682654801405412570147746    3.091074249309406773988939676   -2.051838370415141721281315768
Hf    7.186512153877042230476490658    3.508133416359770162529230220    5.618925105806741093772416207    1.642686471384572133302981456    3.156258654205912783652365761   -0.421470078895722188860872848
Hf    7.638099798282020458373153815    7.091854452466165525947872084    4.295894593411366813029417244    5.271687530544152622269393760    0.601389152402404092434551330    2.289447388750181833216856830
Hf    1.600060291275050117221212531    5.819265017551368046611059981    1.773585101224108617756769490   -4.404627895014905369919233635   -2.486312564165591876275129835    1.702072514021032212383488513
Hf    0.001928432329294765823490820    3.815518914261159189038608019    5.114455911935666065915029321   -2.032436479321822808685737982   -0.728992943790146563642906585   -1.716227677874393009460618487
Hf   10.963562734802101417130870686    3.201287262322645599255110938    0.370522587019160409838036685    0.636401170982124675390423363    0.452266489725143050470990147    0.934378705815478216578640058
Hf    1.840665568371091520560867139    5.056067885950937146333217242    8.348330639119193818942221696    0.000749344371542171039379809    3.811628314933127370522925048    2.909006366246391639407420371
Hf    8.948115535553153421233218978    9.146731062341819651351215725    7.456090938481470864473976690    4.004977769483526017779695394    0.249839992059166016158400225    2.255734201859201704110091669
Hf    1.711685353015711896773609624    1.172406378235335333570787952    7.477101326763334832037344313   -2.229565540466867723523591849   -0.798606663579841224986921588    0.505414803757320729715729613
Hf    7.817039851476538458996401459    7.377976821546866403878084384    9.996966704620646737566858064   -1.714184602326671136296454279    1.747226675653843930291486686   -2.098302189489117619558555816
Hf    9.043190383278147947976322030    8.743937104283471484222900472    2.081081459628634444669614822    1.496618506175017682124916973    1.149687218681003875175861140   -1.898284801552617695463709424
Hf    5.551628759868012075173737685    8.889444481032597877856460400    1.537565509205062408426556431    2.105894339947846027882860653    0.023306388122671828355692014   -0.520581991227292650847857658
Hf    5.102247248382814959200004523    9.398266580056384711383543618    7.937337613310869066651775938   -1.628312026055011019209928236    1.558630733031588277981427382   -0.286247486135972173393327012
Hf   11.036613618647585610688111046   -0.140697507854230907664572214    4.941386576831739319004555000   -0.682957526514956114738197357   -2.479734442712843378586740073    1.599921998540191570015167599
Hf    3.342707972656591586257945892    3.883490426312016907672841626    5.275239183624486294377220474   -0.237103124909227858108096143   -0.405216512692741781531680090    1.668912909466798488722361071
Hf   11.001409508853424057406300562    7.133081562841819156517431111   10.335551225688682563941256376    0.839644521458188686224843877    1.445917389366372152181838828   -0.359093469487822503083407355
Hf    1.316577159972629473827510083    8.997193543572985063860869559    7.344822697119663956755175604   -6.121732472620732501411566773   -3.496995938189723318600954372   -1.971419923206729318820862318
Hf    7.008399980682011864985270222    3.758078782497128678130593471   10.641058099200417785823447048    5.548467000537974591622969456   -1.431474025922152559786582060    5.345088871281167719473614852
Hf    8.231534616594181841264799004    3.594593775758940790154838396    2.941538356817356092420823188    1.297681171011237033496854565    1.983267719727329625456491158    2.868070522996539750693045789
Hf    4.000159777768206303960596415    7.331262483422018583212320664    5.057276282599493022473780002   -1.073248561880906226662091285    1.351423700761999580066685667    2.203148233161044355910007653
Hf    3.663983121350073091093690891   11.075946777662300846145626565   -0.134447551484538241339805609    0.068627058640809202039179127   -0.313578626424840356534673447   -0.295201644160961285123789821
Hf    7.228987338094666093013529462   -0.006401912158004535724487027    6.174533598592651273406772816    0.708280664204313459286765919   -3.691050526827118094530533199   -3.136533972730601416145645999
Hf    6.100056956986471767834245838    1.399475836606161038844220457    2.557730768343574379031224453   -2.842165459049158293680648057   -2.384180906441712100019003628    0.406703976342854378600577547
Hf    5.731305383961564636763341696    1.878155858769910313554873937    8.035427422036942601835107780   -2.093195436355073990597475131   -0.933070880327211304994250440   -2.348350566188530663680467114
Hf    2.530184907285581985547651129    9.386945128469175614327468793    2.738191346341111831463877024    0.113055055147767077872167363   -2.765498971733013622298358314   -4.525872361116526576552132610
Hf    3.978653598675519376115516934   -0.024332000503807960090085771    5.004654143014100498021434760    2.521471570616711677104149203    1.927885331009720371042703846    0.149237354895797535991874838
Hf    3.304324023373778729251171171    3.239364038342641194390125747   10.456140015337968662834100542    0.271063954165108922378379930   -1.466691091849006367553442942   -0.376938835753142298390372389
Hf    7.369244941999980369473632891   11.100431241257421532964144717   10.649370727720945950522946077    0.154815042531603996867062278    0.709605963755095547895734853   -1.012892534184328008350917116
Hf    9.336734236625400029652155354    0.410714983275630496351027432    2.272739036201439244422317643    1.039024341873288737048142139    3.156177497806517351364163915    0.695692968146095602754996889
Hf    5.654544909427745125185538200    5.260258416645626766694476828    7.909491983687185090445836977   -2.736799625971317428962947815    0.075144231516713899665660392   -0.493425478214234325413656279
Hf    9.061700526809616462742269505    1.767473472758341657140590542    8.912260566790038751605607104    4.580569041004514119208579359   -1.571828193384797955900467059   -2.371381309926217095807032820
O    6.277473683601367149265115586    3.501214170579974638286557820    3.611128894256495858172684166   -2.100605108826423705892239013    0.847255728405936991975977435    0.713128419817513181655499466
O    7.606468016810719490194969694    9.351787206815984632157778833    0.473341534915437511799041204   -1.492028313905360947799749738   -2.494599302673617735592870304    1.135656821239287683766860937
O    2.264007340630387776769794073    3.619030934403456356562855945    3.567298835656575128894019144    1.373760096481831949333241027    1.041110952850114790280144916    7.775563665485178077574346389
O    1.441306463178619434728489068    7.602839106617176767599630693    2.681326523686921259326254585    0.223178378074496808203264209    1.466352604337861853522895217    0.621496620926718312816205980
O    0.222716756851581099141412778    1.430404374517606491679089231    5.870508422150553684559781686    1.397705135268347831356550159    3.386504785108761073075811510    1.244250188191194483877666244
O   -0.166986898313841169994020674    9.486982941418631298802210949    8.634298294719581434719657409   -1.150410103054007260325874995    0.037947410887528176814953440    0.260896159252157922026071901
O    0.690017081530664100341709855    5.356841071000705056803781190    3.672891639694879195587873255   -1.404803833670566159952386442    1.655022715341610162198549006    1.798929120583788288101345643
O   11.063033726915074694829854707    0.949380526240738431553722876    3.371915532068078036331826297    0.179595664672829891106431432   -0.618687356914133457230775548   -2.084339182375310794981260187
O    3.187674941863673172548487855    1.785502648905911371457477799    6.175959079933963202790891955   -0.256091060907727152695656514   -0.266330607474439540194310894   -0.839498610382356291736982712
O    1.473458042151873481628854279    3.612244364384220585151297200    9.782654515551637786074934411    0.199944786846515065725782279    0.992175919125327210323916916   -0.607114922456923888915980569
O   10.943983290487873105689686781    6.127755158560916903809356882    8.528532762949989631806602119    4.660538015676296552669555240   -4.228042151610898358171652944   -0.549165604646288496581973959
O    7.887558989860162128593401576    9.505430310115476899568420777    9.210730789691474740266130539    1.748518992343099043296206219   -1.379959554715294300919481429   -0.992065602424517800628223085
O    7.515706694400278387035996275    4.617283201586088736689816869    1.353995972509085543578066790    0.017708066215601406256929806    1.890329647181826056012710069    0.792712436282123511510633307
O    0.439867510743891965141472156    8.778427509505528192335077620    0.084387350739482058781248952   -0.185110480150931788756452079   -2.786118603294683637727757741    0.376023018761315386271348871
O    1.543655717936104565524146892   10.719450332620795052207540721    6.687274045041203152095476980    0.960487621170404648474061560    5.216707232218833922843259643   -1.629254671221961103810826899
O    3.710893914458398334943467489    8.828789253181586360597066232    0.471162353403208666868806631    0.497367046975344284653886007    0.802610344044504375737858481   -0.114681589980884221513512955
O    3.487363343603452570107492647    6.092518182465499698707844800    1.567738531808497537411994927    1.451844649904949102747764300    0.866343709054855581896958938   -1.781158794531048528142491705
O    6.846073500971224135014381318    1.614061982764819047631021931   -0.013935378320845098754077185   -0.730108439120408125866390492    3.072994613832147781096182371   -0.566318094529155602323555740
O   -0.060650628639620923765463090    5.583384136351846827039935306    0.399059720013693941531585097    1.012698709460943202742555513   -1.191554152105607222722483129    1.179128057259638540088531045
O   -0.072720495973254195565260716    9.279677422357083926840459753    5.613854269456274970195863716   -1.428113787979786053483621799   -2.011352093424561005008399661   -0.785541310181313678917547350
O    2.198371203542635043959307950    0.216020681053580854147355694    9.162195982827626039579627104    0.525644903574942423674087877   -0.425054267492251502957856246    1.910238289810981093808095466
O    3.366134123301639302638932350    1.550573109934935800424682384    0.472330814885108307699113084   -0.209583565045264874626695928    0.311961473299139591119910619   -0.715275851793815475865301323
O    5.952587037294452265712152439   11.127270230056092614745466562    4.308669963845352057774107379   -0.372617315829001816140930714    1.027898101337257452669859958    1.115415873886823838745385729
O    4.073014769659033085247301642    1.521052825749302117586125860    3.329778859218838427125319868    0.197737596084140543339913165    0.394205615567893075112948509    0.337628227081761711492191580
O    0.747648107872097233972397134    3.667642164434250506843682160    1.930313806796952746935858158   -2.186092400188284656792347960    1.537246361016192608417441079   -0.919548227749135360653554017
O    5.949375125958698440342686808    3.555678082003843165637135826    9.209396540320234691989753628   -0.500398047647550581196185249    1.357055352255955193996328489   -4.692850168823922807348481001
O    4.994876151876751713132307486   -0.136290304609336720975676371    1.449831416780525739085305759   -0.053236489846579915230506685   -2.515066041323243073435378392   -1.325336060574839436299043882
O    9.310598890657651338642608607   11.134323231903612949622583983    6.906508800469381093023457652   -1.725265710584884093492519241   -0.416964214813824951555432108   -1.556710153459542445020247214
O    4.065339374528826432708683569    5.507844895994229439395439840    4.409014918999283771938735299   -2.148847698890112400960106243   -3.026392362633611998745664096   -2.463439665356133900786517188
O    5.257018108033499004250188591    3.567645298145954324553486003    6.520688510626560407956731069    1.040437343699265770879947013    2.002900621707843331620324534    0.305316781536180248401990411
O    4.107304586824287895296947681    2.559907304957421914082260628    8.642908772294504160527139902   -4.838269269438622899315305403   -1.068183757052708182655464952    1.826196326383596524323138510
O    7.469632289135032188198692893    0.029452140860756398366149256    1.851908864922430453248125559    0.118973222127197630904049674    0.128780666420430123242368836   -0.761283587194672817233254136
O    1.838835817411672124421784247    6.979607884319530164418665663   10.029067007427038049627299188    2.379180965866954267085020547   -2.601794749066322243180593432    1.082069067888635327534530006
O    8.487382568896641998890117975    4.810593693000238424417602801    4.673781112278715177410504111   -2.711517406284007503103339332    3.498952569963469816372025889   -1.260558968592048856294240977
O    9.462446702246857910267863190    2.752855808781231150561552568    1.927219118860735047604748615    3.711848367391517911073606228   -2.690070624480713323833924733   -4.999815471430109070638536650
O    8.930929662379254452275745280    3.627899047035623159018769002    7.256661193741088311526254984   -2.220577656678357492125996941   -0.053226935850427370411352967   -0.016564086842880243466424872
O    2.989304768245721888320076687    3.656972744506375327944169840    1.432104510973545519192384745    3.821039072577083306470058233    4.720233263386308664166790550   -3.406616725385402943970802880
O    9.269229923139167937051752233    0.825485893292454253611367676   -0.076807263994072005885982435   -0.734822559259903140826963863   -2.599328126329861099463869323   -1.823853570128677770156855331
O    7.123102997031296013119572308    9.504558373599479637050535530    6.994295034463897664522846753   -3.818082780828965017150267158   -0.758369144010606288652809326   -1.269246642017953785597228489
O    2.335782861476242810994108368   10.792631060382863239510697895    3.897145775346520402138139616   -1.046317923337445554565761086    1.270596386006105360522155934    1.938075737104608675664962902
O    6.729356442997843856801409856    1.752445182426283443177794652    6.118037299065726131175324554    0.216700328821727933314988945    2.396805495307583466768619473    1.740724913906904980365197844
O    5.808127572863334364683396416    6.954392602927333300044665521    0.838376327213454342057730173   -0.807588259008843012409784023   -0.613341100214325085637767643    0.079317096773866002656916407
O    7.919501906755593623188360652    5.431172123336518886560497776    9.392552101025398059164217557   -1.436405639265977418617126204    0.248374555926167389641179284   -0.136892340590501621067076599
O    4.051040553352728501579349540    5.105602420640703797971582389    9.555012178387212173902298673   -0.723118452300561820322855056   -0.556265937833795187650309799   -0.307262266435429975963700144
O    7.270897686874113752253379062    8.845678330589144877649232512    2.768627404855652507364993653   -1.379384664658104053813758583   -3.228945373041590460871930190    3.053385612685888261808031530
O    1.882352772440006205556528585    7.794051328604953532419585827    5.645324158832016436804224213    0.876070243431347872586911762   -2.050204874639232510702413492   -2.750362975504321738640101103
O    9.590480171967417533096522675    7.235136547074122681522112543    8.503561120781014892600069288   -2.580717204150293042630437412    5.600832123702664588904553966    3.369099274466638593850120742
O    3.894698690288262099556959583    5.977341470880630502904296009    6.854225108679216305063164327    2.123088420084612515381650155    0.351274548724978097347104722    0.940646166605727751530707792
O    2.924461717445291153438802212    8.979068263600696653270460956    8.047566669655953575102103059    8.438974020475022541631915374   -0.314337408085593295048454365    4.238525314245924491274308821
O    9.003510989937574038322054548    7.145522634308358433941066323    0.389754912531155239818758673    2.873853080943023829973981265    0.991820076898409230814479542    2.736823757606358320515482774
O    5.942154835266702406215699739    6.592569793412892842354722234    4.186568694003378610091203882   -1.552280653997691439727191209    0.259376989573411320666451729   -0.304393667491630548482817176
O    0.805843242808547244315775515    6.576883604770445757026209321    7.690941724933982648337860155   -1.039982846068810751205546694    2.573293636074656554058037727    0.616330999654684630328915773
O    7.769121206600280160614602210    1.685000913873153427502415980    3.658833899715203230584847915   -0.397528596209930529248310904   -0.637825522814835954577006305   -0.924259077197622236354845882
O    8.854676733960845425031038758    7.579910615007090513017828926    6.199197287437893777450881316   -0.524118602684505385802538058   -0.773234854138296290315679471   -2.590418804010703901496981416
O    7.170438834623160673231723194    0.667196802082791418087026614    8.570629053363450822189406608    3.232123251547002418249121547    0.162611775250186663122065056   -0.177017163388382303690349318
O    7.019198914176930870212345326    5.946857473584189257564958098    6.811315305323338620269169041    0.607534366070494047384897840   -0.665624557068536848447593002   -0.790832720256291810123627783
O   10.243103671611400784513534745   10.185047046239461110417323653    1.339192194313309824948987625    0.050801740351488544611413545    0.786731605744264816948430052   -0.376969771797186825601500004
O   10.814179493972650547561897838    5.448200805347530817357437627    6.095228499005240330177457508   -1.074248427346687684291737241    0.680610013184129281071932382   -1.826552581796999863428254685
O   10.960700718350839366621585214    1.690941261337274292841925671    8.512065617648580939658131683   -0.020994021489450398476606097   -1.312757165293068073452786848   -0.187874507856837819064210748
O    5.487436459808150424066752748    3.378081560540488137434067539    1.015834806884762686607359683   -1.685201253499824414205932044    0.546692451814854152303269075   -0.860544444997492719018339358
O    5.275684926733365642803619266    0.056603587868178983910638635    6.826893244814574934764550562   -0.637648490746651863680938277   -0.561156789815942413923721688    1.528604826636859259636480601
O    4.490930754489236953475028713    8.669692040590250670106797770    3.125381722846129584070240526   -3.273715448231287794556010340   -0.307588585727679386661037597    1.606498488242899425060272733
O    9.626823599346803206344702630    2.896279209612915739313621089    4.333046714266576060481384047    3.072957455426206685444867617    1.305590242584736770936615358    2.335238007870273690969042946
O    3.935466592851893707916133280    9.476027121926259511042189843    5.824983653412053818954063900    2.171919159797470300077293359   -1.797137354309133350227511983   -0.145232591071015881833972117
O    1.666409699433889946007525396    4.513588122710420869054814830    6.582084290995022790582424932    0.529309609261962910053966880   -4.269848265875209492037356540   -4.100816987175247341212980245
O    0.585489956742530570643623378    1.576224995201356282592541902    0.533330662769287977553744895    0.217233080732427197290235199   -1.534566251540415926513105660    0.390280594495674315602684601
O    5.788537058545898617012426257    7.634248782981615910614436871    9.326782008784075372886945843   -2.450076859281618890662457488   -0.149083720148836085250820815   -1.713187297058174518582518431
O    1.852063543079848884076454851   10.700325307007652497759409016    1.117547151184291376324608791    2.620254312594865186980541694   -1.209930921337997400399899561    1.437571535336282124717399711
O    9.908392024611107018472466734    7.697028849614684808955189510    3.478329121667908196968710399   -0.300057587595857044870939490   -2.531873873379261397076334106    0.987665718445023266269799933
O    9.532116851520573419520587777    3.145250911420754302838531657   10.016445936166810781742242398   -2.494167499124603892823870410    3.823706068067090679818420540    1.466257347453693737904245609
O    9.325829999113279811240317940   10.262012192251189546254863671    3.721554594512869407196831162    0.526362521611453471059860476    1.891434123393960442527372834   -0.039367272490139437746137219
O    5.143145578880577772906690370   10.861927189800624660165340174    9.389820321947258463524121908   -0.580235512989379809134504740   -1.463373021103580695623236352    0.887596598855302509889497742
108
Lattice="11.3417145432273703 0.0000000000000000 0.0000000000000000 0.0000000000000000 11.3417145432273703 0.0000000000000000 0.0000000000000000 0.0000000000000000 11.0032022526439235" Properties=species:S:1:pos:R:3:forces:R:3 stress="-15209.1956370964508096 -9001.5154907236083091 7940.1645292761131714 -9001.5154907236083091 3952.5116537182666434 28697.4287818960401637 7940.1645292761131714 28697.4287818960401637 -19157.0845588349984610" pbc="T T T" energy=-1021.7656954717327835
Hf    2.101314565343025630994588937    2.286920186266120147422498121    2.286182728770030703202564837   -0.425624778927715607945714282   -6.329035900859748764446521818   -1.137960081177174398447959902
Hf    3.855943020621038996864626824    6.850778834086694857319344010   10.429694205416195629254616506   -0.186324737146280283717203474    3.794998493240147041660748073    2.338266563098954087251968303
Hf    5.006371874749827810546776163    4.901156554518225405558951024    2.153299480639531804371245016    1.808605326146827785294135538    0.455654489976260235195582027    1.482766442392200012534431153
Hf    9.185348607380451113613162306    5.843082716169853085830254713    7.338412055271229306185887253   -3.173566841374365399275347954   -4.407565728713174202368918486   -3.289695050106987039839623321
Hf    0.134266280190426967600103580    7.061189832079613815096763574    4.765718288235242461325924523    0.839380132190949090897902352    0.827628520145808455055203012    0.703150463030484895732286077
Hf    0.393614547374562806503206502   10.599493357515180846917246527   -0.114658114687284956589863327   -2.770326389780629838810455112    3.595823910653598076692105678   -2.374449629773422998368914705
Hf    7.184059909016252021274340223    3.514889568029149646832820508    5.620648473353170082589258527    1.758266459953335303367794040    3.111798751037602173141749518   -0.577137369549004852764539919
Hf    7.639628526867644708886473381    7.094624835324521150425880478    4.300489998134747970937041828    4.713234832666340246021263738    0.308017952989569521182744438    2.253831075129836047921116915
Hf    1.601218187097840806032422734    5.815838091854729441365634557    1.775975995503765503258364333   -4.197428560547825426851886732   -2.279845577642891196745722482    1.821360950339627526872732233
Hf    0.003793447886145134839708248    3.813446739210648139817294577    5.116634962913069628598350391   -2.073599529860234547129493876   -0.661119230317368300475777687   -1.657661223724595567219353143
Hf   10.958864733968423976762096572    3.202670913130019059167352680    0.371871710295364477083523980    0.756500763326054093127481792    0.577810650326658237219135117    1.165834494455983971761270368
Hf    1.844065923804944606700928489    5.054048573738539218425103172    8.346675445541320570441712334    0.331574558988009748805581012    3.646589884093702771394873707    2.560081273334914975237097678
Hf    8.952586756225514363904949278    9.142070755102334800312746665    7.457821381387231163273554557    3.786400463227134416399621841    0.620686358925031544941930406    2.110795837916124018107666416
Hf    1.712197716809814362903807705    1.167291177837468163502876450    7.474874562228838392741181451   -2.165892545927818879647475114   -0.465413447248747669249269165    0.449008156147405190772303740
Hf    7.811748131918399451478762785    7.373896174381448176404774131    9.992797968922696227878077480   -1.706972816015514204934788722    1.873840535598912948600514028   -1.615500800214708654323203518
Hf    9.038293095076245009522608598    8.748914092440221779156672710    2.076278580782173754926134279    2.179665897289130516156774320    0.740033473529387419986846908   -1.716603068517396746273107055
Hf    5.552495906383390966709612258    8.886760225617800657005318499    1.537996154366247036904269407    2.013648898046557000895973033   -0.154259661913460632831629482   -0.562396461782886381008950138
Hf    5.102446236032720960906772234    9.394523982234487036180325958    7.930514998453023878255407908   -1.601042875262443487827113131    1.708316286773625458650371911   -0.096338865488663993907891836
Hf   11.036649707323611835363408318   -0.147588531728170935242161477    4.941602012193029302977720363   -0.676634357729735347319888206   -1.980660588959981538437205018    1.512951055682091094922725460
Hf    3.337092307398933588302725184    3.888182545225332908955806488    5.276532975178344742062108708   -0.234696000508609642354329594   -0.601900538032016485523456595    1.764936498861456648512557877
Hf   11.002517370653011496983708639    7.126798556971223774780810345   10.340234322524654686503708945    1.057695231191680518278985801    2.140605963114575516215154494    0.800192214603622220536749410
Hf    1.313420194270647600731649618    9.003579634952151522497842961    7.346094517257829359380139067   -6.162845762434891128123126691   -3.439366970113333366043661954   -2.146572337572614230793988099
Hf    7.014564769109276731740010291    3.760061445771761157175205881   10.641652969697341646337918064    5.408258040665752552911271778   -1.491814728487887542485168524    5.220821210463642003674067382
Hf    8.236524316571172121825838985    3.595650203144377776709461614    2.937469234896709746607257330    1.144892993087261334750337483    1.899667129432637713293274828    2.853390013508424249977224463
Hf    4.010078145161465101864450844    7.329628585661796869032968971    5.062761096922333337033705902   -1.185769175108130069062895018    1.600753938184190650062532768    2.195058812777872070398643700
Hf    3.658935631133993116037572690   11.078442204481516952796482656   -0.134500002981786936917529829    0.148382720605055418161555281   -0.374543238606959372205551517   -0.524602052001540086756392611
Hf    7.232173901666582693792406644   -0.009325947180017390980566461    6.171111374981412822648962901    0.857023307992239247177224115   -3.103139983346222763316291093   -3.256164817713178116775907256
Hf    6.094774878751824331857278594    1.401320857346121773190361637    2.559037663256048311666290829   -2.539527423151285212554739701   -2.359012690074863805023142049    0.616893900836664621500915473
Hf    5.727523929262886781543784309    1.884082015301931090078824127    8.034519213329877729279360210   -1.999006475043691999360362388   -1.115009972692845297004282656   -2.434120449025902299666768158
Hf    2.535973574670499885996832745    9.384277968115512180702353362    2.738808131774061127572394980   -0.010691797827718306501676437   -2.961439522162009119199410634   -4.695948317809627070573696983
Hf    3.979143568393091356938384706   -0.028235691699931397824485657    5.005194397861952637640570174    2.582445608412203608139634525    1.914230354923276422596245538    0.166612800730900623147334727
Hf    3.303645536223731138392167850    3.240447253582131814653166657   10.454712988526244643594509398    0.311940530632192847271255687   -1.618355706748725308941061485   -0.143706264384662107946866172
Hf    7.368365315862317466155673173   11.101754967567620369095493515   10.651801327193803459181253857    0.125049845655149705070385835    0.649124161993396509018339202   -1.187403667618889269164128564
Hf    9.335142533724720692589471582    0.406951320288171491945661273    2.268609722073827938970680407    1.267805450435862013591759023    3.242581202564142728306251229    0.701391861939062000175226785
Hf    5.657942626134748742572355695    5.263503985828156928050702845    7.911280370635001446544265491   -2.795741311064776635220141543    0.116820028298041056480371935   -0.401257425516392041142665903
Hf    9.062845358277817453540592396    1.771746916155775952717021937    8.906844030554474045402457705    3.791819770764465413748212086   -1.643925810369200934957234495   -2.318730918992358613905935272