LAMMPS (27 Jun 2024)
OMP_NUM_THREADS environment is not set. Defaulting to 1 thread. (src/comm.cpp:98)
  using 1 OpenMP thread(s) per MPI task
Reading data file ...
  orthogonal box = (0 0 0) to (22.422218 22.19224 20.321894)
  5 by 2 by 2 MPI processor grid
  reading atoms ...
  448 atoms
  read_data CPU = 0.004 seconds
**************** Begin of POD Potentials ****************
species: Hf 
periodic boundary conditions: 1 1 1
number of environment clusters: 8
number of principal compoments: 2
inner cut-off radius: 1
outer cut-off radius: 5
cut-off function type: 1
gaussian_exponents: 
polynomial_degrees: 
bessel polynomial degree: 4
inverse polynomial degree: 10
one-body potential: 1
two-body radial basis functions: 8
three-body radial basis functions: 8
three-body angular degree: 6
four-body radial basis functions: 7
four-body angular degree: 5
five-body radial basis functions: 0
five-body angular degree: 0
six-body radial basis functions: 0
six-body angular degree: 0
seven-body radial basis functions: 0
seven-body angular degree: 0
number of local descriptors per element for one-body potential: 1
number of local descriptors per element for two-body potential: 8
number of local descriptors per element for three-body potential: 56
number of local descriptors per element for four-body potential: 112
number of local descriptors per element for five-body potential: 0
number of local descriptors per element for six-body potential: 0
number of local descriptors per element for seven-body potential: 0
number of local descriptors per element for all potentials: 177
number of global descriptors: 1409
**************** End of POD Potentials ****************

**************** Begin of Model Coefficients ****************
total number of coefficients for POD potential: 1409
total number of elements for PCA projection matrix: 352
total number of elements for PCA centroids: 16
**************** End of Model Coefficients ****************


CITE-CITE-CITE-CITE-CITE-CITE-CITE-CITE-CITE-CITE-CITE-CITE-CITE

Your simulation uses code contributions which should be cited:
- Type Label Framework: https://doi.org/10.1021/acs.jpcb.3c08419
The log file lists these citations in BibTeX format.

CITE-CITE-CITE-CITE-CITE-CITE-CITE-CITE-CITE-CITE-CITE-CITE-CITE

Neighbor list info ...
  update: every = 1 steps, delay = 0 steps, check = no
  max neighbors/atom: 2000, page size: 100000
  master list distance cutoff = 7
  ghost atom cutoff = 7
  binsize = 3.5, bins = 7 7 6
  1 neighbor lists, perpetual/occasional/extra = 1 0 0
  (1) pair pod, perpetual
      attributes: full, newton on
      pair build: full/bin/atomonly
      stencil: full/bin/3d
      bin: standard
Setting up Verlet run ...
  Unit style    : metal
  Current step  : 0
  Time step     : 0.001
Per MPI rank memory allocation (min/avg/max) = 2.586 | 2.586 | 2.586 Mbytes
   Step          Temp          TotEng         PotEng         KinEng         Press          Volume    
         0   300           -3263.9145     -3281.2483      17.333785      1830.9177      10112.159    
       100   91.73263      -3263.0281     -3268.3283      5.3002458      3687.8418      10112.159    
       200   162.76776     -3259.7813     -3269.1859      9.4046046      4574.9561      10112.159    
       300   210.92802     -3255.8521     -3268.0394      12.18727       4969.5313      10112.159    
       400   284.58791     -3251.81       -3268.2533      16.443286      4836.9888      10112.159    
       500   324.33961     -3247.9        -3266.6402      18.740111      5986.9447      10112.159    
       600   291.20127     -3245.1717     -3261.9971      16.825401      7270.4057      10112.159    
       700   293.82712     -3244.0227     -3260.9998      16.977121      7914.9779      10112.159    
       800   302.55351     -3245.616      -3263.0973      17.481325      6878.1209      10112.159    
       900   294.98426     -3247.0805     -3264.1245      17.04398       6423.8049      10112.159    
      1000   311.66056     -3247.7458     -3265.7533      18.007524      6150.0209      10112.159    
      1100   281.98197     -3247.6502     -3263.9429      16.292716      6308.9043      10112.159    
      1200   298.82759     -3246.1462     -3263.4123      17.266044      7071.1549      10112.159    
      1300   282.47936     -3246.0255     -3262.347       16.321455      6811.5129      10112.159    
      1400   315.16102     -3245.5205     -3263.7303      18.209778      6909.0022      10112.159    
      1500   302.17612     -3246.1527     -3263.6122      17.45952       6349.498       10112.159    
      1600   318.30027     -3246.4835     -3264.8746      18.391162      6603.5522      10112.159    
      1700   283.60532     -3246.9981     -3263.3846      16.386512      7143.6901      10112.159    
      1800   260.21249     -3247.4365     -3262.4714      15.034892      6611.8886      10112.159    
      1900   337.88977     -3246.2401     -3265.7631      19.523029      6483.5592      10112.159    
      2000   288.89972     -3246.6444     -3263.3368      16.692419      6502.5128      10112.159    
      2100   321.20525     -3245.7853     -3264.3443      18.55901       6862.9204      10112.159    
      2200   295.08455     -3245.884      -3262.9338      17.049774      6903.5451      10112.159    
      2300   274.59801     -3246.6594     -3262.5255      15.866076      7178.7603      10112.159    
      2400   332.36022     -3246.6139     -3265.8174      19.203536      6337.4847      10112.159    
      2500   270.11149     -3247.4956     -3263.1025      15.606849      6712.1906      10112.159    
      2600   301.58256     -3246.3736     -3263.7988      17.425225      6831.8692      10112.159    
      2700   303.0905      -3245.8459     -3263.3582      17.512352      6983.8982      10112.159    
      2800   301.62201     -3245.7916     -3263.2191      17.427504      6910.3326      10112.159    
      2900   314.20524     -3246.3952     -3264.5497      18.154554      7012.59        10112.159    
      3000   288.80805     -3247.6902     -3264.3773      16.687122      6159.0191      10112.159    
      3100   298.51236     -3247.2926     -3264.5404      17.247831      6774.5999      10112.159    
      3200   298.40019     -3246.4316     -3263.6729      17.241349      6745.4058      10112.159    
      3300   312.56506     -3244.8827     -3262.9425      18.059786      7199.1518      10112.159    
      3400   310.96201     -3244.6336     -3262.6008      17.967163      7234.8815      10112.159    
      3500   316.00953     -3245.1645     -3263.4233      18.258804      7201.0262      10112.159    
      3600   294.5558      -3246.5635     -3263.5827      17.019223      6712.0586      10112.159    
      3700   295.58915     -3247.039      -3264.118       17.07893       6751.4514      10112.159    
      3800   302.55174     -3246.5636     -3264.0448      17.481223      6728.2211      10112.159    
      3900   308.39113     -3245.7423     -3263.5609      17.818619      6926.8722      10112.159    
      4000   309.27186     -3245.0282     -3262.8977      17.869507      7412.6998      10112.159    
      4100   305.12543     -3244.6959     -3262.3258      17.629929      7369.2957      10112.159    
      4200   307.55264     -3245.5263     -3263.2965      17.770171      6990.9784      10112.159    
      4300   293.73639     -3247.1429     -3264.1148      16.971878      6985.4609      10112.159    
      4400   285.85561     -3247.4295     -3263.946       16.516533      6589.3302      10112.159    
      4500   295.84452     -3246.6751     -3263.7688      17.093685      6955.5864      10112.159    
      4600   300.29269     -3245.7813     -3263.132       17.350697      6823.799       10112.159    
      4700   327.92383     -3244.4147     -3263.3619      18.947204      7099.2661      10112.159    
      4800   325.06255     -3243.3915     -3262.1733      18.781882      7255.5418      10112.159    
      4900   293.5028      -3244.6918     -3261.6501      16.958382      7183.1362      10112.159    
      5000   322.32514     -3246.0101     -3264.6339      18.623716      6920.3947      10112.159    
      5100   276.07673     -3247.4543     -3263.4059      15.951516      6593.0751      10112.159    
      5200   311.01049     -3246.8367     -3264.8067      17.969964      6470.0525      10112.159    
      5300   302.16284     -3246.2202     -3263.6789      17.458753      6883.223       10112.159    
      5400   289.84804     -3245.7641     -3262.5113      16.747212      7045.4122      10112.159    
      5500   319.31608     -3244.6679     -3263.1178      18.449855      7166.9892      10112.159    
      5600   324.62602     -3244.3649     -3263.1216      18.75666       7045.2893      10112.159    
      5700   300.05806     -3246.1683     -3263.5054      17.33714       6948.4042      10112.159    
      5800   301.95183     -3246.7518     -3264.1984      17.446561      6588.3989      10112.159    
      5900   287.74425     -3247.0693     -3263.695       16.625657      6630.5936      10112.159    
      6000   303.07977     -3246.7145     -3264.2262      17.511732      6529.3119      10112.159    
      6100   302.02597     -3245.3872     -3262.838       17.450845      7151.2278      10112.159    
      6200   331.62895     -3244.6522     -3263.8135      19.161283      7005.5787      10112.159    
      6300   284.10028     -3245.9616     -3262.3768      16.415111      6996.6275      10112.159    
      6400   321.61582     -3246.2697     -3264.8524      18.582732      6566.6361      10112.159    
      6500   286.49242     -3247.1014     -3263.6547      16.553327      6584.9865      10112.159    
      6600   285.67374     -3246.8614     -3263.3674      16.506024      7058.9249      10112.159    
      6700   299.59167     -3246.3658     -3263.676       17.310192      6632.7347      10112.159    
      6800   329.91262     -3245.1731     -3264.2352      19.062115      6803.6595      10112.159    
      6900   315.4793      -3243.5973     -3261.8255      18.228168      7520.9631      10112.159    
      7000   304.50528     -3244.4986     -3262.0927      17.594097      7446.398       10112.159    
      7100   312.64653     -3245.7148     -3263.7793      18.064493      6853.0333      10112.159    
      7200   298.17934     -3246.6496     -3263.8782      17.228589      6756.6194      10112.159    
      7300   295.8282      -3246.8996     -3263.9924      17.092742      6678.5508      10112.159    
      7400   309.33698     -3246.4536     -3264.3269      17.873269      6769.8641      10112.159    
      7500   310.05254     -3245.3491     -3263.2637      17.914614      6816.396       10112.159    
      7600   305.66388     -3244.8349     -3262.496       17.66104       7254.3723      10112.159    
      7700   314.73482     -3245.2575     -3263.4427      18.185153      6975.2564      10112.159    
      7800   279.74956     -3247.2455     -3263.4092      16.16373       6798.5301      10112.159    
      7900   294.07434     -3247.4139     -3264.4053      16.991405      6505.6032      10112.159    
      8000   298.73775     -3246.7514     -3264.0123      17.260853      6734.4427      10112.159    
      8100   294.08413     -3245.699      -3262.691       16.991971      7284.1095      10112.159    
      8200   320.26862     -3245.1673     -3263.6722      18.504892      6858.3734      10112.159    
      8300   303.77215     -3245.8994     -3263.4511      17.551737      6888.5026      10112.159    
      8400   283.60618     -3247.7907     -3264.1773      16.386562      6558.8783      10112.159    
      8500   292.36603     -3248.2975     -3265.1902      16.8927        6159.5223      10112.159    
      8600   283.83973     -3247.6268     -3264.0269      16.400057      6704.2981      10112.159    
      8700   302.17899     -3246.1439     -3263.6035      17.459686      6925.9676      10112.159    
      8800   316.5834      -3245.7134     -3264.0053      18.291962      6679.9701      10112.159    
      8900   304.85641     -3246.1191     -3263.7334      17.614385      6840.7325      10112.159    
      9000   292.76599     -3247.2491     -3264.1649      16.915809      6696.7331      10112.159    
      9100   290.02357     -3248.1856     -3264.943       16.757354      6264.6911      10112.159    
      9200   300.26602     -3247.5231     -3264.8723      17.349156      6529.2383      10112.159    
      9300   285.21705     -3247.0126     -3263.4922      16.479637      6792.0615      10112.159    
      9400   301.21835     -3246.3472     -3263.7513      17.404181      6704.6851      10112.159    
      9500   312.6374      -3245.7981     -3263.8621      18.063965      6723.7988      10112.159    
      9600   298.11159     -3246.0575     -3263.2822      17.224674      6798.6374      10112.159    
      9700   295.63805     -3247.4681     -3264.5499      17.081755      6708.489       10112.159    
      9800   279.37653     -3248.2203     -3264.3624      16.142176      6231.9262      10112.159    
      9900   300.92495     -3247.1739     -3264.5611      17.387228      6630.971       10112.159    
     10000   293.86888     -3246.6029     -3263.5825      16.979534      6784.8011      10112.159    
     10100   307.01487     -3246.1499     -3263.889       17.7391        6800.5745      10112.159    
     10200   305.59624     -3246.1343     -3263.7914      17.657132      6955.7414      10112.159    
     10300   277.14105     -3247.1227     -3263.1357      16.013012      6765.9477      10112.159    
     10400   294.32956     -3248.4182     -3265.4244      17.006152      6182.3439      10112.159    
     10500   280.83926     -3248.4767     -3264.7033      16.226692      6268.5106      10112.159    
     10600   294.58507     -3246.8322     -3263.8531      17.020915      6684.8527      10112.159    
     10700   304.3642      -3246.2286     -3263.8146      17.585946      6758.3436      10112.159    
     10800   295.33232     -3246.1449     -3263.209       17.06409       6712.0856      10112.159    
     10900   301.72771     -3246.5571     -3263.9907      17.433611      6826.2563      10112.159    
     11000   297.05768     -3247.312      -3264.4758      17.16378       6542.2505      10112.159    
     11100   279.05816     -3247.6996     -3263.8234      16.123781      6459.7375      10112.159    
     11200   294.95112     -3246.8579     -3263.9         17.042065      6878.2398      10112.159    
     11300   315.45464     -3245.3997     -3263.6264      18.226743      7045.928       10112.159    
     11400   300.99772     -3245.4045     -3262.7959      17.391433      7095.8275      10112.159    
     11500   312.19323     -3246.0031     -3264.0414      18.038302      6724.3997      10112.159    
     11600   282.8554      -3247.7792     -3264.1224      16.343183      6828.9562      10112.159    
     11700   294.38681     -3247.643      -3264.6524      17.009459      6176.0421      10112.159    
     11800   295.69063     -3246.9199     -3264.0047      17.084793      6857.0612      10112.159    
     11900   295.50903     -3245.9589     -3263.0332      17.0743        6840.0814      10112.159    
     12000   298.57879     -3245.7497     -3263.0013      17.251669      7092.5216      10112.159    
     12100   316.93254     -3245.9274     -3264.2396      18.312136      6676.5402      10112.159    
     12200   305.6714      -3246.2785     -3263.9399      17.661475      6453.8096      10112.159    
     12300   310.93335     -3246.1368     -3264.1023      17.965507      6827.7976      10112.159    
     12400   279.10252     -3246.6569     -3262.7832      16.126344      7033.4179      10112.159    
     12500   290.14905     -3247.1632     -3263.9278      16.764605      6688.2911      10112.159    
     12600   303.5921      -3248.2404     -3265.7817      17.541335      6116.5205      10112.159    
     12700   268.313       -3248.8505     -3264.3534      15.502933      6385.7986      10112.159    
     12800   289.12979     -3247.3248     -3264.0305      16.705713      6589.5264      10112.159    
     12900   299.46098     -3246.4203     -3263.7229      17.302641      6808.9014      10112.159    
     13000   304.42636     -3245.9429     -3263.5325      17.589537      6898.3234      10112.159    
     13100   305.38175     -3246.1056     -3263.7503      17.644739      6803.987       10112.159    
     13200   311.88929     -3247.0459     -3265.0666      18.02074       6591.829       10112.159    
     13300   275.23074     -3248.4937     -3264.3963      15.902636      6365.3069      10112.159    
     13400   278.63064     -3247.9565     -3264.0555      16.099079      6702.8562      10112.159    
     13500   303.84251     -3246.9076     -3264.4634      17.555803      6557.0133      10112.159    
     13600   303.14982     -3246.6896     -3264.2054      17.51578       6530.6736      10112.159    
     13700   299.46201     -3245.8255     -3263.1283      17.302701      6907.6652      10112.159    
     13800   297.28345     -3245.5402     -3262.717       17.176825      7095.1316      10112.159    
     13900   314.69145     -3245.8672     -3264.0498      18.182647      6432.3729      10112.159    
     14000   297.82704     -3246.6048     -3263.813       17.208233      6674.5962      10112.159    
     14100   288.00066     -3247.1203     -3263.7608      16.640472      6483.597       10112.159    
     14200   325.04677     -3246.4449     -3265.2259      18.78097       6616.7049      10112.159    
     14300   307.06876     -3244.0983     -3261.8405      17.742214      7380.7109      10112.159    
     14400   318.78726     -3243.3097     -3261.729       18.4193        7427.6022      10112.159    
     14500   312.50934     -3244.9901     -3263.0466      18.056566      7012.4553      10112.159    
     14600   309.38065     -3246.007      -3263.8828      17.875792      6675.431       10112.159    
     14700   300.14033     -3246.9618     -3264.3037      17.341894      6487.2609      10112.159    
     14800   297.03083     -3247.4666     -3264.6288      17.162229      6571.2041      10112.159    
     14900   293.96318     -3247.173      -3264.1579      16.984982      6558.3841      10112.159    
     15000   291.50893     -3245.5471     -3262.3903      16.843177      7203.8148      10112.159    
     15100   312.70866     -3245.0158     -3263.0838      18.068082      7316.0347      10112.159    
     15200   308.94714     -3245.769      -3263.6197      17.850745      6835.6532      10112.159    
     15300   303.83025     -3246.54       -3264.0951      17.555094      6771.5474      10112.159    
     15400   288.82184     -3247.3101     -3263.998       16.687919      6501.1247      10112.159    
     15500   287.02061     -3247.3402     -3263.924       16.583846      6527.4984      10112.159    
     15600   306.1051      -3244.9875     -3262.674       17.686534      7202.1961      10112.159    
     15700   313.37526     -3244.6708     -3262.7774      18.106598      7251.3297      10112.159    
     15800   318.39165     -3245.6667     -3264.0631      18.396442      6873.6987      10112.159    
     15900   287.27864     -3247.1854     -3263.7841      16.598754      6688.4896      10112.159    
     16000   282.70759     -3247.3211     -3263.6557      16.334642      6730.3228      10112.159    
     16100   312.28337     -3246.3893     -3264.4328      18.04351       6711.2369      10112.159    
     16200   311.05476     -3245.4853     -3263.4578      17.972522      6665.4973      10112.159    
     16300   310.73525     -3244.6259     -3262.5799      17.95406       7367.0913      10112.159    
     16400   306.03893     -3244.2315     -3261.9142      17.68271       7379.2024      10112.159    
     16500   317.44017     -3245.528      -3263.8695      18.341466      6859.1345      10112.159    
     16600   306.90389     -3246.9702     -3264.7029      17.732687      6780.5858      10112.159    
     16700   283.11594     -3247.6816     -3264.0398      16.358237      6745.4282      10112.159    
     16800   290.69208     -3246.9982     -3263.7941      16.79598       6747.4155      10112.159    
     16900   317.19525     -3245.5495     -3263.8768      18.327315      6995.6684      10112.159    
     17000   300.30545     -3245.7055     -3263.057       17.351434      7150.3408      10112.159    
     17100   299.95737     -3246.2841     -3263.6155      17.331323      6745.3017      10112.159    
     17200   284.34845     -3247.0352     -3263.4646      16.42945       6724.0826      10112.159    
     17300   313.02771     -3246.6153     -3264.7018      18.086517      6460.7416      10112.159    
     17400   332.15499     -3244.7399     -3263.9316      19.191678      6904.0997      10112.159    
     17500   300.13284     -3244.8072     -3262.1487      17.341461      7464.458       10112.159    
     17600   284.83868     -3246.1981     -3262.6559      16.457775      7250.2991      10112.159    
     17700   308.48188     -3246.7284     -3264.5523      17.823862      6596.2678      10112.159    
     17800   299.48655     -3247.2912     -3264.5953      17.304118      6336.8235      10112.159    
     17900   307.06763     -3246.7211     -3264.4632      17.742148      6710.1594      10112.159    
     18000   282.64261     -3245.6972     -3262.0281      16.330888      7264.6996      10112.159    
     18100   305.57656     -3245.5345     -3263.1905      17.655995      7246.8097      10112.159    
     18200   312.30257     -3245.772      -3263.8166      18.044619      6962.2337      10112.159    
     18300   307.99915     -3246.6122     -3264.4082      17.795971      6758.2338      10112.159    
     18400   290.55293     -3247.2319     -3264.0199      16.78794       6706.8653      10112.159    
     18500   292.8497      -3246.8675     -3263.7882      16.920646      7018.3132      10112.159    
     18600   286.94764     -3246.4101     -3262.9897      16.579629      6903.0236      10112.159    
     18700   344.01486     -3244.0526     -3263.9295      19.876933      7155.1123      10112.159    
     18800   316.56696     -3244.3464     -3262.6374      18.291012      7010.0529      10112.159    
     18900   296.54343     -3245.8197     -3262.9537      17.134067      7305.0093      10112.159    
     19000   294.64114     -3246.6841     -3263.7083      17.024154      6873.9988      10112.159    
     19100   300.60179     -3247.0856     -3264.4541      17.368556      6621.3341      10112.159    
     19200   290.86179     -3247.2012     -3264.0069      16.805786      6527.5209      10112.159    
     19300   315.34027     -3245.5978     -3263.8179      18.220135      7099.211       10112.159    
     19400   304.58539     -3244.8398     -3262.4385      17.598726      7165.799       10112.159    
     19500   324.12727     -3244.9439     -3263.6717      18.727842      6965.1915      10112.159    
     19600   290.16973     -3246.9412     -3263.707       16.765799      6854.8066      10112.159    
     19700   281.40554     -3247.0797     -3263.3391      16.259411      6739.7437      10112.159    
     19800   314.78245     -3246.284      -3264.4719      18.187905      6587.8472      10112.159    
     19900   308.10044     -3246.074      -3263.8758      17.801823      6570.5924      10112.159    
     20000   312.4301      -3245.5878     -3263.6398      18.051988      6852.2959      10112.159    
     20100   284.20559     -3245.4537     -3261.8749      16.421196      7529.6065      10112.159    
     20200   301.85016     -3246.0989     -3263.5396      17.440686      6795.1787      10112.159    
     20300   294.74503     -3247.2565     -3264.2867      17.030157      6741.7964      10112.159    
     20400   310.10351     -3247.1501     -3265.0677      17.917559      6399.0735      10112.159    
     20500   280.25584     -3246.9531     -3263.1461      16.192982      7072.3141      10112.159    
     20600   316.16311     -3245.0485     -3263.3162      18.267679      7246.2529      10112.159    
     20700   292.4897      -3245.1964     -3262.0963      16.899846      7355.6813      10112.159    
     20800   316.59526     -3245.6816     -3263.9742      18.292648      6666.5947      10112.159    
     20900   304.61302     -3247.2593     -3264.8596      17.600322      6601.3279      10112.159    
     21000   284.53267     -3247.5445     -3263.9846      16.440094      6727.9258      10112.159    
     21100   294.72573     -3247.0009     -3264.03        17.029042      6884.2943      10112.159    
     21200   296.75056     -3246.2889     -3263.4349      17.146035      6901.6433      10112.159    
     21300   311.34414     -3245.1628     -3263.1521      17.989242      7193.2909      10112.159    
     21400   320.06994     -3244.6131     -3263.1065      18.493413      7100.1982      10112.159    
     21500   290.20279     -3246.2268     -3262.9945      16.76771       7076.0482      10112.159    
     21600   295.20186     -3247.208      -3264.2646      17.056553      6622.0717      10112.159    
     21700   299.83998     -3247.2486     -3264.5732      17.32454       6622.967       10112.159    
     21800   296.82383     -3246.6436     -3263.7939      17.150268      6793.4269      10112.159    
     21900   309.79661     -3245.4136     -3263.3135      17.899827      7013.9951      10112.159    
     22000   307.16869     -3245.0908     -3262.8388      17.747987      7241.5123      10112.159    
     22100   301.88539     -3246.2472     -3263.6899      17.442722      6864.7662      10112.159    
     22200   305.88803     -3247.9978     -3265.6718      17.673991      6401.2781      10112.159    
     22300   276.46984     -3248.188      -3264.1622      15.974229      6525.6291      10112.159    
     22400   303.03948     -3246.8398     -3264.3492      17.509405      6553.1687      10112.159    
     22500   300.89222     -3246.1281     -3263.5134      17.385337      6796.3555      10112.159    
     22600   304.42462     -3245.8847     -3263.4741      17.589437      6793.7794      10112.159    
     22700   296.18891     -3246.2784     -3263.3919      17.113584      6937.503       10112.159    
     22800   289.87874     -3247.6765     -3264.4255      16.748986      6233.0153      10112.159    
     22900   289.07025     -3248.1575     -3264.8598      16.702273      6315.9136      10112.159    
     23000   295.838       -3247.1363     -3264.2296      17.093308      6628.3818      10112.159    
     23100   299.52823     -3246.1567     -3263.4633      17.306527      6775.8173      10112.159    
     23200   306.95282     -3245.8815     -3263.617       17.735514      6774.5362      10112.159    
     23300   313.78968     -3245.789      -3263.9196      18.130543      6816.0116      10112.159    
     23400   291.1014      -3246.4195     -3263.2392      16.819631      6744.8622      10112.159    
     23500   284.62568     -3247.0439     -3263.4893      16.445468      6674.319       10112.159    
     23600   315.401       -3246.7036     -3264.9273      18.223644      6437.1128      10112.159    
     23700   305.21986     -3245.5053     -3263.1407      17.635385      7041.8614      10112.159    
     23800   308.56377     -3245.0461     -3262.8747      17.828594      7293.7327      10112.159    
     23900   303.30953     -3245.9335     -3263.4585      17.525008      6785.8327      10112.159    
     24000   293.14088     -3247.0662     -3264.0037      16.937471      6703.5991      10112.159    
     24100   293.22315     -3247.4753     -3264.4175      16.942224      6386.8783      10112.159    
     24200   299.58007     -3246.8717     -3264.1812      17.309522      6658.2277      10112.159    
     24300   316.58479     -3244.9986     -3263.2906      18.292043      7059.9428      10112.159    
     24400   305.34397     -3245.4077     -3263.0503      17.642556      6881.8995      10112.159    
     24500   299.87213     -3246.0673     -3263.3937      17.326397      7036.3689      10112.159    
     24600   317.40035     -3246.6688     -3265.008       18.339165      6394.1283      10112.159    
     24700   275.19672     -3248.2551     -3264.1557      15.90067       6477.7079      10112.159    
     24800   283.2145      -3247.8765     -3264.2404      16.363931      6379.927       10112.159    
     24900   315.34011     -3247.0668     -3265.2869      18.220126      6552.2557      10112.159    
     25000   291.64657     -3246.544      -3263.3952      16.85113       6724.3108      10112.159    
     25100   301.21498     -3245.8829     -3263.2869      17.403986      6855.1794      10112.159    
     25200   304.27155     -3245.9059     -3263.4865      17.580592      6901.907       10112.159    
     25300   293.89244     -3246.3811     -3263.362       16.980895      6975.8734      10112.159    
     25400   304.49644     -3246.6603     -3264.2538      17.593586      6677.1583      10112.159    
     25500   308.73399     -3246.6455     -3264.4839      17.838429      6542.3112      10112.159    
     25600   294.51469     -3246.7167     -3263.7336      17.016848      6739.7099      10112.159    
     25700   294.62535     -3246.2462     -3263.2695      17.023242      7019.7957      10112.159    
     25800   318.20823     -3245.4343     -3263.8201      18.385844      7001.7746      10112.159    
     25900   303.29639     -3246.1715     -3263.6958      17.524248      6734.0882      10112.159    
     26000   288.09356     -3247.5815     -3264.2273      16.64584       6573.4175      10112.159    
     26100   283.02442     -3247.8848     -3264.2378      16.352949      6782.1185      10112.159    
     26200   304.58567     -3246.7573     -3264.356       17.598742      6633.2661      10112.159    
     26300   312.69414     -3245.0642     -3263.1315      18.067244      7188.6156      10112.159    
     26400   306.81257     -3245.2288     -3262.9562      17.727411      7216.0425      10112.159    
     26500   296.19664     -3246.3837     -3263.4977      17.11403       6805.3694      10112.159    
     26600   305.21212     -3247.0465     -3264.6814      17.634938      6300.3649      10112.159    
     26700   284.44238     -3247.2751     -3263.71        16.434877      6931.2523      10112.159    
     26800   305.06429     -3245.8563     -3263.4827      17.626396      6990.549       10112.159    
     26900   301.01422     -3244.4623     -3261.8547      17.392387      7469.1592      10112.159    
     27000   323.61499     -3244.9657     -3263.6639      18.698242      7137.4784      10112.159    
     27100   309.40415     -3245.9898     -3263.8669      17.87715       6947.6878      10112.159    
     27200   280.086       -3247.0165     -3263.1996      16.183169      6896.907       10112.159    
     27300   299.69332     -3247.011      -3264.3271      17.316066      6811.2659      10112.159    
     27400   290.56063     -3246.6771     -3263.4655      16.788385      6789.4202      10112.159    
     27500   318.75215     -3244.8596     -3263.2769      18.417271      6965.7345      10112.159    
     27600   312.32469     -3244.8515     -3262.8974      18.045897      7245.6033      10112.159    
     27700   300.39997     -3246.0718     -3263.4287      17.356895      7159.5547      10112.159    
     27800   298.73465     -3246.987      -3264.2477      17.260675      6588.56        10112.159    
     27900   295.74144     -3247.073      -3264.1607      17.087729      6834.6159      10112.159    
     28000   298.10624     -3246.3083     -3263.5326      17.224365      7074.9085      10112.159    
     28100   314.48342     -3245.59       -3263.7607      18.170627      6863.4376      10112.159    
     28200   311.51123     -3245.9779     -3263.9768      17.998896      6903.3566      10112.159    
     28300   295.45349     -3246.458      -3263.5291      17.071091      6829.6371      10112.159    
     28400   305.42799     -3246.3404     -3263.9878      17.647411      6748.6838      10112.159    
     28500   301.35684     -3246.4449     -3263.857       17.412183      6940.9582      10112.159    
     28600   277.18703     -3247.3686     -3263.3842      16.015668      7025.5335      10112.159    
     28700   302.02958     -3247.8664     -3265.3175      17.451053      6366.2791      10112.159    
     28800   291.32461     -3247.8452     -3264.6777      16.832528      6232.0051      10112.159    
     28900   299.35139     -3246.3238     -3263.6201      17.296309      7199.6393      10112.159    
     29000   304.43457     -3245.474      -3263.064       17.590012      7088.3377      10112.159    
     29100   298.99691     -3245.7398     -3263.0157      17.275828      6926.3157      10112.159    
     29200   297.72325     -3246.6815     -3263.8838      17.202236      6878.1596      10112.159    
     29300   302.49055     -3247.9254     -3265.403       17.477688      6375.3065      10112.159    
     29400   272.83852     -3248.9021     -3264.6665      15.764415      6349.9953      10112.159    
     29500   289.64628     -3247.2099     -3263.9454      16.735555      6791.4935      10112.159    
     29600   309.60326     -3245.8049     -3263.6935      17.888655      6699.2339      10112.159    
     29700   301.03002     -3245.3271     -3262.7204      17.393299      7157.8713      10112.159    
     29800   313.70969     -3245.3668     -3263.4927      18.125922      6965.4773      10112.159    
     29900   296.94793     -3246.6818     -3263.8392      17.157439      6917.9395      10112.159    
     30000   283.08504     -3247.1362     -3263.4926      16.356451      6852.3359      10112.159    
     30100   303.99753     -3246.7884     -3264.3532      17.56476       6674.5075      10112.159    
     30200   322.22732     -3246.0546     -3264.6727      18.618064      6684.3414      10112.159    
     30300   310.48507     -3244.4016     -3262.3412      17.939606      7405.3848      10112.159    
     30400   318.31979     -3244.0324     -3262.4247      18.39229       7535.1412      10112.159    
     30500   297.27158     -3245.8023     -3262.9784      17.176139      7024.8255      10112.159    
     30600   301.58881     -3246.4082     -3263.8338      17.425586      6932.8435      10112.159    
     30700   306.06038     -3246.7348     -3264.4187      17.68395       6654.0786      10112.159    
     30800   300.28415     -3247.0348     -3264.385       17.350203      6585.0972      10112.159    
     30900   285.19473     -3247.0956     -3263.5739      16.478347      6889.1437      10112.159    
     31000   303.59443     -3246.0702     -3263.6117      17.541469      7012.0883      10112.159    
     31100   322.68212     -3245.1752     -3263.8195      18.644342      6955.0859      10112.159    
     31200   297.04039     -3245.7863     -3262.949       17.162781      7106.5546      10112.159    
     31300   287.18093     -3247.2503     -3263.8434      16.593109      6720.2387      10112.159    
     31400   289.52948     -3248.3587     -3265.0875      16.728806      6402.2084      10112.159    
     31500   290.79389     -3247.9454     -3264.7473      16.801863      6386.1063      10112.159    
     31600   283.38589     -3246.9262     -3263.3001      16.373834      6784.4164      10112.159    
     31700   310.47128     -3246.1418     -3264.0806      17.938808      6858.755       10112.159    
     31800   293.70604     -3246.6213     -3263.5914      16.970125      6816.7138      10112.159    
     31900   302.98784     -3246.582      -3264.0885      17.506421      6758.7721      10112.159    
     32000   310.23359     -3245.6983     -3263.6234      17.925075      6727.8783      10112.159    
     32100   304.30061     -3244.9072     -3262.4895      17.582272      7318.8723      10112.159    
     32200   312.13111     -3244.7077     -3262.7425      18.034712      7267.7721      10112.159    
     32300   315.99469     -3246.1212     -3264.3792      18.257947      6605.7108      10112.159    
     32400   291.12168     -3246.9827     -3263.8035      16.820802      6924.057       10112.159    
     32500   284.84721     -3247.2068     -3263.6651      16.458268      6676.7878      10112.159    
     32600   301.26907     -3246.7213     -3264.1285      17.407111      6800.5508      10112.159    
     32700   316.96421     -3245.3472     -3263.6612      18.313966      6792.5013      10112.159    
     32800   307.47758     -3244.5484     -3262.3142      17.765834      7144.7154      10112.159    
     32900   320.78834     -3243.7638     -3262.2988      18.534921      7460.4562      10112.159    
     33000   298.90525     -3245.1421     -3262.4126      17.270532      6961.8857      10112.159    
     33100   307.24819     -3246.1351     -3263.8877      17.752581      6774.2707      10112.159    
     33200   285.31194     -3247.3188     -3263.804       16.48512       6639.8867      10112.159    
     33300   298.65838     -3247.3455     -3264.6017      17.256268      6324.9936      10112.159    
     33400   307.81427     -3246.4551     -3264.2404      17.785288      6677.0281      10112.159    
     33500   303.67788     -3245.3292     -3262.8755      17.546291      7114.9007      10112.159    
     33600   325.51617     -3243.6896     -3262.4977      18.808092      7355.4094      10112.159    
     33700   318.74982     -3244.164      -3262.5811      18.417137      6985.7343      10112.159    
     33800   309.38152     -3245.5527     -3263.4285      17.875843      7087.9758      10112.159    
     33900   309.02476     -3246.382      -3264.2372      17.85523       6390.0373      10112.159    
     34000   289.16432     -3247.1527     -3263.8604      16.707708      6561.2449      10112.159    
     34100   297.16655     -3247.0257     -3264.1958      17.170071      6740.9073      10112.159    
     34200   296.66661     -3246.6196     -3263.7607      17.141185      6787.0824      10112.159    
     34300   317.74384     -3245.1024     -3263.4615      18.359012      6928.1062      10112.159    
     34400   306.42819     -3245.1926     -3262.8978      17.705201      7149.8577      10112.159    
     34500   305.64687     -3245.8934     -3263.5535      17.660058      6817.7894      10112.159    
     34600   295.02581     -3246.6759     -3263.7223      17.04638       6806.9767      10112.159    
     34700   287.9648      -3247.1698     -3263.8082      16.6384        6197.1408      10112.159    
     34800   311.05559     -3246.5297     -3264.5023      17.97257       6799.8819      10112.159    
     34900   293.55211     -3246.4323     -3263.3935      16.961231      6601.8222      10112.159    
     35000   307.94103     -3245.9838     -3263.7764      17.792612      6725.4504      10112.159    
     35100   314.20593     -3245.4071     -3263.5617      18.154594      7030.8816      10112.159    
     35200   297.12211     -3246.2871     -3263.4546      17.167503      6779.5466      10112.159    
     35300   295.92891     -3247.3888     -3264.4874      17.098561      6542.2101      10112.159    
     35400   283.3491      -3247.7849     -3264.1566      16.371708      6555.7323      10112.159    
     35500   313.50253     -3246.3385     -3264.4524      18.113952      6568.5582      10112.159    
     35600   302.09991     -3245.3143     -3262.7695      17.455116      6968.0044      10112.159    
     35700   310.58376     -3245.4839     -3263.4292      17.945308      7069.117       10112.159    
     35800   307.60398     -3246.592      -3264.3651      17.773138      6509.5169      10112.159    
     35900   291.19679     -3247.0138     -3263.839       16.825142      6912.3024      10112.159    
     36000   295.38355     -3246.7677     -3263.8347      17.06705       6857.3738      10112.159    
     36100   305.91638     -3246.7606     -3264.4362      17.67563       6452.9593      10112.159    
     36200   298.68821     -3246.5769     -3263.8349      17.257991      6810.4571      10112.159    
     36300   305.28633     -3244.9125     -3262.5517      17.639226      7263.8463      10112.159    
     36400   318.55069     -3243.9741     -3262.3798      18.405631      7387.7418      10112.159    
     36500   301.55989     -3245.8282     -3263.2521      17.423915      6970.4911      10112.159    
     36600   305.98711     -3246.7776     -3264.4573      17.679717      6753.8996      10112.159    
     36700   294.46056     -3247.2138     -3264.2275      17.01372       6601.6078      10112.159    
     36800   291.724       -3247.365      -3264.2206      16.855604      7006.0596      10112.159    
     36900   307.85191     -3246.3437     -3264.1312      17.787463      6773.5471      10112.159    
     37000   307.31065     -3245.6174     -3263.3736      17.75619       7316.0466      10112.159    
     37100   294.13552     -3246.0927     -3263.0877      16.99494       6823.4113      10112.159    
     37200   299.17206     -3246.5583     -3263.8443      17.285947      6866.1591      10112.159    
     37300   281.12053     -3247.8272     -3264.0702      16.242943      6575.0321      10112.159    
     37400   287.52389     -3248.4119     -3265.0248      16.612925      6194.5673      10112.159    
     37500   297.43772     -3247.3758     -3264.5616      17.185739      6689.516       10112.159    
     37600   286.06757     -3246.4356     -3262.9644      16.52878       7053.0562      10112.159    
     37700   309.36854     -3245.7225     -3263.5976      17.875093      7006.6293      10112.159    
     37800   304.97927     -3245.6544     -3263.2759      17.621484      7093.034       10112.159    
     37900   304.25096     -3246.5514     -3264.1308      17.579403      6638.695       10112.159    
     38000   287.17653     -3248.161      -3264.7538      16.592855      6559.0253      10112.159    
     38100   293.10175     -3247.7482     -3264.6835      16.935209      6523.5889      10112.159    
     38200   292.39553     -3246.5814     -3263.4758      16.894405      6825.6757      10112.159    
     38300   308.84485     -3245.9583     -3263.8031      17.844834      6970.473       10112.159    
     38400   297.3303      -3245.9236     -3263.1031      17.179532      6986.1341      10112.159    
     38500   303.70714     -3246.226      -3263.774       17.547981      7110.6601      10112.159    
     38600   289.94398     -3247.4239     -3264.1766      16.752756      6709.3408      10112.159    
     38700   278.28227     -3248.7002     -3264.7791      16.07895       6346.256       10112.159    
     38800   273.19008     -3249.7483     -3265.533       15.784728      6279.0595      10112.159    
     38900   275.26948     -3248.3343     -3264.2391      15.904874      6339.942       10112.159    
     39000   293.94137     -3247.2096     -3264.1934      16.983722      6782.871       10112.159    
     39100   314.11446     -3246.2242     -3264.3736      18.149309      6852.6454      10112.159    
     39200   285.8928      -3246.0486     -3262.5673      16.518681      7300.5996      10112.159    
     39300   320.93478     -3245.2078     -3263.7512      18.543382      7024.6063      10112.159    
     39400   304.5159      -3245.4311     -3263.0258      17.594711      7196.8095      10112.159    
     39500   274.01512     -3247.2533     -3263.0857      15.832398      6807.7382      10112.159    
     39600   305.96729     -3247.2867     -3264.9652      17.678571      6352.4004      10112.159    
     39700   295.57203     -3247.2481     -3264.326       17.077941      6744.3402      10112.159    
     39800   297.09875     -3246.0266     -3263.1928      17.166153      7183.1725      10112.159    
     39900   312.69477     -3244.8786     -3262.9459      18.06728       7104.3706      10112.159    
     40000   308.65815     -3245.1054     -3262.9394      17.834047      7051.1324      10112.159    
     40100   312.51617     -3246.1924     -3264.2494      18.056961      6761.9307      10112.159    
     40200   290.81148     -3247.1856     -3263.9885      16.802879      6711.7986      10112.159    
     40300   292.15781     -3247.0402     -3263.9209      16.880669      6960.2868      10112.159    
     40400   294.27157     -3246.5044     -3263.5072      17.002801      6791.486       10112.159    
     40500   321.20016     -3245.2791     -3263.8378      18.558715      6990.3179      10112.159    
     40600   311.08173     -3244.4297     -3262.4037      17.97408       7275.0795      10112.159    
     40700   306.27273     -3244.4284     -3262.1246      17.696219      7318.4169      10112.159    
     40800   310.65375     -3246.1951     -3264.1444      17.949352      6811.6188      10112.159    
     40900   302.45467     -3246.8447     -3264.3203      17.475615      6712.1995      10112.159    
     41000   288.47342     -3247.4624     -3264.1302      16.667788      6604.3543      10112.159    
     41100   286.11867     -3247.2449     -3263.7767      16.531732      6846.9551      10112.159    
     41200   304.52732     -3245.5588     -3263.1542      17.595371      7378.6936      10112.159    
     41300   311.89048     -3245.1014     -3263.1222      18.020809      7052.7055      10112.159    
     41400   312.13755     -3246.0166     -3264.0517      18.035084      6949.157       10112.159    
     41500   296.62926     -3246.5291     -3263.6681      17.139027      6932.8869      10112.159    
     41600   294.77241     -3246.6605     -3263.6922      17.031739      6997.9978      10112.159    
     41700   290.43907     -3246.7752     -3263.5565      16.781362      6775.031       10112.159    
     41800   318.85704     -3245.6391     -3264.0625      18.423332      6972.4757      10112.159    
     41900   313.40977     -3244.6743     -3262.7829      18.108592      7242.3937      10112.159    
     42000   310.20463     -3245.0132     -3262.9366      17.923402      6981.0593      10112.159    
     42100   293.81931     -3247.1264     -3264.103       16.97667       6702.6781      10112.159    
     42200   286.10032     -3247.2829     -3263.8136      16.530672      6720.4232      10112.159    
     42300   303.23504     -3246.3513     -3263.872       17.520704      6821.6504      10112.159    
     42400   301.28684     -3245.526      -3262.9341      17.408138      7082.866       10112.159    
     42500   302.08393     -3245.1548     -3262.609       17.454193      7343.538       10112.159    
     42600   292.99019     -3246.8228     -3263.7516      16.928764      6877.2937      10112.159    
     42700   300.53876     -3247.6936     -3265.0585      17.364915      6594.6923      10112.159    
     42800   288.09508     -3247.3592     -3264.0052      16.645928      6644.0757      10112.159    
     42900   300.58805     -3246.1385     -3263.5063      17.367763      6867.6941      10112.159    
     43000   296.66101     -3245.6408     -3262.7817      17.140861      7032.1921      10112.159    
     43100   298.19316     -3245.757      -3262.9864      17.229388      7000.966       10112.159    
     43200   296.19168     -3247.4623     -3264.5761      17.113743      6599.2717      10112.159    
     43300   292.0059      -3248.3805     -3265.2524      16.871892      6169.0167      10112.159    
     43400   297.14771     -3247.4933     -3264.6623      17.168982      6481.3852      10112.159    
     43500   286.06137     -3246.4188     -3262.9472      16.528421      7198.0456      10112.159    
     43600   311.70634     -3245.4616     -3263.4717      18.010169      6952.4005      10112.159    
     43700   308.96874     -3245.9953     -3263.8473      17.851993      6581.0495      10112.159    
     43800   301.36698     -3246.5604     -3263.9731      17.412768      6789.1856      10112.159    
     43900   299.82818     -3246.6999     -3264.0237      17.323858      6599.3669      10112.159    
     44000   280.30962     -3246.8339     -3263.03        16.19609       6933.0626      10112.159    
     44100   301.43131     -3246.4076     -3263.8241      17.416485      6941.942       10112.159    
     44200   300.58        -3246.3159     -3263.6832      17.367298      6882.5492      10112.159    
     44300   318.11638     -3246.143      -3264.5235      18.380537      6742.069       10112.159    
     44400   286.84205     -3247.0654     -3263.639       16.573528      6857.2383      10112.159    
     44500   282.49575     -3247.7826     -3264.105       16.322402      6502.3836      10112.159    
     44600   308.58935     -3247.1466     -3264.9767      17.830072      6523.9354      10112.159    
     44700   293.78632     -3246.1074     -3263.0822      16.974764      6868.8494      10112.159    
     44800   320.93277     -3245.0392     -3263.5825      18.543266      6704.0463      10112.159    
     44900   310.65838     -3245.4207     -3263.3703      17.949619      6838.2144      10112.159    
     45000   286.24682     -3246.0679     -3262.607       16.539137      6969.3156      10112.159    
     45100   313.19411     -3246.4001     -3264.4963      18.096132      6754.31        10112.159    
     45200   290.93938     -3246.9467     -3263.757       16.810269      6746.4282      10112.159    
     45300   306.30943     -3246.5984     -3264.2967      17.69834       6699.6292      10112.159    
     45400   300.62882     -3246.5098     -3263.8799      17.370118      6580.6627      10112.159    
     45500   297.24968     -3246.3973     -3263.5722      17.174874      6700.5145      10112.159    
     45600   292.03134     -3246.4066     -3263.28        16.873362      6988.4655      10112.159    
     45700   303.26375     -3246.4553     -3263.9776      17.522363      6700.5714      10112.159    
     45800   308.01623     -3247.111      -3264.9079      17.796957      6441.4173      10112.159    
     45900   273.83338     -3248.2661     -3264.088       15.821897      6433.4687      10112.159    
     46000   300.61159     -3247.5118     -3264.8809      17.369123      6409.23        10112.159    
     46100   288.83432     -3246.3257     -3263.0144      16.688641      6659.3702      10112.159    
     46200   310.23831     -3245.2572     -3263.1826      17.925348      6895.4932      10112.159    
     46300   324.84007     -3245.3885     -3264.1576      18.769027      6808.2335      10112.159    
     46400   287.5564      -3246.8513     -3263.4661      16.614803      6832.661       10112.159    
     46500   286.26934     -3246.9197     -3263.4601      16.540438      6638.5679      10112.159    
     46600   305.39651     -3246.558      -3264.2036      17.645592      6462.3105      10112.159    
     46700   295.90181     -3246.7098     -3263.8068      17.096995      6880.0621      10112.159    
     46800   306.09        -3245.509      -3263.1946      17.685661      6998.1774      10112.159    
     46900   302.55172     -3244.773      -3262.2542      17.481222      7220.5838      10112.159    
     47000   315.71697     -3245.4756     -3263.7175      18.2419        6762.8127      10112.159    
     47100   282.40083     -3246.9888     -3263.3057      16.316918      6818.3849      10112.159    
     47200   300.86284     -3247.0502     -3264.4338      17.38364       6635.5085      10112.159    
     47300   300.40267     -3246.8277     -3264.1847      17.357052      6487.6181      10112.159    
     47400   307.51122     -3245.4801     -3263.2479      17.767779      6972.7236      10112.159    
     47500   298.17086     -3244.8209     -3262.049       17.228099      7334.6949      10112.159    
     47600   306.02319     -3245.5332     -3263.215       17.681801      7022.0552      10112.159    
     47700   312.33099     -3245.9588     -3264.0051      18.046261      6728.4149      10112.159    
     47800   308.61692     -3246.42       -3264.2516      17.831665      6662.0999      10112.159    
     47900   276.8635      -3247.3364     -3263.3334      15.996975      6679.6248      10112.159    
     48000   292.70596     -3247.334      -3264.2464      16.912341      6727.1244      10112.159    
     48100   305.96238     -3246.0957     -3263.774       17.678287      6783.6847      10112.159    
     48200   314.74222     -3245.0272     -3263.2128      18.18558       6831.4006      10112.159    
     48300   309.68839     -3245.2941     -3263.1876      17.893574      6836.9106      10112.159    
     48400   290.72617     -3246.8871     -3263.6851      16.79795       6568.7993      10112.159    
     48500   293.13176     -3247.1799     -3264.1169      16.936943      6718.1196      10112.159    
     48600   298.21237     -3246.5273     -3263.7578      17.230497      6537.9221      10112.159    
     48700   305.74882     -3245.7545     -3263.4204      17.665948      6917.2172      10112.159    
     48800   308.79702     -3245.7546     -3263.5966      17.842071      6970.1896      10112.159    
     48900   283.80793     -3247.3768     -3263.775       16.398219      6327.251       10112.159    
     49000   296.61364     -3247.8109     -3264.949       17.138124      6490.3157      10112.159    
     49100   292.78982     -3247.3759     -3264.2931      16.917187      6657.2708      10112.159    
     49200   308.89154     -3245.4779     -3263.3254      17.847532      6767.3063      10112.159    
     49300   312.53535     -3245.2059     -3263.264       18.058069      7134.1731      10112.159    
     49400   291.124       -3246.3359     -3263.1568      16.820936      6968.089       10112.159    
     49500   294.16489     -3246.727      -3263.7237      16.996637      6672.971       10112.159    
     49600   295.65503     -3246.8839     -3263.9666      17.082736      6410.0437      10112.159    
     49700   291.79165     -3247.5788     -3264.4384      16.859513      6634.0381      10112.159    
     49800   275.20891     -3248.397      -3264.2984      15.901374      6458.2121      10112.159    
     49900   303.31093     -3247.4036     -3264.9287      17.525089      6270.8858      10112.159    
     50000   298.93652     -3246.2329     -3263.5053      17.272338      6974.3011      10112.159    
     50100   291.21792     -3245.76       -3262.5863      16.826363      6872.2702      10112.159    
     50200   306.4067      -3245.7235     -3263.4274      17.70396       6951.0164      10112.159    
     50300   296.83503     -3247.157      -3264.308       17.150916      6541.809       10112.159    
     50400   293.03338     -3248.2027     -3265.134       16.931259      6346.1575      10112.159    
     50500   287.3967      -3247.6726     -3264.2782      16.605576      6517.0763      10112.159    
     50600   294.78728     -3246.603      -3263.6356      17.032598      6687.9958      10112.159    
     50700   302.71128     -3246.0803     -3263.5707      17.490441      7044.3806      10112.159    
     50800   290.73551     -3246.3414     -3263.1398      16.79849       6766.8303      10112.159    
     50900   321.73405     -3246.2604     -3264.8499      18.589564      6821.1292      10112.159    
     51000   293.94825     -3246.9712     -3263.9553      16.98412       6695.288       10112.159    
     51100   276.84091     -3247.3708     -3263.3665      15.99567       6630.5412      10112.159    
     51200   308.90578     -3246.2884     -3264.1367      17.848355      6890.5156      10112.159    
     51300   298.99004     -3245.8001     -3263.0755      17.275431      6811.2428      10112.159    
     51400   321.12253     -3245.2651     -3263.8193      18.55423       6917.8195      10112.159    
     51500   298.82713     -3245.5416     -3262.8077      17.266018      7124.9961      10112.159    
     51600   293.51579     -3246.7084     -3263.6675      16.959132      6899.0192      10112.159    
     51700   279.15769     -3247.5778     -3263.7074      16.129532      6949.1592      10112.159    
     51800   312.58951     -3246.913      -3264.9742      18.061198      6414.2056      10112.159    
     51900   315.95144     -3245.6847     -3263.9401      18.255448      6946.2616      10112.159    
     52000   309.95237     -3244.2682     -3262.177       17.908826      7312.7648      10112.159    
     52100   334.65101     -3243.1843     -3262.5202      19.335896      7309.7911      10112.159    
     52200   305.96095     -3244.3322     -3262.0104      17.678205      7644.6198      10112.159    
     52300   296.39492     -3246.057      -3263.1825      17.125486      7149.1807      10112.159    
     52400   308.52623     -3246.9506     -3264.777       17.826425      6317.8539      10112.159    
     52500   318.09853     -3247.4022     -3265.7817      18.379505      6447.9112      10112.159    
     52600   262.97147     -3247.8882     -3263.0825      15.194304      6941.1985      10112.159    
     52700   289.70928     -3246.3927     -3263.1318      16.739195      6924.0552      10112.159    
     52800   321.51448     -3245.4977     -3264.0745      18.576877      6931.9543      10112.159    
     52900   305.53488     -3246.0274     -3263.681       17.653587      6659.9247      10112.159    
     53000   300.80791     -3246.4574     -3263.8379      17.380466      6684.1468      10112.159    
     53100   297.61273     -3247.0707     -3264.2665      17.195851      6877.3284      10112.159    
     53200   265.87062     -3248.7691     -3264.1309      15.361814      6321.7108      10112.159    
     53300   298.12008     -3247.9413     -3265.1665      17.225165      6448.3232      10112.159    
     53400   297.38129     -3247.2008     -3264.3832      17.182478      6477.9361      10112.159    
     53500   307.10303     -3246.3361     -3264.0803      17.744193      6635.1994      10112.159    
     53600   303.64432     -3245.7109     -3263.2552      17.544352      6974.3642      10112.159    
     53700   302.9598      -3245.6181     -3263.1229      17.5048        6830.8446      10112.159    
     53800   301.4378      -3247.4094     -3264.8263      17.41686       6454.8494      10112.159    
     53900   280.57971     -3248.2077     -3264.4194      16.211695      6473.9174      10112.159    
     54000   297.6155      -3247.0309     -3264.2269      17.196011      6666.8349      10112.159    
     54100   319.04258     -3245.8964     -3264.3305      18.434052      6959.6367      10112.159    
     54200   284.00633     -3246.0166     -3262.4263      16.409683      6993.8205      10112.159    
     54300   306.30236     -3245.7803     -3263.4782      17.697931      7199.1264      10112.159    
     54400   299.35946     -3246.985      -3264.2818      17.296775      6751.2211      10112.159    
     54500   283.17191     -3247.9453     -3264.3068      16.36147       6550.2434      10112.159    
     54600   303.34755     -3247.162      -3264.6892      17.527205      6462.6426      10112.159    
     54700   300.96283     -3246.2343     -3263.6237      17.389417      6983.8997      10112.159    
     54800   303.32411     -3245.2879     -3262.8137      17.52585       6964.0327      10112.159    
     54900   313.70606     -3244.4486     -3262.5743      18.125712      7217.4146      10112.159    
     55000   326.44752     -3244.2097     -3263.0716      18.861904      7440.9377      10112.159    
     55100   298.80474     -3245.9744     -3263.2391      17.264724      6902.7742      10112.159    
     55200   311.06872     -3246.8186     -3264.7919      17.973328      6615.6671      10112.159    
     55300   281.52659     -3247.4065     -3263.6729      16.266405      6587.0633      10112.159    
     55400   303.27616     -3246.8991     -3264.4222      17.52308       6553.9467      10112.159    
     55500   289.45799     -3246.3856     -3263.1103      16.724676      6749.3135      10112.159    
     55600   317.329       -3244.8584     -3263.1934      18.335043      7188.0468      10112.159    
     55700   319.49455     -3245.1896     -3263.6497      18.460167      6827.3084      10112.159    
     55800   299.75131     -3246.32       -3263.6394      17.319417      6694.9294      10112.159    
     55900   295.80912     -3246.7014     -3263.793       17.091639      6940.3296      10112.159    
     56000   297.48729     -3246.8423     -3264.0309      17.188603      6479.8044      10112.159    
     56100   294.53964     -3246.6667     -3263.685       17.01829       6625.6037      10112.159    
     56200   309.20942     -3246.0528     -3263.9187      17.865899      6714.0956      10112.159    
     56300   312.4921      -3245.3945     -3263.4501      18.05557       7002.3237      10112.159    
     56400   306.3515      -3244.7491     -3262.4498      17.700771      7349.1728      10112.159    
     56500   308.38261     -3245.21       -3263.0282      17.818127      7354.1767      10112.159    
     56600   300.01934     -3246.9318     -3264.2667      17.334903      6733.8972      10112.159    
     56700   291.84952     -3247.3825     -3264.2453      16.862856      6690.9416      10112.159    
     56800   298.29137     -3246.7952     -3264.0303      17.235062      6745.3462      10112.159    
     56900   302.23648     -3245.6998     -3263.1628      17.463008      7256.1612      10112.159    
     57000   307.81787     -3245.025      -3262.8105      17.785496      7226.9613      10112.159    
     57100   309.33963     -3245.847      -3263.7204      17.873423      7046.1326      10112.159    
     57200   279.5319      -3247.9726     -3264.1237      16.151153      6546.8317      10112.159    
     57300   299.76877     -3247.3504     -3264.6709      17.320425      6453.6568      10112.159    
     57400   295.34664     -3246.3194     -3263.3843      17.064917      6833.133       10112.159    
     57500   307.94592     -3245.4733     -3263.2662      17.792895      6924.6152      10112.159    
     57600   315.88727     -3245.6173     -3263.869       18.251741      6767.6357      10112.159    
     57700   286.63889     -3247.0757     -3263.6375      16.56179       6627.2451      10112.159    
     57800   292.18721     -3248.1294     -3265.0118      16.882368      6348.8254      10112.159    
     57900   291.71215     -3248.0088     -3264.8637      16.854919      6369.0473      10112.159    
     58000   285.2504      -3247.4956     -3263.9772      16.481564      6489.902       10112.159    
     58100   307.55831     -3246.4535     -3264.224       17.770499      6865.774       10112.159    
     58200   301.72958     -3245.848      -3263.2817      17.433719      6797.9601      10112.159    
     58300   326.96077     -3245.4555     -3264.347       18.891559      6952.1058      10112.159    
     58400   281.38505     -3246.8428     -3263.101       16.258227      6737.188       10112.159    
     58500   302.57937     -3247.4986     -3264.9814      17.482819      6395.4083      10112.159    
     58600   283.2363      -3248.4152     -3264.7804      16.365191      6439.5007      10112.159    
     58700   278.68957     -3248.8334     -3264.9359      16.102484      6280.3904      10112.159    
     58800   297.31852     -3247.2832     -3264.4621      17.178852      6824.81        10112.159    
     58900   297.83472     -3246.0167     -3263.2253      17.208677      7248.1575      10112.159    
     59000   306.48351     -3245.6317     -3263.3401      17.708398      6967.8195      10112.159    
     59100   302.09313     -3246.3489     -3263.8036      17.454725      7024.5766      10112.159    
     59200   301.22148     -3247.2222     -3264.6266      17.404362      6544.316       10112.159    
     59300   283.02872     -3248.1739     -3264.5271      16.353197      6591.1649      10112.159    
     59400   270.2723      -3249.2504     -3264.8665      15.61614       6327.4743      10112.159    
     59500   294.16527     -3248.1556     -3265.1523      16.996659      6327.7738      10112.159    
     59600   293.27769     -3246.8859     -3263.8313      16.945375      6824.5624      10112.159    
     59700   308.80471     -3246.0284     -3263.8709      17.842515      7095.0225      10112.159    
     59800   291.04995     -3245.9825     -3262.7992      16.816658      7049.7003      10112.159    
     59900   300.90205     -3246.1172     -3263.5031      17.385905      7045.3922      10112.159    
     60000   295.19005     -3247.3295     -3264.3853      17.05587       6360.5822      10112.159    
     60100   300.54807     -3247.8603     -3265.2258      17.365452      6442.2044      10112.159    
     60200   294.11426     -3247.2452     -3264.2389      16.993712      6632.0842      10112.159    
     60300   286.78671     -3245.6708     -3262.2412      16.570331      7521.6789      10112.159    
     60400   306.39394     -3245.1508     -3262.854       17.703223      7077.1694      10112.159    
     60500   327.82139     -3245.4514     -3264.3927      18.941285      6972.0622      10112.159    
     60600   285.04989     -3246.6624     -3263.1323      16.469979      6929.8016      10112.159    
     60700   301.59245     -3246.6656     -3264.0914      17.425796      6857.8113      10112.159    
     60800   298.90746     -3246.6929     -3263.9635      17.27066       6738.5779      10112.159    
     60900   287.86604     -3246.6312     -3263.2639      16.632694      7022.3711      10112.159    
     61000   312.02729     -3245.6653     -3263.694       18.028714      6826.7868      10112.159    
     61100   310.22762     -3245.0647     -3262.9894      17.92473       7240.9215      10112.159    
     61200   315.73029     -3245.635      -3263.8777      18.242671      6857.5015      10112.159    
     61300   284.04309     -3246.9453     -3263.3572      16.411806      6905.2494      10112.159    
     61400   288.39842     -3247.3237     -3263.9871      16.663455      6472.9917      10112.159    
     61500   305.45669     -3247.107      -3264.756       17.649069      6662.9366      10112.159    
     61600   323.8736      -3245.8393     -3264.5525      18.713185      6775.9486      10112.159    
     61700   311.26503     -3245.3237     -3263.3083      17.984671      7020.1855      10112.159    
     61800   300.02092     -3245.7248     -3263.0598      17.334994      7030.27        10112.159    
     61900   281.87493     -3246.4455     -3262.732       16.286532      7271.3431      10112.159    
     62000   315.91544     -3246.7865     -3265.0399      18.253368      6285.059       10112.159    
     62100   291.4928      -3247.7463     -3264.5885      16.842246      6488.8544      10112.159    
     62200   295.22633     -3247.2679     -3264.3259      17.057966      6988.4905      10112.159    
     62300   296.76597     -3245.5075     -3262.6545      17.146925      7170.999       10112.159    
     62400   311.25262     -3244.9409     -3262.9248      17.983954      7162.284       10112.159    
     62500   309.97479     -3245.8451     -3263.7552      17.910121      6840.8214      10112.159    
     62600   299.8694      -3246.8037     -3264.1299      17.326239      6638.0407      10112.159    
     62700   298.65871     -3247.0712     -3264.3274      17.256287      6569.0263      10112.159    
     62800   288.90429     -3247.0703     -3263.7629      16.692683      6829.6225      10112.159    
     62900   296.27124     -3246.227      -3263.3453      17.11834       6752.1074      10112.159    
     63000   298.34898     -3245.9321     -3263.1705      17.23839       7051.4552      10112.159    
     63100   313.17021     -3246.0683     -3264.163       18.094751      6618.4156      10112.159    
     63200   299.55746     -3246.5099     -3263.8181      17.308216      6892.907       10112.159    
     63300   296.97346     -3246.8382     -3263.9971      17.158914      6610.4317      10112.159    
     63400   289.24558     -3247.7535     -3264.4659      16.712403      6524.6877      10112.159    
     63500   266.3822      -3248.4979     -3263.8893      15.391373      6409.8362      10112.159    
     63600   301.94315     -3247.2636     -3264.7096      17.446059      6455.522       10112.159    
     63700   302.15022     -3246.0054     -3263.4634      17.458024      6745.2351      10112.159    
     63800   308.88477     -3245.7767     -3263.6238      17.847141      6876.6683      10112.159    
     63900   293.4406      -3246.4789     -3263.4336      16.954788      6987.3633      10112.159    
     64000   292.35511     -3247.2983     -3264.1904      16.892069      6688.5213      10112.159    
     64100   287.48526     -3247.874      -3264.4847      16.610693      6513.9543      10112.159    
     64200   308.97769     -3246.6313     -3264.4839      17.85251       6681.2046      10112.159    
     64300   306.47071     -3245.4605     -3263.1681      17.707659      7085.0219      10112.159    
     64400   298.01716     -3245.6012     -3262.8204      17.219218      7068.7235      10112.159    
     64500   300.98625     -3246.421      -3263.8117      17.39077       6707.033       10112.159    
     64600   300.69298     -3247.7734     -3265.1472      17.373825      6315.5473      10112.159    
     64700   280.46692     -3248.4245     -3264.6297      16.205178      6546.5378      10112.159    
     64800   288.62746     -3247.793      -3264.4697      16.676688      6761.3867      10112.159    
     64900   289.40064     -3246.9267     -3263.648       16.721362      6725.1626      10112.159    
     65000   308.60396     -3246.0744     -3263.9053      17.830916      7012.037       10112.159    
     65100   292.94227     -3246.1237     -3263.0497      16.925995      7076.125       10112.159    
     65200   315.6609      -3245.7194     -3263.9581      18.238661      7131.4112      10112.159    
     65300   295.44775     -3245.7342     -3262.8049      17.07076       6913.0138      10112.159    
     65400   297.0867      -3246.1847     -3263.3501      17.165457      7213.23        10112.159    
     65500   286.11627     -3247.4588     -3263.9903      16.531594      6800.7333      10112.159    
     65600   302.34244     -3247.3981     -3264.8673      17.46913       6662.5015      10112.159    
     65700   310.37867     -3246.5253     -3264.4587      17.933458      6707.4604      10112.159    
     65800   312.97714     -3245.0744     -3263.158       18.083595      7346.4588      10112.159    
     65900   290.60902     -3244.4519     -3261.2431      16.791181      7667.3889      10112.159    
     66000   319.52591     -3244.6565     -3263.1185      18.461978      7051.1882      10112.159    
     66100   320.1977      -3245.802      -3264.3028      18.500794      6928.4365      10112.159    
     66200   288.2418      -3246.8344     -3263.4889      16.654405      6757.1916      10112.159    
     66300   298.13235     -3246.8978     -3264.1236      17.225874      6910.5395      10112.159    
     66400   283.82779     -3246.9353     -3263.3346      16.399367      7024.8416      10112.159    
     66500   320.40451     -3245.4368     -3263.9496      18.512744      7187.383       10112.159    
     66600   309.85745     -3244.8434     -3262.7468      17.903342      7016.6137      10112.159    
     66700   301.6603      -3245.5403     -3262.97        17.429717      7104.1768      10112.159    
     66800   300.28448     -3247.2188     -3264.569       17.350223      6767.794       10112.159    
     66900   292.35033     -3247.4239     -3264.3157      16.891793      6675.801       10112.159    
     67000   310.44722     -3246.6246     -3264.562       17.937418      6614.282       10112.159    
     67100   296.67252     -3246.0113     -3263.1528      17.141526      7065.5659      10112.159    
     67200   312.8111      -3244.3923     -3262.4663      18.074001      7242.5011      10112.159    
     67300   327.18943     -3243.9155     -3262.8203      18.904771      7458.2381      10112.159    
     67400   299.97968     -3245.2129     -3262.5456      17.332611      7099.8008      10112.159    
     67500   306.48101     -3246.1451     -3263.8533      17.708253      6892.1615      10112.159    
     67600   289.36396     -3246.9951     -3263.7143      16.719243      6674.7113      10112.159    
     67700   307.43032     -3246.8274     -3264.5905      17.763104      6742.8812      10112.159    
     67800   297.33364     -3246.7288     -3263.9085      17.179725      6745.0137      10112.159    
     67900   314.85977     -3245.7461     -3263.9385      18.192373      6798.2313      10112.159    
     68000   302.23565     -3245.1283     -3262.5913      17.46296       7122.1603      10112.159    
     68100   314.45147     -3245.2326     -3263.4013      18.168781      7091.5006      10112.159    
     68200   296.13579     -3247.0158     -3264.1263      17.110514      6500.1391      10112.159    
     68300   299.71659     -3247.2901     -3264.6075      17.31741       6483.8456      10112.159    
     68400   300.70961     -3246.675      -3264.0498      17.374786      6547.4192      10112.159    
     68500   288.30765     -3246.0779     -3262.7361      16.65821       7146.8245      10112.159    
     68600   323.48225     -3244.9314     -3263.622       18.690573      7002.7805      10112.159    
     68700   320.80071     -3243.7244     -3262.2601      18.535635      7259.9246      10112.159    
     68800   314.91632     -3244.0308     -3262.2265      18.19564       7368.5097      10112.159    
     68900   320.27316     -3246.1366     -3264.6417      18.505154      6812.9197      10112.159    
     69000   288.29408     -3246.9805     -3263.638       16.657426      6685.9394      10112.159    
     69100   284.94829     -3246.8447     -3263.3088      16.464109      7002.7349      10112.159    
     69200   298.28947     -3246.1001     -3263.335       17.234952      6932.8176      10112.159    
     69300   320.78377     -3245.1783     -3263.713       18.534657      7128.373       10112.159    
     69400   313.03454     -3245.745      -3263.8319      18.086912      6825.3046      10112.159    
     69500   287.23907     -3247.3647     -3263.9611      16.596468      6737.7256      10112.159    
     69600   279.92673     -3247.5203     -3263.6943      16.173966      6844.105       10112.159    
     69700   303.17082     -3246.687      -3264.204       17.516993      6882.3975      10112.159    
     69800   332.44822     -3245.481      -3264.6896      19.20862       6810.316       10112.159    
     69900   294.95247     -3245.5677     -3262.6098      17.042143      7286.3061      10112.159    
     70000   288.60191     -3246.5463     -3263.2216      16.675212      7160.3603      10112.159    
     70100   280.69139     -3248.1166     -3264.3348      16.218148      6522.7059      10112.159    
     70200   298.12041     -3247.7984     -3265.0235      17.225184      6559.862       10112.159    
     70300   292.04319     -3246.6102     -3263.4843      16.874047      7028.9003      10112.159    
     70400   315.37051     -3245.5568     -3263.7787      18.221883      7089.5119      10112.159    
     70500   306.53969     -3245.8194     -3263.531       17.711644      7384.7552      10112.159    
     70600   271.70444     -3246.9812     -3262.6801      15.698888      6808.2821      10112.159    
     70700   302.69243     -3247.1466     -3264.636       17.489352      6669.9743      10112.159    
     70800   313.61145     -3246.6508     -3264.7711      18.120245      6765.9825      10112.159    
     70900   300.40469     -3245.0374     -3262.3946      17.357168      7325.2906      10112.159    
     71000   315.68052     -3244.3592     -3262.599       18.239795      7414.1071      10112.159    
     71100   298.19823     -3245.6119     -3262.8416      17.229681      7191.1622      10112.159    
     71200   295.82659     -3246.6302     -3263.7229      17.092649      6859.5122      10112.159    
     71300   304.65325     -3246.9009     -3264.5035      17.602647      6570.5569      10112.159    
     71400   302.22467     -3246.776      -3264.2383      17.462325      6709.0253      10112.159    
     71500   304.86174     -3245.7048     -3263.3195      17.614693      7161.4288      10112.159    
     71600   305.38334     -3244.4553     -3262.1001      17.644831      7387.5217      10112.159    
     71700   307.92803     -3244.2673     -3262.0591      17.791862      7564.2885      10112.159    
     71800   314.19232     -3246.158      -3264.3118      18.153808      6740.0638      10112.159    
     71900   297.23077     -3247.1127     -3264.2865      17.173782      6601.383       10112.159    
     72000   292.97225     -3247.1462     -3264.0739      16.927727      6866.319       10112.159    
     72100   293.25879     -3246.5623     -3263.5066      16.944283      7211.6015      10112.159    
     72200   302.33577     -3245.2785     -3262.7472      17.468744      7164.5895      10112.159    
     72300   332.86949     -3244.3786     -3263.6115      19.232961      7081.1959      10112.159    
     72400   300.9476      -3246.0114     -3263.3999      17.388537      6827.0562      10112.159    
     72500   296.16236     -3246.9625     -3264.0745      17.11205       6949.3857      10112.159    
     72600   295.32483     -3246.9558     -3264.0194      17.063657      6782.749       10112.159    
     72700   293.39148     -3246.5304     -3263.4824      16.95195       7126.5505      10112.159    
     72800   324.01811     -3245.4654     -3264.1869      18.721535      6885.7497      10112.159    
     72900   297.6353      -3245.756      -3262.9532      17.197155      6975.1146      10112.159    
     73000   292.80941     -3247.0162     -3263.9345      16.918318      6758.8936      10112.159    
     73100   284.29544     -3248.2256     -3264.652       16.426387      6284.5536      10112.159    
     73200   307.50893     -3247.6214     -3265.389       17.767646      6564.5466      10112.159    
     73300   278.01787     -3247.0789     -3263.1425      16.063674      6811.5974      10112.159    
     73400   301.42957     -3246.3021     -3263.7185      17.416385      6747.8542      10112.159    
     73500   308.43368     -3246.3161     -3264.1372      17.821077      6798.8848      10112.159    
     73600   283.73952     -3246.8576     -3263.2519      16.394266      6953.844       10112.159    
     73700   307.98653     -3246.0882     -3263.8834      17.795242      6657.9563      10112.159    
     73800   329.1452      -3244.5377     -3263.5555      19.017774      7027.1843      10112.159    
     73900   305.49705     -3245.2459     -3262.8973      17.651401      7245.3245      10112.159    
     74000   294.24814     -3246.1892     -3263.1906      17.001447      7019.5188      10112.159    
     74100   294.25998     -3246.5537     -3263.5558      17.002131      6916.4278      10112.159    
     74200   320.96395     -3246.3275     -3264.8726      18.545068      6525.0849      10112.159    
     74300   280.6674      -3246.9901     -3263.2069      16.216762      6889.2198      10112.159    
     74400   289.08384     -3247.3658     -3264.0688      16.703058      6764.6203      10112.159    
     74500   300.06214     -3247.033      -3264.3704      17.337376      6886.0693      10112.159    
     74600   301.14613     -3246.1016     -3263.5016      17.400008      7009.7912      10112.159    
     74700   318.22258     -3245.2638     -3263.6505      18.386673      7236.0273      10112.159    
     74800   287.43589     -3245.9063     -3262.5141      16.60784       7143.2068      10112.159    
     74900   303.72437     -3247.0307     -3264.5797      17.548977      6689.8339      10112.159    
     75000   290.0681      -3248.3914     -3265.1513      16.759927      6368.5065      10112.159    
     75100   286.56775     -3247.9733     -3264.531       16.557679      6455.3086      10112.159    
     75200   289.7367      -3247.0425     -3263.7833      16.740779      6900.0803      10112.159    
     75300   300.46729     -3246.4631     -3263.8238      17.360785      6799.6184      10112.159    
     75400   309.19721     -3245.8233     -3263.6885      17.865194      7212.8693      10112.159    
[...]
    281800   295.20097     -3246.5329     -3263.5894      17.056501      6689.4831      10112.159    
    281900   304.9103      -3246.5563     -3264.1738      17.617499      6616.8036      10112.159    
    282000   308.60958     -3246.3464     -3264.1776      17.831241      6674.1143      10112.159    
    282100   287.21076     -3246.0679     -3262.6627      16.594832      7228.9399      10112.159    
    282200   317.05765     -3245.2551     -3263.5745      18.319364      7123.1514      10112.159    
    282300   313.90163     -3245.4771     -3263.6141      18.137012      6969.2937      10112.159    
    282400   282.86225     -3246.7613     -3263.1049      16.343579      6950.5195      10112.159    
    282500   286.3519      -3247.6125     -3264.1577      16.545208      6541.2929      10112.159    
    282600   294.3284      -3247.6765     -3264.6826      17.006085      6546.6116      10112.159    
    282700   306.63943     -3246.0681     -3263.7855      17.717407      6710.2598      10112.159    
    282800   293.90379     -3245.4127     -3262.3942      16.981551      7186.7732      10112.159    
    282900   312.97315     -3245.5698     -3263.6532      18.083365      6817.574       10112.159    
    283000   298.07221     -3246.8304     -3264.0528      17.222399      6666.9019      10112.159    
    283100   294.36732     -3247.4757     -3264.484       17.008333      6538.7166      10112.159    
    283200   290.73475     -3247.1337     -3263.9322      16.798446      6496.621       10112.159    
    283300   311.41884     -3246.417      -3264.4106      17.993558      6552.7629      10112.159    
    283400   294.62378     -3246.6388     -3263.662       17.023151      6886.4509      10112.159    
    283500   314.77783     -3246.3652     -3264.5528      18.187638      6697.3289      10112.159    
    283600   285.93744     -3246.2941     -3262.8154      16.521261      6853.8402      10112.159    
    283700   321.55162     -3245.017      -3263.596       18.579023      6904.7294      10112.159    
    283800   306.50365     -3245.4612     -3263.1708      17.709562      7026.2459      10112.159    
    283900   307.91729     -3246.4479     -3264.2391      17.791241      6523.69        10112.159    
    284000   294.88574     -3247.4575     -3264.4958      17.038287      6639.3138      10112.159    
    284100   279.11201     -3248.1035     -3264.2304      16.126892      6557.4539      10112.159    
    284200   310.45147     -3246.124      -3264.0617      17.937664      6805.709       10112.159    
    284300   305.96836     -3245.3386     -3263.0172      17.678633      6897.6497      10112.159    
    284400   317.69031     -3245.318      -3263.6739      18.355919      6973.7425      10112.159    
    284500   297.02763     -3246.5271     -3263.6891      17.162044      6573.5945      10112.159    
    284600   292.83173     -3247.3916     -3264.3112      16.919608      6621.5477      10112.159    
    284700   296.59132     -3247.2829     -3264.4197      17.136835      6522.9743      10112.159    
    284800   305.7547      -3245.8547     -3263.521       17.666288      6809.0687      10112.159    
    284900   312.76636     -3244.599      -3262.6704      18.071417      7004.4651      10112.159    
    285000   314.83298     -3245.2959     -3263.4867      18.190824      6768.5615      10112.159    
    285100   296.68003     -3246.5665     -3263.7084      17.14196       6708.4222      10112.159    
    285200   292.47885     -3246.8709     -3263.7701      16.899219      6724.2295      10112.159    
    285300   292.06938     -3246.7396     -3263.6152      16.87556       6619.6923      10112.159    
    285400   325.48634     -3245.4864     -3264.2928      18.806368      6782.0768      10112.159    
    285500   316.30656     -3244.7613     -3263.0373      18.275967      6882.8949      10112.159    
    285600   300.5419      -3245.7569     -3263.122       17.365096      6949.9604      10112.159    
    285700   295.56846     -3247.3481     -3264.4258      17.077734      6611.7433      10112.159    
    285800   292.56009     -3247.436      -3264.34        16.903913      6582.45        10112.159    
    285900   294.98105     -3246.5986     -3263.6424      17.043794      6880.8985      10112.159    
    286000   314.60005     -3245.604      -3263.7814      18.177366      6933.7494      10112.159    
    286100   301.71541     -3245.9296     -3263.3625      17.432901      6861.2605      10112.159    
    286200   301.60362     -3246.5147     -3263.9411      17.426442      6702.8365      10112.159    
    286300   272.53279     -3248.2366     -3263.9834      15.74675       6447.7414      10112.159    
    286400   290.91079     -3248.8418     -3265.6504      16.808617      5968.2291      10112.159    
    286500   285.39807     -3247.9303     -3264.4204      16.490096      6286.4744      10112.159    
    286600   282.84473     -3247.1621     -3263.5046      16.342566      6671.2349      10112.159    
    286700   304.78577     -3246.1912     -3263.8015      17.610304      6840.6357      10112.159    
    286800   310.02201     -3245.6915     -3263.6044      17.91285       6702.4262      10112.159    
    286900   302.474       -3246.1796     -3263.6563      17.476731      6630.4125      10112.159    
    287000   293.24425     -3247.6306     -3264.574       16.943443      6227.9032      10112.159    
    287100   292.96502     -3248.1122     -3265.0395      16.927309      6364.3159      10112.159    
    287200   287.81837     -3246.9225     -3263.5525      16.62994       6805.0285      10112.159    
    287300   301.21509     -3245.5594     -3262.9633      17.403993      6865.6797      10112.159    
    287400   312.88426     -3245.5432     -3263.6215      18.078229      6917.1236      10112.159    
    287500   307.48046     -3246.2912     -3264.0572      17.766001      6719.9159      10112.159    
    287600   284.62347     -3247.5265     -3263.9719      16.445341      6443.8585      10112.159    
    287700   294.92642     -3247.4582     -3264.4988      17.040638      6406.0267      10112.159    
    287800   297.78829     -3246.3145     -3263.5205      17.205994      6850.7419      10112.159    
    287900   315.40352     -3244.7827     -3263.0065      18.22379       6965.6402      10112.159    
    288000   304.34239     -3245.2014     -3262.7861      17.584686      6929.5118      10112.159    
    288100   315.5278      -3245.8767     -3264.1077      18.23097       6634.2238      10112.159    
    288200   289.22615     -3247.22       -3263.9313      16.71128       6447.7447      10112.159    
    288300   281.38901     -3247.3864     -3263.6449      16.258456      6691.6354      10112.159    
    288400   303.0571      -3246.5194     -3264.0298      17.510422      6844.4277      10112.159    
    288500   304.39603     -3246.3921     -3263.9799      17.587785      6797.8284      10112.159    
    288600   308.72833     -3246.3035     -3264.1416      17.838102      6669.3474      10112.159    
    288700   290.4315      -3246.509      -3263.2899      16.780924      6748.7001      10112.159    
    288800   305.04372     -3246.6925     -3264.3177      17.625208      6810.6742      10112.159    
    288900   284.21314     -3247.6768     -3264.0984      16.421632      6454.2702      10112.159    
    289000   283.59444     -3247.5176     -3263.9035      16.385884      6690.9035      10112.159    
    289100   312.7135      -3246.2292     -3264.2976      18.068362      6737.839       10112.159    
    289200   308.70628     -3245.6708     -3263.5076      17.836828      6827.013       10112.159    
    289300   316.47371     -3245.512      -3263.7977      18.285625      6751.5369      10112.159    
    289400   287.27717     -3247.0654     -3263.664       16.598669      6666.8908      10112.159    
    289500   284.3279      -3248.0724     -3264.5006      16.428263      6650.1854      10112.159    
    289600   294.85976     -3247.6868     -3264.7236      17.036786      6295.1479      10112.159    
    289700   311.51108     -3246.5569     -3264.5558      17.998887      6735.3633      10112.159    
    289800   281.42942     -3246.5582     -3262.819       16.260791      6895.5548      10112.159    
    289900   308.42725     -3246.0531     -3263.8738      17.820706      6839.5349      10112.159    
    290000   303.73248     -3246.2093     -3263.7587      17.549445      6631.4192      10112.159    
    290100   289.00928     -3246.9501     -3263.6489      16.698749      6794.6778      10112.159    
    290200   288.29942     -3247.8523     -3264.51        16.657734      6569.687       10112.159    
    290300   270.50383     -3248.4504     -3264.08        15.629518      6491.6897      10112.159    
    290400   319.82923     -3246.8026     -3265.2821      18.479504      6125.947       10112.159    
    290500   298.44894     -3246.1644     -3263.4086      17.244167      6672.5576      10112.159    
    290600   294.34491     -3245.8567     -3262.8638      17.007038      7001.9914      10112.159    
    290700   301.16528     -3246.0946     -3263.4957      17.401115      6913.1409      10112.159    
    290800   285.81247     -3247.4514     -3263.9654      16.51404       6670.438       10112.159    
    290900   291.75134     -3248.1894     -3265.0466      16.857184      6169.1229      10112.159    
    291000   296.45388     -3247.4819     -3264.6108      17.128893      6360.6764      10112.159    
    291100   290.92563     -3245.7672     -3262.5767      16.809475      7068.3954      10112.159    
    291200   303.38689     -3245.569      -3263.0985      17.529478      6848.3306      10112.159    
    291300   307.63148     -3246.442      -3264.2167      17.774727      6883.6075      10112.159    
    291400   290.53818     -3247.3398     -3264.1269      16.787088      6583.4034      10112.159    
    291500   295.87322     -3247.2012     -3264.2965      17.095343      6796.4346      10112.159    
    291600   317.69554     -3245.7385     -3264.0947      18.356221      6772.3402      10112.159    
    291700   309.45408     -3244.7615     -3262.6416      17.880036      7390.4365      10112.159    
    291800   310.89289     -3245.2468     -3263.21        17.963169      6904.7685      10112.159    
    291900   290.96712     -3246.6179     -3263.4298      16.811872      6822.1909      10112.159    
    292000   299.70758     -3246.9664     -3264.2833      17.31689       6575.1148      10112.159    
    292100   300.22619     -3246.8777     -3264.2246      17.346855      6725.2364      10112.159    
    292200   305.52223     -3245.9017     -3263.5545      17.652856      6872.2093      10112.159    
    292300   313.6915      -3244.768      -3262.8929      18.12487       7323.0418      10112.159    
    292400   300.63895     -3245.4235     -3262.7942      17.370703      7031.2749      10112.159    
    292500   316.14354     -3245.8304     -3264.097       18.266548      6828.2808      10112.159    
    292600   302.80188     -3246.5648     -3264.0605      17.495676      6692.1889      10112.159    
    292700   286.99063     -3246.8476     -3263.4297      16.582113      6953.1321      10112.159    
    292800   291.16585     -3246.4281     -3263.2514      16.823355      6795.0984      10112.159    
    292900   307.69192     -3245.5334     -3263.3116      17.778219      6599.5508      10112.159    
    293000   326.97371     -3244.7681     -3263.6604      18.892307      6865.0072      10112.159    
    293100   282.39        -3245.9149     -3262.2312      16.316293      7152.9213      10112.159    
    293200   300.29303     -3246.6764     -3264.0271      17.350716      7036.9704      10112.159    
    293300   296.49338     -3247.2565     -3264.3877      17.131175      6323.4941      10112.159    
    293400   297.92281     -3246.8917     -3264.1055      17.213767      6619.5934      10112.159    
    293500   308.52865     -3245.0825     -3262.9091      17.826565      7010.5249      10112.159    
    293600   325.1551      -3243.7718     -3262.5591      18.787229      7298.3471      10112.159    
    293700   304.90983     -3244.6611     -3262.2785      17.617472      7255.743       10112.159    
    293800   312.70022     -3246.0497     -3264.1172      18.067595      6862.8944      10112.159    
    293900   284.77724     -3247.0764     -3263.5306      16.454225      6685.2878      10112.159    
    294000   303.53863     -3246.8748     -3264.413       17.538245      6721.3474      10112.159    
    294100   301.36671     -3246.3758     -3263.7885      17.412753      6652.3685      10112.159    
    294200   312.75804     -3245.0626     -3263.1335      18.070936      7015.9252      10112.159    
    294300   318.00661     -3245.1147     -3263.4889      18.374194      7172.4146      10112.159    
    294400   292.30912     -3246.8824     -3263.7718      16.889412      6648.0963      10112.159    
    294500   286.76455     -3247.5749     -3264.144       16.56905       6540.8023      10112.159    
    294600   301.7977      -3247.0155     -3264.4532      17.437655      6566.0736      10112.159    
    294700   308.13509     -3246.2316     -3264.0355      17.803825      6709.6202      10112.159    
    294800   291.35332     -3246.3016     -3263.1358      16.834187      6865.0478      10112.159    
    294900   311.44526     -3246.2718     -3264.2669      17.995084      6723.2189      10112.159    
    295000   299.46017     -3246.5519     -3263.8545      17.302594      6820.9639      10112.159    
    295100   294.7588      -3246.5317     -3263.5626      17.030953      6783.7537      10112.159    
    295200   311.9487      -3246.4831     -3264.5073      18.024173      6668.2548      10112.159    
    295300   286.39944     -3246.3138     -3262.8617      16.547955      7112.6813      10112.159    
    295400   308.1289      -3245.9708     -3263.7743      17.803467      6871.5571      10112.159    
    295500   300.06571     -3246.7662     -3264.1038      17.337582      6755.9273      10112.159    
    295600   293.45256     -3247.1601     -3264.1156      16.955479      6540.8843      10112.159    
    295700   296.92635     -3246.4826     -3263.6388      17.156192      7034.8177      10112.159    
    295800   290.14569     -3245.3332     -3262.0976      16.76441       7353.0228      10112.159    
    295900   326.01254     -3244.7616     -3263.5984      18.836772      7146.2685      10112.159    
    296000   299.14499     -3246.2054     -3263.4898      17.284384      6840.3994      10112.159    
    296100   294.33815     -3246.893      -3263.8996      17.006648      6793.7966      10112.159    
    296200   285.48872     -3247.1269     -3263.6222      16.495334      6722.8257      10112.159    
    296300   309.39739     -3246.4726     -3264.3494      17.87676       6690.5708      10112.159    
    296400   288.59843     -3246.0218     -3262.6968      16.675011      7286.2102      10112.159    
    296500   330.77077     -3244.5464     -3263.6581      19.111699      7259.9595      10112.159    
    296600   317.85172     -3243.8109     -3262.1762      18.365245      7496.0455      10112.159    
    296700   305.75195     -3245.2133     -3262.8794      17.666129      7287.6723      10112.159    
    296800   299.10222     -3246.7352     -3264.0171      17.281912      6766.3781      10112.159    
    296900   295.29359     -3247.0588     -3264.1206      17.061853      6745.5338      10112.159    
    297000   298.91822     -3246.809      -3264.0803      17.271281      6720.2567      10112.159    
    297100   302.48041     -3246.1439     -3263.621       17.477102      6908.6059      10112.159    
    297200   313.53988     -3244.8826     -3262.9987      18.11611       7075.8997      10112.159    
    297300   306.79605     -3245.1115     -3262.838       17.726457      7255.1339      10112.159    
    297400   283.33901     -3246.9057     -3263.2769      16.371125      6540.7981      10112.159    
    297500   308.49426     -3247.1781     -3265.0027      17.824578      6500.4826      10112.159    
    297600   294.33612     -3247.1486     -3264.1551      17.00653       6575.5502      10112.159    
    297700   303.92712     -3246.1479     -3263.7086      17.560692      6917.212       10112.159    
    297800   295.87803     -3245.6051     -3262.7007      17.095621      7242.5763      10112.159    
    297900   314.09903     -3245.3646     -3263.513       18.148417      6845.5598      10112.159    
    298000   302.62191     -3245.9029     -3263.3881      17.485278      7008.3019      10112.159    
    298100   304.9306      -3246.9613     -3264.58        17.618672      6417.8414      10112.159    
    298200   279.70655     -3247.7857     -3263.947       16.161244      6631.7659      10112.159    
    298300   292.82623     -3247.0802     -3263.9995      16.91929       6754.743       10112.159    
    298400   315.34814     -3245.706      -3263.9266      18.22059       7050.2055      10112.159    
    298500   309.36819     -3245.5151     -3263.3901      17.875073      6966.5529      10112.159    
    298600   304.00941     -3245.8487     -3263.4141      17.565446      6943.9303      10112.159    
    298700   316.32526     -3246.1169     -3264.394       18.277047      6842.5092      10112.159    
    298800   284.02021     -3246.8036     -3263.214       16.410485      6980.2089      10112.159    
    298900   289.05252     -3246.8751     -3263.5763      16.701248      6689.166       10112.159    
    299000   307.41812     -3246.5969     -3264.3593      17.762399      6709.5875      10112.159    
    299100   299.30624     -3246.446      -3263.7397      17.2937        6995.8548      10112.159    
    299200   303.4555      -3246.4815     -3264.015       17.533442      6820.555       10112.159    
    299300   295.0614      -3246.6615     -3263.71        17.048437      6747.9684      10112.159    
    299400   309.08198     -3245.4849     -3263.3434      17.858536      7160.7256      10112.159    
    299500   290.62326     -3244.8378     -3261.6298      16.792004      7310.3249      10112.159    
    299600   331.47403     -3244.7082     -3263.8606      19.152333      6952.4551      10112.159    
    299700   298.44263     -3246.4661     -3263.7099      17.243802      6768.6185      10112.159    
    299800   290.06558     -3247.0968     -3263.8566      16.759782      6710.3222      10112.159    
    299900   298.246       -3246.9059     -3264.1383      17.232441      6749.9173      10112.159    
    300000   303.42721     -3245.9912     -3263.523       17.531807      7055.9692      10112.159    
Loop time of 2261.94 on 20 procs for 300000 steps with 448 atoms

Performance: 11.459 ns/day, 2.094 hours/ns, 132.629 timesteps/s, 59.418 katom-step/s
99.9% CPU use with 20 MPI tasks x 1 OpenMP threads

MPI task timing breakdown:
Section |  min time  |  avg time  |  max time  |%varavg| %total
---------------------------------------------------------------
Pair    | 1746.7     | 1999.7     | 2163.8     | 415.8 | 88.41
Neigh   | 20.274     | 28.574     | 36.29      | 123.2 |  1.26
Comm    | 60.735     | 230.52     | 491.83     |1267.8 | 10.19
Output  | 0.35077    | 0.58968    | 0.6565     |   8.1 |  0.03
Modify  | 2.0051     | 2.2469     | 2.4502     |   7.3 |  0.10
Other   |            | 0.286      |            |       |  0.01

Nlocal:           22.4 ave          24 max          19 min
Histogram: 2 0 4 0 2 0 0 0 0 12
Nghost:          494.6 ave         521 max         466 min
Histogram: 4 0 2 6 0 0 0 0 0 8
Neighs:              0 ave           0 max           0 min
Histogram: 20 0 0 0 0 0 0 0 0 0
FullNghs:         1280 ave        1381 max        1085 min
Histogram: 2 4 0 1 1 0 0 0 0 12

Total # of neighbors = 25600
Ave neighs/atom = 57.142857
Neighbor list builds = 300000
Dangerous builds not checked
Total wall time: 0:37:42
