LAMMPS (27 Jun 2024)
OMP_NUM_THREADS environment is not set. Defaulting to 1 thread. (src/comm.cpp:98)
  using 1 OpenMP thread(s) per MPI task
Reading data file ...
  orthogonal box = (0 0 0) to (22.422218 22.19224 20.321894)
  5 by 2 by 2 MPI processor grid
  reading atoms ...
  448 atoms
  read_data CPU = 0.005 seconds
**************** Begin of POD Potentials ****************
species: Hf 
periodic boundary conditions: 1 1 1
number of environment clusters: 8
number of principal compoments: 2
inner cut-off radius: 1
outer cut-off radius: 5
cut-off function type: 1
gaussian_exponents: 
polynomial_degrees: 
bessel polynomial degree: 4
inverse polynomial degree: 10
one-body potential: 1
two-body radial basis functions: 8
three-body radial basis functions: 8
three-body angular degree: 6
four-body radial basis functions: 7
four-body angular degree: 5
five-body radial basis functions: 0
five-body angular degree: 0
six-body radial basis functions: 0
six-body angular degree: 0
seven-body radial basis functions: 0
seven-body angular degree: 0
number of local descriptors per element for one-body potential: 1
number of local descriptors per element for two-body potential: 8
number of local descriptors per element for three-body potential: 56
number of local descriptors per element for four-body potential: 112
number of local descriptors per element for five-body potential: 0
number of local descriptors per element for six-body potential: 0
number of local descriptors per element for seven-body potential: 0
number of local descriptors per element for all potentials: 177
number of global descriptors: 1409
**************** End of POD Potentials ****************

**************** Begin of Model Coefficients ****************
total number of coefficients for POD potential: 1409
total number of elements for PCA projection matrix: 352
total number of elements for PCA centroids: 16
**************** End of Model Coefficients ****************


CITE-CITE-CITE-CITE-CITE-CITE-CITE-CITE-CITE-CITE-CITE-CITE-CITE

Your simulation uses code contributions which should be cited:
- Type Label Framework: https://doi.org/10.1021/acs.jpcb.3c08419
The log file lists these citations in BibTeX format.

CITE-CITE-CITE-CITE-CITE-CITE-CITE-CITE-CITE-CITE-CITE-CITE-CITE

Neighbor list info ...
  update: every = 1 steps, delay = 0 steps, check = no
  max neighbors/atom: 2000, page size: 100000
  master list distance cutoff = 7
  ghost atom cutoff = 7
  binsize = 3.5, bins = 7 7 6
  1 neighbor lists, perpetual/occasional/extra = 1 0 0
  (1) pair pod, perpetual
      attributes: full, newton on
      pair build: full/bin/atomonly
      stencil: full/bin/3d
      bin: standard
Setting up Verlet run ...
  Unit style    : metal
  Current step  : 0
  Time step     : 0.001
Per MPI rank memory allocation (min/avg/max) = 2.586 | 2.586 | 2.586 Mbytes
   Step          Temp          TotEng         PotEng         KinEng         Press          Volume    
         0   300           -3231.7429     -3249.0767      17.333785      27701.818      10112.159    
       100   319.01124     -3235.6825     -3254.1147      18.432241      9106.7096      10112.159    
       200   244.05137     -3236.1598     -3250.2609      14.101113      10923.61       10112.159    
       300   360.27375     -3235.0783     -3255.8947      20.81636       8714.8355      10112.159    
       400   319.4329      -3238.1221     -3256.5787      18.456605      9051.6133      10112.159    
       500   329.58605     -3240.4258     -3259.4691      19.043247      7928.7943      10112.159    
       600   265.28585     -3241.6893     -3257.0173      15.328027      8641.9737      10112.159    
       700   288.76614     -3240.4279     -3257.1126      16.684701      8807.8406      10112.159    
       800   289.12338     -3239.4574     -3256.1628      16.705342      8765.8667      10112.159    
       900   312.63083     -3238.4939     -3256.5575      18.063586      8811.6066      10112.159    
      1000   322.0255      -3238.6044     -3257.2108      18.606403      8681.1946      10112.159    
      1100   309.59418     -3239.8438     -3257.732       17.88813       8420.654       10112.159    
      1200   297.28846     -3240.9334     -3258.1105      17.177115      8162.2633      10112.159    
      1300   275.70025     -3240.9687     -3256.8984      15.929763      8157.0128      10112.159    
      1400   294.69018     -3240.0248     -3257.0518      17.026988      8568.9743      10112.159    
      1500   306.07839     -3239.3224     -3257.0073      17.68499       8634.1743      10112.159    
      1600   323.47563     -3238.8894     -3257.5796      18.690191      8250.3093      10112.159    
      1700   297.36003     -3239.1916     -3256.3728      17.18125       8864.5512      10112.159    
      1800   289.30533     -3239.4471     -3256.163       16.715855      8715.5849      10112.159    
      1900   299.04573     -3240.7943     -3258.073       17.278648      8756.4972      10112.159    
      2000   287.8382      -3241.3836     -3258.0147      16.631086      7912.9041      10112.159    
      2100   307.55689     -3240.4069     -3258.1773      17.770417      8452.7635      10112.159    
      2200   293.96406     -3239.5159     -3256.5009      16.985033      8747.0606      10112.159    
      2300   296.10012     -3238.9887     -3256.0971      17.108453      8937.195       10112.159    
      2400   301.05943     -3239.3843     -3256.7793      17.394999      9007.6753      10112.159    
      2500   295.86232     -3240.9683     -3258.063       17.094713      8350.2451      10112.159    
      2600   296.15991     -3241.0535     -3258.1654      17.111908      8174.167       10112.159    
      2700   286.78113     -3240.6135     -3257.1835      16.570008      8802.2935      10112.159    
      2800   287.19331     -3239.8566     -3256.4504      16.593824      8794.8374      10112.159    
      2900   304.18715     -3239.3693     -3256.9451      17.575716      8804.4164      10112.159    
      3000   313.91863     -3239.3211     -3257.4591      18.137994      8658.2423      10112.159    
      3100   295.96287     -3239.7212     -3256.8217      17.100523      8935.3205      10112.159    
      3200   287.20073     -3240.0595     -3256.6538      16.594253      8805.8594      10112.159    
      3300   293.56119     -3239.9894     -3256.9511      16.961755      8647.5106      10112.159    
      3400   307.87086     -3239.3624     -3257.1509      17.788558      8634.4448      10112.159    
      3500   316.2759      -3238.2253     -3256.4995      18.274195      8780.7348      10112.159    
      3600   308.51702     -3238.1977     -3256.0236      17.825893      9043.6685      10112.159    
      3700   294.12154     -3239.7403     -3256.7344      16.994132      8646.5614      10112.159    
      3800   300.28025     -3240.4486     -3257.7985      17.349978      8413.3303      10112.159    
      3900   303.58346     -3240.5336     -3258.0744      17.540835      8325.6624      10112.159    
      4000   302.22649     -3239.8745     -3257.337       17.462431      8445.3126      10112.159    
      4100   293.67947     -3238.4399     -3255.4085      16.968589      8867.835       10112.159    
      4200   325.19392     -3238.1749     -3256.9644      18.789472      8927.7569      10112.159    
      4300   302.57513     -3239.1748     -3256.6574      17.482575      9055.4296      10112.159    
      4400   299.61544     -3239.5123     -3256.8239      17.311566      8793.4588      10112.159    
      4500   309.66658     -3239.7303     -3257.6226      17.892314      8642.5656      10112.159    
      4600   278.73456     -3240.6692     -3256.7743      16.105083      8546.8811      10112.159    
      4700   296.50526     -3240.8523     -3257.9842      17.131862      8753.8941      10112.159    
      4800   300.63477     -3240.7791     -3258.1496      17.370462      8260.185       10112.159    
      4900   294.12376     -3239.7495     -3256.7438      16.99426       8622.7021      10112.159    
      5000   312.1548      -3238.6066     -3256.6427      18.036081      9399.1259      10112.159    
      5100   294.54082     -3238.9952     -3256.0136      17.018358      8967.7314      10112.159    
      5200   297.26503     -3240.0858     -3257.2615      17.175761      8397.1472      10112.159    
      5300   295.33272     -3241.3057     -3258.3698      17.064113      8418.2214      10112.159    
      5400   292.80041     -3241.163      -3258.0808      16.917798      8232.6583      10112.159    
      5500   298.45569     -3240.2709     -3257.5155      17.244557      8789.9929      10112.159    
      5600   286.96911     -3239.6845     -3256.2654      16.58087       9091.6342      10112.159    
      5700   303.49155     -3239.3516     -3256.8871      17.535525      8602.2063      10112.159    
      5800   315.43885     -3239.4703     -3257.6961      18.225831      8685.4353      10112.159    
      5900   288.45211     -3240.5125     -3257.179       16.666557      8669.5838      10112.159    
      6000   290.03757     -3241.0282     -3257.7864      16.758163      8606.369       10112.159    
      6100   286.63839     -3240.6611     -3257.2229      16.561761      8755.5203      10112.159    
      6200   304.88633     -3239.1657     -3256.7818      17.616114      8953.5329      10112.159    
      6300   298.78804     -3238.6448     -3255.9085      17.263759      9276.7976      10112.159    
      6400   326.12437     -3238.9108     -3257.754       18.843233      8376.1659      10112.159    
      6500   271.65379     -3239.9745     -3255.6704      15.695962      9066.2481      10112.159    
      6600   328.15875     -3239.7477     -3258.7085      18.960778      8491.8592      10112.159    
      6700   278.06652     -3240.6799     -3256.7464      16.066485      8651.2853      10112.159    
      6800   307.91806     -3239.9332     -3257.7245      17.791285      8551.2994      10112.159    
      6900   301.71065     -3239.4143     -3256.8469      17.432625      8563.3961      10112.159    
      7000   307.5972      -3238.2576     -3256.0304      17.772746      9217.3975      10112.159    
      7100   329.79854     -3237.3777     -3256.4333      19.055524      9142.5519      10112.159    
      7200   304.83014     -3238.8756     -3256.4885      17.612868      9133.6693      10112.159    
      7300   299.07895     -3239.7995     -3257.0801      17.280568      8791.9046      10112.159    
      7400   293.16522     -3240.4376     -3257.3765      16.938877      8919.2868      10112.159    
      7500   306.70263     -3240.2282     -3257.9493      17.721059      9015.3509      10112.159    
      7600   296.33835     -3239.705      -3256.8273      17.122218      8823.7452      10112.159    
      7700   312.36409     -3238.3186     -3256.3668      18.048174      9053.1704      10112.159    
      7800   308.24042     -3238.1173     -3255.9272      17.809911      9432.6731      10112.159    
      7900   309.03141     -3239.3995     -3257.2551      17.855614      8748.8997      10112.159    
      8000   301.86568     -3240.1897     -3257.6313      17.441583      8780.3349      10112.159    
      8100   285.78523     -3240.3891     -3256.9015      16.512466      8701.711       10112.159    
      8200   307.25376     -3239.9127     -3257.6656      17.752903      8695.1627      10112.159    
      8300   281.19022     -3240.144      -3256.391       16.24697       9031.393       10112.159    
      8400   306.93995     -3240.1371     -3257.8718      17.734771      8699.5418      10112.159    
      8500   299.03168     -3240.156      -3257.4338      17.277837      8615.1771      10112.159    
      8600   290.27469     -3240.0532     -3256.8251      16.771864      9234.3473      10112.159    
      8700   301.72455     -3239.0789     -3256.5123      17.433428      9358.2451      10112.159    
      8800   300.3195      -3239.0685     -3256.4207      17.352246      8642.9114      10112.159    
      8900   302.62445     -3240.3227     -3257.8081      17.485425      8882.0947      10112.159    
      9000   294.27989     -3241.7308     -3258.7341      17.003282      8579.8131      10112.159    
      9100   282.04961     -3241.4203     -3257.7169      16.296625      8344.474       10112.159    
      9200   291.51631     -3240.4116     -3257.2552      16.843604      8749.3168      10112.159    
      9300   293.1706      -3239.8916     -3256.8308      16.939188      9030.6566      10112.159    
      9400   315.68907     -3239.1681     -3257.4084      18.240289      8857.116       10112.159    
      9500   311.70864     -3239.1        -3257.1103      18.010302      8833.909       10112.159    
      9600   283.55969     -3240.5073     -3256.8912      16.383876      8580.9207      10112.159    
      9700   295.96635     -3241.242      -3258.3428      17.100724      8565.8931      10112.159    
      9800   272.89281     -3241.6561     -3257.4236      15.767552      8336.559       10112.159    
      9900   312.17078     -3239.7538     -3257.7908      18.037004      8776.3811      10112.159    
     10000   308.53732     -3239.1378     -3256.9649      17.827066      9010.1249      10112.159    
     10100   298.01752     -3239.2321     -3256.4513      17.219239      9035.5791      10112.159    
     10200   293.07764     -3240.0853     -3257.0191      16.933816      8991.3164      10112.159    
     10300   295.31587     -3241.1339     -3258.1971      17.06314       7978.6448      10112.159    
     10400   291.94358     -3241.3544     -3258.2227      16.868291      8505.2347      10112.159    
     10500   303.3317      -3239.4479     -3256.9741      17.526289      9050.9529      10112.159    
     10600   309.74191     -3238.7327     -3256.6293      17.896666      9046.4077      10112.159    
     10700   296.02936     -3239.3168     -3256.4211      17.104365      9071.2204      10112.159    
     10800   295.37317     -3240.3046     -3257.3711      17.066451      8411.8862      10112.159    
     10900   308.25046     -3240.8307     -3258.6411      17.810491      8551.9269      10112.159    
     11000   264.53962     -3241.4142     -3256.6991      15.28491       8779.7257      10112.159    
     11100   311.24998     -3239.8821     -3257.8659      17.983801      8585.7514      10112.159    
     11200   301.5918      -3239.1948     -3256.6206      17.425758      9074.9809      10112.159    
     11300   311.96376     -3239.0703     -3257.0953      18.025043      8851.8796      10112.159    
     11400   296.77091     -3239.9061     -3257.0533      17.147211      8620.0336      10112.159    
     11500   286.18438     -3241.3198     -3257.8553      16.535529      8524.2924      10112.159    
     11600   292.5028      -3241.2921     -3258.1927      16.900602      8475.8709      10112.159    
     11700   307.67835     -3239.996      -3257.7735      17.777435      8952.8422      10112.159    
     11800   292.88421     -3239.6292     -3256.5518      16.92264       9200.3448      10112.159    
     11900   296.72526     -3239.8675     -3257.0121      17.144573      8706.6689      10112.159    
     12000   310.41635     -3239.7464     -3257.682       17.935635      8694.2402      10112.159    
     12100   301.23626     -3239.2945     -3256.6997      17.405215      9009.7659      10112.159    
     12200   309.6538      -3238.8391     -3256.7306      17.891575      9191.1993      10112.159    
     12300   305.71518     -3239.4634     -3257.1274      17.664005      8916.6247      10112.159    
     12400   292.35959     -3240.7445     -3257.6369      16.892328      8553.0617      10112.159    
     12500   302.7751      -3241.0146     -3258.5088      17.494129      8550.6135      10112.159    
     12600   280.95162     -3240.7296     -3256.9627      16.233184      9047.1651      10112.159    
     12700   303.66        -3238.8287     -3256.3739      17.545257      9308.6069      10112.159    
     12800   307.88857     -3238.7591     -3256.5487      17.789581      9031.6566      10112.159    
     12900   310.22296     -3239.6705     -3257.595       17.924461      9004.073       10112.159    
     13000   295.16812     -3240.4958     -3257.5504      17.054603      8528.1494      10112.159    
     13100   282.65268     -3240.6754     -3257.0069      16.33147       8969.9897      10112.159    
     13200   296.06186     -3240.2587     -3257.3649      17.106242      9113.1182      10112.159    
     13300   292.83933     -3240.1166     -3257.0366      16.920047      9042.3736      10112.159    
     13400   305.17008     -3239.8506     -3257.4831      17.632509      9141.4103      10112.159    
     13500   298.32348     -3239.6824     -3256.9193      17.236917      8710.1983      10112.159    
     13600   312.07866     -3238.9167     -3256.9484      18.031682      9322.4014      10112.159    
     13700   316.17032     -3238.358      -3256.6261      18.268095      9075.7847      10112.159    
     13800   302.60886     -3239.2412     -3256.7258      17.484523      8984.2988      10112.159    
     13900   292.23769     -3240.504      -3257.3893      16.885285      9015.8319      10112.159    
     14000   292.13365     -3240.7308     -3257.6101      16.879274      8655.9069      10112.159    
     14100   308.54645     -3240.124      -3257.9516      17.827593      8784.0979      10112.159    
     14200   295.30885     -3239.0078     -3256.0706      17.062734      9225.3973      10112.159    
     14300   321.99989     -3237.2486     -3255.8535      18.604923      9661.2811      10112.159    
     14400   305.07725     -3238.4329     -3256.06        17.627145      9136.4077      10112.159    
     14500   312.75716     -3239.2569     -3257.3278      18.070885      8922.5342      10112.159    
     14600   286.3475      -3240.6158     -3257.1608      16.544954      8822.5191      10112.159    
     14700   298.0137      -3240.5621     -3257.7811      17.219018      8802.6743      10112.159    
     14800   299.76094     -3239.8138     -3257.1338      17.319973      8922.2349      10112.159    
     14900   302.65901     -3239.2475     -3256.7349      17.487421      8987.1631      10112.159    
     15000   307.35328     -3239.0781     -3256.8367      17.758653      8849.0368      10112.159    
     15100   304.81206     -3239.286      -3256.8978      17.611823      9160.9511      10112.159    
     15200   298.5771      -3240.0211     -3257.2727      17.251571      8899.5716      10112.159    
     15300   298.88066     -3240.6178     -3257.8869      17.269111      8738.6229      10112.159    
     15400   281.79505     -3240.9749     -3257.2569      16.281916      8940.8222      10112.159    
     15500   291.37399     -3240.0912     -3256.9266      16.835381      9361.9957      10112.159    
     15600   313.16217     -3238.5177     -3256.6119      18.094286      9535.7396      10112.159    
     15700   315.51043     -3238.2445     -3256.4744      18.229967      9235.5825      10112.159    
     15800   299.39342     -3239.2441     -3256.5429      17.298738      9377.9149      10112.159    
     15900   298.50851     -3239.8538     -3257.1014      17.247608      8994.3452      10112.159    
     16000   307.46952     -3240.0206     -3257.786       17.765369      8689.5668      10112.159    
     16100   302.75936     -3240.1808     -3257.6741      17.493219      8879.9101      10112.159    
     16200   299.18335     -3240.0103     -3257.2969      17.2866        8965.6353      10112.159    
     16300   301.94472     -3239.162      -3256.6081      17.44615       9094.1485      10112.159    
     16400   303.53162     -3238.8163     -3256.3542      17.53784       9316.926       10112.159    
     16500   310.39066     -3239.8555     -3257.7897      17.93415       9037.1846      10112.159    
     16600   286.26951     -3240.914      -3257.4545      16.540448      8460.4994      10112.159    
     16700   294.65541     -3240.5822     -3257.6072      17.024979      8682.4775      10112.159    
     16800   297.23797     -3240.1284     -3257.3026      17.174197      8942.137       10112.159    
     16900   305.68884     -3238.9722     -3256.6347      17.662482      8595.4783      10112.159    
     17000   324.97061     -3237.6188     -3256.3954      18.77657       9404.9861      10112.159    
     17100   315.72163     -3238.3606     -3256.6027      18.24217       8944.6087      10112.159    
     17200   299.11958     -3239.4421     -3256.7251      17.282915      8907.2001      10112.159    
     17300   287.11471     -3240.3916     -3256.9809      16.589283      8602.3582      10112.159    
     17400   291.79869     -3240.5854     -3257.4453      16.859919      8836.752       10112.159    
     17500   309.4196      -3239.7549     -3257.633       17.878043      8594.439       10112.159    
     17600   303.14679     -3238.1213     -3255.6369      17.515605      9299.1099      10112.159    
     17700   318.33156     -3237.9056     -3256.2986      18.39297       9195.1653      10112.159    
     17800   299.22208     -3239.0475     -3256.3363      17.288838      9273.9015      10112.159    
     17900   307.80703     -3239.578      -3257.3628      17.78487       8877.0044      10112.159    
     18000   293.84315     -3240.1769     -3257.1549      16.978047      8929.77        10112.159    
     18100   298.25348     -3240.2091     -3257.442       17.232873      8735.5493      10112.159    
     18200   304.75427     -3239.9222     -3257.5307      17.608484      8675.5333      10112.159    
     18300   298.84694     -3239.5066     -3256.7738      17.267162      8912.4465      10112.159    
     18400   308.59826     -3239.0528     -3256.8834      17.830587      8866.9136      10112.159    
     18500   302.74214     -3238.9629     -3256.4552      17.492224      8736.5759      10112.159    
     18600   311.14421     -3239.2659     -3257.2436      17.97769       9123.9189      10112.159    
     18700   286.86493     -3240.9168     -3257.4916      16.57485       8737.4446      10112.159    
     18800   289.92514     -3240.849      -3257.6007      16.751667      8555.7417      10112.159    
     18900   300.644       -3240.2128     -3257.5838      17.370995      8554.299       10112.159    
     19000   303.45154     -3239.4243     -3256.9575      17.533213      8953.4338      10112.159    
     19100   324.18335     -3237.8448     -3256.5759      18.731082      9026.1777      10112.159    
     19200   307.33256     -3238.1211     -3255.8786      17.757455      9396.6364      10112.159    
     19300   317.74338     -3238.7711     -3257.13        18.358985      8938.8429      10112.159    
     19400   298.7664      -3240.0105     -3257.2731      17.262509      8750.9087      10112.159    
     19500   306.04555     -3240.2568     -3257.9399      17.683093      8317.2145      10112.159    
     19600   301.36281     -3240.0512     -3257.4637      17.412528      8893.7294      10112.159    
     19700   288.77019     -3239.8837     -3256.5686      16.684935      9165.3907      10112.159    
     19800   295.48942     -3239.365      -3256.4381      17.073167      9158.9614      10112.159    
     19900   321.82228     -3238.5663     -3257.161       18.594661      8957.9024      10112.159    
     20000   303.02581     -3239.4816     -3256.9902      17.508615      8950.1951      10112.159    
     20100   285.71115     -3240.6245     -3257.1327      16.508186      9001.5647      10112.159    
     20200   287.75969     -3240.921      -3257.5475      16.626549      8513.2832      10112.159    
     20300   303.13602     -3239.874      -3257.389       17.514982      8799.2366      10112.159    
     20400   317.948       -3238.1353     -3256.5061      18.370808      9090.8588      10112.159    
     20500   316.84975     -3238.8593     -3257.1667      18.307352      8792.6695      10112.159    
     20600   293.50408     -3240.147      -3257.1055      16.958456      9129.9608      10112.159    
     20700   282.15772     -3240.5198     -3256.8227      16.302871      8769.0787      10112.159    
     20800   307.30319     -3239.8444     -3257.6001      17.755758      9039.6335      10112.159    
     20900   317.45174     -3238.3858     -3256.728       18.342134      8949.1654      10112.159    
     21000   321.76148     -3237.6427     -3256.2338      18.591148      9441.2731      10112.159    
     21100   302.04513     -3239.1997     -3256.6516      17.451952      8909.3294      10112.159    
     21200   303.42875     -3239.999      -3257.5309      17.531896      8834.722       10112.159    
     21300   288.45606     -3240.1921     -3256.8588      16.666785      9063.3748      10112.159    
     21400   292.56062     -3239.9583     -3256.8622      16.903943      8984.884       10112.159    
     21500   317.39767     -3239.2291     -3257.5681      18.33901       8883.6329      10112.159    
     21600   313.07025     -3238.5452     -3256.6342      18.088975      8928.7992      10112.159    
     21700   288.4345      -3239.6011     -3256.2666      16.665539      8982.2675      10112.159    
     21800   297.15641     -3240.875      -3258.0444      17.169485      8694.5555      10112.159    
     21900   300.20792     -3240.6839     -3258.0297      17.345799      8644.0847      10112.159    
     22000   291.67677     -3240.0741     -3256.927       16.852875      8842.0353      10112.159    
     22100   316.35998     -3239.1472     -3257.4263      18.279054      9022.1126      10112.159    
     22200   287.24336     -3239.3235     -3255.9203      16.596716      8927.4484      10112.159    
     22300   304.19291     -3239.5917     -3257.1678      17.576049      8783.5111      10112.159    
     22400   311.45391     -3239.8847     -3257.8803      17.995584      8728.1148      10112.159    
     22500   302.35026     -3240.0637     -3257.5333      17.469582      8618.0899      10112.159    
     22600   285.99336     -3239.9699     -3256.4944      16.524492      8547.9781      10112.159    
     22700   315.99324     -3239.157      -3257.4149      18.257864      9237.9668      10112.159    
     22800   285.43042     -3239.4215     -3255.9135      16.491965      9161.6324      10112.159    
     22900   308.72193     -3239.9459     -3257.7836      17.837732      8742.2823      10112.159    
     23000   296.8134      -3241.0613     -3258.211       17.149666      8503.1493      10112.159    
     23100   294.13135     -3240.9282     -3257.9229      16.994699      8514.5084      10112.159    
     23200   295.78838     -3239.2268     -3256.3172      17.090441      9090.5412      10112.159    
     23300   306.47997     -3238.4864     -3256.1946      17.708194      9268.6678      10112.159    
     23400   301.45901     -3239.3486     -3256.7667      17.418086      9102.5776      10112.159    
     23500   299.36244     -3239.7896     -3257.0866      17.296947      8275.8109      10112.159    
     23600   315.90447     -3240.0122     -3258.2649      18.252734      8571.0442      10112.159    
     23700   284.14439     -3240.8383     -3257.256       16.41766       8797.7548      10112.159    
     23800   313.69987     -3239.7456     -3257.871       18.125354      8864.2522      10112.159    
     23900   291.46493     -3238.4965     -3255.3371      16.840635      9538.4303      10112.159    
     24000   344.68613     -3237.5358     -3257.4515      19.915718      9282.7144      10112.159    
     24100   303.5795      -3238.7921     -3256.3327      17.540606      9108.733       10112.159    
     24200   305.7732      -3239.4195     -3257.0868      17.667357      8940.9984      10112.159    
     24300   296.91891     -3240.0015     -3257.1573      17.155762      8843.9386      10112.159    
     24400   292.21435     -3240.4275     -3257.3115      16.883936      8871.1976      10112.159    
     24500   304.67131     -3240.7137     -3258.3174      17.603691      8423.2535      10112.159    
     24600   286.08352     -3240.9862     -3257.5159      16.529701      8963.1185      10112.159    
     24700   305.78635     -3240.2335     -3257.9016      17.668116      8753.1897      10112.159    
     24800   303.04097     -3239.111      -3256.6204      17.509491      8988.8237      10112.159    
     24900   305.87858     -3238.7207     -3256.3941      17.673446      9274.9917      10112.159    
     25000   293.28213     -3239.7515     -3256.6971      16.945632      8937.0373      10112.159    
     25100   289.67644     -3241.2164     -3257.9536      16.737298      8486.2177      10112.159    
     25200   289.06407     -3241.0093     -3257.7112      16.701915      8668.9527      10112.159    
     25300   295.26215     -3240.3821     -3257.4421      17.060036      8615.4012      10112.159    
     25400   300.73475     -3239.6995     -3257.0758      17.376239      8770.374       10112.159    
     25500   310.16698     -3238.4961     -3256.4174      17.921226      9255.6279      10112.159    
     25600   317.06715     -3237.3522     -3255.6721      18.319913      9463.0752      10112.159    
     25700   302.7611      -3239.3621     -3256.8555      17.49332       8798.9368      10112.159    
     25800   301.39548     -3240.4788     -3257.8932      17.414416      8661.838       10112.159    
     25900   286.10322     -3240.9202     -3257.4511      16.530839      9018.1976      10112.159    
     26000   302.68884     -3240.0924     -3257.5815      17.489145      8582.645       10112.159    
     26100   315.30186     -3239.0997     -3257.3176      18.217916      8957.4673      10112.159    
     26200   296.73545     -3239.1667     -3256.3119      17.145162      9176.4986      10112.159    
     26300   318.71875     -3239.543      -3257.9583      18.415342      8608.4915      10112.159    
     26400   285.24184     -3241.2013     -3257.6823      16.48107       8766.1879      10112.159    
     26500   289.89237     -3241.3337     -3258.0835      16.749774      8590.4469      10112.159    
     26600   281.82704     -3240.2903     -3256.5741      16.283765      8889.113       10112.159    
     26700   313.25038     -3239.0982     -3257.1976      18.099383      8477.9028      10112.159    
     26800   314.79124     -3239.2744     -3257.4629      18.188413      9221.6612      10112.159    
     26900   293.25676     -3240.3576     -3257.3018      16.944166      8827.2101      10112.159    
     27000   282.44676     -3241.1976     -3257.5171      16.319572      8319.7542      10112.159    
     27100   297.32374     -3240.6321     -3257.8113      17.179153      8692.5544      10112.159    
     27200   303.11921     -3238.9379     -3256.4519      17.514011      9447.5564      10112.159    
     27300   314.07626     -3238.705      -3256.8521      18.147102      9110.4071      10112.159    
     27400   311.98792     -3239.3127     -3257.3391      18.026439      8784.8941      10112.159    
     27500   289.52953     -3240.5915     -3257.3203      16.728809      9024.6708      10112.159    
     27600   294.3419      -3240.9241     -3257.9309      17.006865      8975.5097      10112.159    
     27700   304.02529     -3240.1996     -3257.766       17.566364      8847.6516      10112.159    
     27800   308.48968     -3238.5891     -3256.4134      17.824313      9055.5121      10112.159    
     27900   321.46489     -3238.1038     -3256.6778      18.574012      9147.8141      10112.159    
     28000   304.19592     -3238.8457     -3256.422       17.576223      9396.1807      10112.159    
     28100   298.5497      -3239.776      -3257.026       17.249988      9102.8028      10112.159    
     28200   311.82569     -3240.1084     -3258.1254      18.017065      8853.7013      10112.159    
     28300   286.53697     -3240.7211     -3257.277       16.555901      8909.7421      10112.159    
     28400   293.07125     -3241.0318     -3257.9652      16.933447      8425.4325      10112.159    
     28500   298.19218     -3240.5294     -3257.7588      17.229331      8832.1159      10112.159    
     28600   298.46753     -3239.3604     -3256.6056      17.24524       9277.7         10112.159    
     28700   326.34324     -3238.3515     -3257.2073      18.855879      8989.1236      10112.159    
     28800   302.52566     -3239.1036     -3256.5833      17.479716      9266.6359      10112.159    
     28900   291.16052     -3240.2555     -3257.0785      16.823046      8989.4952      10112.159    
     29000   304.30652     -3240.3167     -3257.8993      17.582613      8900.5344      10112.159    
     29100   305.69453     -3240.2579     -3257.9207      17.662812      8838.7859      10112.159    
     29200   295.33281     -3239.903      -3256.9671      17.064119      8898.0418      10112.159    
     29300   301.03395     -3238.4337     -3255.8272      17.393526      9448.5613      10112.159    
     29400   314.04526     -3237.6733     -3255.8186      18.145311      9300.9576      10112.159    
     29500   317.79434     -3239.2876     -3257.6495      18.361929      9047.6742      10112.159    
     29600   291.93299     -3240.5843     -3257.452       16.867679      8844.1543      10112.159    
     29700   278.28282     -3240.5618     -3256.6408      16.078982      8644.9908      10112.159    
     29800   313.21274     -3239.5895     -3257.6867      18.097208      8593.5114      10112.159    
     29900   318.08937     -3239.0059     -3257.3848      18.378976      8928.6147      10112.159    
     30000   286.36053     -3239.4061     -3255.9518      16.545707      9440.0866      10112.159    
     30100   300.51972     -3240.3175     -3257.6813      17.363815      8941.3344      10112.159    
     30200   286.79689     -3241.4865     -3258.0574      16.570919      8722.7065      10112.159    
     30300   295.43246     -3241.0717     -3258.1416      17.069876      8932.8249      10112.159    
     30400   294.93726     -3239.5948     -3256.6361      17.041264      9137.1628      10112.159    
     30500   299.92191     -3239.248      -3256.5773      17.329274      8846.177       10112.159    
     30600   317.06583     -3239.4616     -3257.7815      18.319837      8706.7254      10112.159    
     30700   298.55572     -3240.1144     -3257.3647      17.250336      8923.5359      10112.159    
     30800   287.25829     -3240.3947     -3256.9922      16.597579      9241.7651      10112.159    
     30900   300.48897     -3240.225      -3257.587       17.362038      8848.9187      10112.159    
     31000   308.28444     -3240.0254     -3257.8378      17.812454      8803.4057      10112.159    
     31100   308.36796     -3239.5619     -3257.3792      17.81728       8866.7555      10112.159    
     31200   295.00095     -3239.105      -3256.1499      17.044944      9495.5562      10112.159    
     31300   308.59698     -3238.6175     -3256.448       17.830513      9581.1925      10112.159    
     31400   311.07846     -3239.1482     -3257.1221      17.973891      9370.3205      10112.159    
     31500   301.5123      -3240.5837     -3258.0049      17.421165      8893.4106      10112.159    
     31600   289.49181     -3241.2293     -3257.9559      16.72663       8912.9295      10112.159    
     31700   292.17946     -3240.8863     -3257.7682      16.88192       8929.6678      10112.159    
     31800   300.76578     -3239.3366     -3256.7146      17.378032      9113.8132      10112.159    
     31900   316.46428     -3238.1355     -3256.4206      18.28508       9363.7227      10112.159    
     32000   307.29987     -3238.8347     -3256.5903      17.755567      9599.5624      10112.159    
     32100   299.44809     -3239.9761     -3257.278       17.301897      9163.2673      10112.159    
     32200   300.7255      -3240.713      -3258.0887      17.375704      8741.322       10112.159    
     32300   294.43328     -3240.9045     -3257.9166      17.012144      8792.1537      10112.159    
     32400   293.89333     -3239.6847     -3256.6656      16.980946      9341.3002      10112.159    
     32500   325.65798     -3237.997      -3256.8133      18.816285      9283.8186      10112.159    
     32600   310.82762     -3238.6237     -3256.5831      17.959397      9262.2693      10112.159    
     32700   296.12313     -3239.8391     -3256.9488      17.109783      9061.453       10112.159    
     32800   291.45273     -3240.8067     -3257.6466      16.83993       8953.5059      10112.159    
     32900   284.43047     -3241.0012     -3257.4354      16.434189      8802.9608      10112.159    
     33000   300.3278      -3240.2973     -3257.65        17.352726      8852.415       10112.159    
     33100   305.00538     -3239.8169     -3257.4399      17.622993      8888.4127      10112.159    
     33200   305.65248     -3239.7143     -3257.3747      17.660382      9277.405       10112.159    
     33300   279.32124     -3239.986      -3256.125       16.138982      9146.1499      10112.159    
     33400   305.43019     -3239.4803     -3257.1278      17.647538      9021.9631      10112.159    
     33500   302.76742     -3239.3357     -3256.8294      17.493685      9077.0814      10112.159    
     33600   297.38181     -3239.5747     -3256.7573      17.182508      9013.0146      10112.159    
     33700   302.67347     -3239.92       -3257.4082      17.488257      9086.4468      10112.159    
     33800   287.40826     -3240.9641     -3257.5704      16.606244      8801.7095      10112.159    
     33900   277.58344     -3241.3961     -3257.4347      16.038572      8591.7041      10112.159    
     34000   303.38403     -3239.869      -3257.3983      17.529312      8806.3756      10112.159    
     34100   319.96993     -3238.8636     -3257.3512      18.487633      8956.5347      10112.159    
     34200   307.66335     -3239.0001     -3256.7767      17.776568      9361.4784      10112.159    
     34300   283.86559     -3239.7879     -3256.1895      16.401551      9320.6033      10112.159    
     34400   291.2228      -3240.6384     -3257.4651      16.826645      9168.0491      10112.159    
     34500   289.90983     -3241.3619     -3258.1127      16.750783      8420.332       10112.159    
     34600   287.27694     -3241.9633     -3258.562       16.598656      8623.4226      10112.159    
     34700   278.63775     -3241.3414     -3257.4409      16.09949       8494.1534      10112.159    
     34800   303.56977     -3239.7058     -3257.2459      17.540044      9232.8797      10112.159    
     34900   299.42186     -3239.2354     -3256.5358      17.300381      9462.9507      10112.159    
     35000   300.34043     -3239.3428     -3256.6962      17.353455      9376.5917      10112.159    
     35100   303.30858     -3240.3289     -3257.8539      17.524953      8665.3229      10112.159    
     35200   289.63392     -3241.2123     -3257.9472      16.734841      8709.4449      10112.159    
     35300   294.3846      -3240.8551     -3257.8644      17.009331      8622.343       10112.159    
     35400   307.95526     -3239.0239     -3256.8174      17.793435      9073.5936      10112.159    
     35500   297.00831     -3238.1764     -3255.3373      17.160928      9513.3874      10112.159    
     35600   317.25871     -3238.3879     -3256.7189      18.330981      9162.7746      10112.159    
     35700   310.72512     -3239.9099     -3257.8634      17.953475      8782.8682      10112.159    
     35800   296.61723     -3240.4852     -3257.6236      17.138332      8812.2181      10112.159    
     35900   304.43706     -3240.358      -3257.9482      17.590156      8646.3657      10112.159    
     36000   291.71419     -3240.0095     -3256.8646      16.855037      9199.9899      10112.159    
     36100   309.83593     -3238.4571     -3256.3592      17.902098      9659.4872      10112.159    
     36200   319.68606     -3237.9138     -3256.385       18.471232      9184.9775      10112.159    
     36300   307.58567     -3239.0657     -3256.8378      17.77208       9188.9656      10112.159    
     36400   296.10413     -3240.989      -3258.0977      17.108685      8826.0204      10112.159    
     36500   269.76738     -3241.402      -3256.989       15.586966      8973.5525      10112.159    
     36600   317.37679     -3239.9649     -3258.3027      18.337804      8816.5349      10112.159    
     36700   311.63255     -3239.4456     -3257.4515      18.005906      8766.687       10112.159    
     36800   296.83424     -3239.4155     -3256.5663      17.15087       9116.3522      10112.159    
     36900   295.51318     -3239.4952     -3256.5697      17.07454       9388.8845      10112.159    
     37000   297.29818     -3240.6539     -3257.8316      17.177676      8725.2686      10112.159    
     37100   295.70807     -3241.4922     -3258.578       17.085801      8379.6778      10112.159    
     37200   292.08973     -3240.8949     -3257.7716      16.876736      8497.5334      10112.159    
     37300   297.80484     -3239.3973     -3256.6043      17.206951      9582.9666      10112.159    
     37400   299.15452     -3239.4591     -3256.7441      17.284934      9104.186       10112.159    
     37500   313.73517     -3239.845      -3257.9724      18.127394      8806.8229      10112.159    
     37600   296.63474     -3240.7105     -3257.8499      17.139343      8566.247       10112.159    
     37700   287.91878     -3241.2362     -3257.872       16.635741      8709.5617      10112.159    
     37800   285.21568     -3240.7446     -3257.2242      16.479558      8926.4049      10112.159    
     37900   301.84994     -3239.3038     -3256.7445      17.440674      9022.6937      10112.159    
     38000   329.43482     -3238.6297     -3257.6642      19.034508      8949.6015      10112.159    
     38100   304.54126     -3239.4457     -3257.0419      17.596176      8812.829       10112.159    
     38200   287.15552     -3240.7022     -3257.2939      16.591641      8766.5357      10112.159    
     38300   297.92429     -3240.9757     -3258.1895      17.213853      8800.8401      10112.159    
     38400   275.93463     -3240.879      -3256.8223      15.943305      8836.3534      10112.159    
     38500   292.27638     -3240.0373     -3256.9248      16.88752       8660.1913      10112.159    
     38600   309.0934      -3239.5419     -3257.4011      17.859195      9135.7923      10112.159    
     38700   314.19253     -3239.9173     -3258.0711      18.153819      8622.6697      10112.159    
     38800   289.6977      -3240.6497     -3257.3882      16.738526      8927.3762      10112.159    
     38900   268.53438     -3241.0824     -3256.5981      15.515724      9153.4469      10112.159    
     39000   311.25356     -3240.5634     -3258.5474      17.984008      8747.2225      10112.159    
     39100   317.87092     -3239.4694     -3257.8358      18.366355      8875.6657      10112.159    
     39200   293.10113     -3238.578      -3255.5132      16.935174      9493.3899      10112.159    
     39300   315.80016     -3238.1374     -3256.3841      18.246707      9316.4911      10112.159    
     39400   307.38741     -3238.9795     -3256.7402      17.760625      9126.7643      10112.159    
     39500   303.56408     -3239.6053     -3257.145       17.539716      9120.6233      10112.159    
     39600   298.49713     -3240.2856     -3257.5326      17.246951      8814.0085      10112.159    
     39700   298.88496     -3240.6375     -3257.9068      17.269359      8819.0078      10112.159    
     39800   280.01948     -3240.7823     -3256.9617      16.179325      9207.2042      10112.159    
     39900   314.60295     -3239.4844     -3257.6619      18.177534      9022.6939      10112.159    
     40000   301.71572     -3238.9927     -3256.4256      17.432919      9211.4579      10112.159    
     40100   325.77576     -3239.1738     -3257.9969      18.823091      8856.073       10112.159    
     40200   279.01033     -3240.7848     -3256.9058      16.121017      9069.5393      10112.159    
     40300   301.53111     -3240.6232     -3258.0455      17.422252      8676.7885      10112.159    
     40400   305.6866      -3240.2304     -3257.8927      17.662353      8805.69        10112.159    
     40500   307.07415     -3238.98       -3256.7226      17.742525      9113.1361      10112.159    
     40600   314.36792     -3238.1871     -3256.3511      18.163954      9444.0006      10112.159    
     40700   310.7127      -3238.7859     -3256.7387      17.952757      9174.7916      10112.159    
     40800   302.77248     -3239.5353     -3257.0293      17.493977      9003.6141      10112.159    
     40900   301.47005     -3240.313      -3257.7317      17.418724      8845.5076      10112.159    
     41000   289.25989     -3241.3416     -3258.0549      16.713229      8878.4016      10112.159    
     41100   269.45609     -3242.8543     -3258.4233      15.56898       8554.3113      10112.159    
     41200   284.58785     -3242.6875     -3259.1308      16.443282      8325.7354      10112.159    
     41300   290.55398     -3240.7785     -3257.5665      16.788001      8852.6859      10112.159    
     41400   287.43273     -3239.9002     -3256.5078      16.607658      9258.9416      10112.159    
     41500   297.64743     -3239.2128     -3256.4107      17.197856      9039.6855      10112.159    
     41600   329.87138     -3239.1353     -3258.1951      19.059733      8773.2069      10112.159    
     41700   301.99615     -3240.22       -3257.6692      17.449121      8880.7527      10112.159    
     41800   273.80441     -3241.0956     -3256.9158      15.820223      9090.87        10112.159    
     41900   297.38717     -3240.7191     -3257.9019      17.182818      8697.2015      10112.159    
     42000   304.96364     -3238.8729     -3256.4935      17.620581      9344.978       10112.159    
     42100   321.89165     -3238.2343     -3256.8329      18.598669      9558.8217      10112.159    
     42200   302.53904     -3239.2857     -3256.7662      17.48049       9028.8942      10112.159    
     42300   291.66741     -3240.5691     -3257.4214      16.852334      9250.653       10112.159    
     42400   288.5633      -3240.8041     -3257.477       16.672981      8968.4882      10112.159    
     42500   308.34457     -3240.2474     -3258.0634      17.815929      8895.4307      10112.159    
     42600   294.57933     -3239.6455     -3256.666       17.020583      8973.2473      10112.159    
     42700   314.49786     -3237.905      -3256.0764      18.171462      9459.7117      10112.159    
     42800   328.75615     -3238.0595     -3257.0548      18.995295      9246.7002      10112.159    
     42900   300.28198     -3239.2184     -3256.5685      17.350078      9374.97        10112.159    
     43000   287.04566     -3240.1146     -3256.6999      16.585293      9077.5764      10112.159    
     43100   304.95189     -3240.1061     -3257.726       17.619902      8692.6068      10112.159    
     43200   291.9766      -3240.2374     -3257.1076      16.870199      8944.0901      10112.159    
     43300   298.19527     -3240.4316     -3257.6611      17.22951       8473.4681      10112.159    
     43400   297.69788     -3240.5191     -3257.7199      17.200771      9003.9045      10112.159    
     43500   299.39388     -3240.0046     -3257.3033      17.298764      8904.366       10112.159    
     43600   316.72304     -3238.7094     -3257.0095      18.300031      9324.906       10112.159    
     43700   304.72744     -3238.7581     -3256.3651      17.606934      9409.0324      10112.159    
     43800   299.16709     -3239.9459     -3257.2315      17.28566       8782.1576      10112.159    
     43900   295.66273     -3241.1094     -3258.1926      17.083181      8671.5473      10112.159    
     44000   299.02172     -3240.9834     -3258.2607      17.277261      8726.64        10112.159    
     44100   280.23719     -3240.622      -3256.8139      16.191905      8787.5652      10112.159    
     44200   301.80122     -3239.3755     -3256.8134      17.437859      9250.7581      10112.159    
     44300   310.01971     -3239.1049     -3257.0176      17.912717      9122.4282      10112.159    
     44400   307.02904     -3239.4404     -3257.1804      17.739919      9257.2365      10112.159    
     44500   292.6076      -3240.0172     -3256.9239      16.906658      8963.3609      10112.159    
     44600   283.67471     -3240.6651     -3257.0556      16.390522      8795.8561      10112.159    
     44700   282.87978     -3242.3704     -3258.715       16.344591      8530.5232      10112.159    
     44800   288.56716     -3242.2954     -3258.9686      16.673204      8187.0015      10112.159    
     44900   288.52167     -3240.848      -3257.5186      16.670576      8863.2747      10112.159    
     45000   303.27245     -3239.8766     -3257.3995      17.522865      8906.9536      10112.159    
     45100   298.13187     -3239.4277     -3256.6536      17.225846      9208.9446      10112.159    
     45200   303.85384     -3239.3466     -3256.903       17.556457      9238.0357      10112.159    
     45300   295.64815     -3240.2694     -3257.3517      17.082339      8811.2621      10112.159    
     45400   292.7152      -3241.279      -3258.1919      16.912875      8841.3281      10112.159    
     45500   284.48477     -3241.4756     -3257.913       16.437326      8597.4905      10112.159    
     45600   297.77947     -3239.7586     -3256.9641      17.205485      9270.6897      10112.159    
     45700   312.25139     -3238.8017     -3256.8434      18.041662      9257.3809      10112.159    
     45800   311.53801     -3238.9458     -3256.9463      18.000443      9124.906       10112.159    
     45900   303.76604     -3240.053      -3257.6044      17.551385      8893.7028      10112.159    
     46000   287.76653     -3241.0201     -3257.6471      16.626945      8962.2824      10112.159    
     46100   288.14681     -3240.9766     -3257.6255      16.648917      8684.166       10112.159    
     46200   285.57474     -3240.5096     -3257.0099      16.500304      9091.3176      10112.159    
     46300   310.13364     -3239.7859     -3257.7052      17.9193        8952.4449      10112.159    
     46400   297.64463     -3239.6667     -3256.8644      17.197694      9170.4462      10112.159    
     46500   310.47564     -3239.6247     -3257.5637      17.93906       8524.8725      10112.159    
     46600   275.50751     -3241.1723     -3257.0909      15.918627      8850.3486      10112.159    
     46700   296.17924     -3241.5117     -3258.6247      17.113025      8555.1948      10112.159    
     46800   289.80205     -3240.7582     -3257.5028      16.744555      8837.8628      10112.159    
     46900   307.11289     -3238.8915     -3256.6362      17.744763      9253.4585      10112.159    
     47000   304.98366     -3238.818      -3256.4397      17.621738      9096.4189      10112.159    
     47100   314.36361     -3239.5607     -3257.7244      18.163704      8647.3912      10112.159    
     47200   275.50457     -3240.7067     -3256.6251      15.918457      9048.4387      10112.159    
     47300   291.58934     -3240.6294     -3257.4772      16.847824      8887.3189      10112.159    
     47400   309.60676     -3240.3148     -3258.2036      17.888857      8696.5421      10112.159    
     47500   299.10671     -3240.0558     -3257.3379      17.282172      8542.0386      10112.159    
     47600   301.3154      -3239.6836     -3257.0934      17.409788      8921.3262      10112.159    
     47700   289.07941     -3239.9645     -3256.6673      16.702801      8825.8257      10112.159    
     47800   304.24509     -3240.0692     -3257.6483      17.579064      8572.6647      10112.159    
     47900   316.07146     -3239.878      -3258.1404      18.262383      8723.1228      10112.159    
     48000   289.89432     -3239.4645     -3256.2144      16.749886      9143.1397      10112.159    
     48100   304.14719     -3238.7519     -3256.3253      17.573407      9373.2098      10112.159    
     48200   304.43235     -3239.1172     -3256.7071      17.589884      8691.9063      10112.159    
     48300   294.00094     -3240.4666     -3257.4537      16.987164      8714.9899      10112.159    
     48400   305.73008     -3241.0998     -3258.7647      17.664865      8103.1012      10112.159    
     48500   286.99119     -3240.9177     -3257.4998      16.582146      9157.3282      10112.159    
     48600   290.89158     -3239.2569     -3256.0644      16.807508      9115.0886      10112.159    
     48700   321.23427     -3238.9177     -3257.4784      18.560687      9015.9772      10112.159    
     48800   308.69137     -3239.6975     -3257.5334      17.835966      8805.2121      10112.159    
     48900   285.41057     -3240.5215     -3257.0123      16.490818      8857.2946      10112.159    
     49000   296.40935     -3240.6986     -3257.8249      17.12632       8743.7243      10112.159    
     49100   287.6534      -3241.2379     -3257.8583      16.620408      8446.6663      10112.159    
     49200   295.80885     -3240.6841     -3257.7757      17.091624      8670.5746      10112.159    
     49300   314.63969     -3239.2417     -3257.4213      18.179656      8907.8642      10112.159    
     49400   298.04289     -3238.9921     -3256.2128      17.220705      8832.9579      10112.159    
     49500   299.78836     -3239.2884     -3256.61        17.321557      9192.255       10112.159    
     49600   286.87111     -3240.6482     -3257.2234      16.575208      8703.037       10112.159    
     49700   289.16287     -3241.7474     -3258.4551      16.707624      8337.0855      10112.159    
     49800   286.86729     -3241.2603     -3257.8353      16.574987      8135.0428      10112.159    
     49900   289.55021     -3240.5246     -3257.2546      16.730004      8805.1606      10112.159    
     50000   308.98836     -3239.725      -3257.5782      17.853127      8725.0429      10112.159    
     50100   305.63838     -3239.4826     -3257.1421      17.659567      8355.9215      10112.159    
     50200   315.0817      -3239.2418     -3257.447       18.205195      8781.2191      10112.159    
     50300   300.03983     -3239.066      -3256.4021      17.336087      9080.2269      10112.159    
     50400   294.02944     -3239.8251     -3256.8139      16.988811      9103.3398      10112.159    
     50500   293.57489     -3240.6843     -3257.6468      16.962547      8614.2513      10112.159    
     50600   286.78335     -3241.2476     -3257.8177      16.570137      8637.9685      10112.159    
     50700   295.13231     -3240.508      -3257.5605      17.052534      8220.5183      10112.159    
     50800   309.85432     -3238.9262     -3256.8294      17.903161      9223.9009      10112.159    
     50900   306.63377     -3238.8058     -3256.5228      17.71708       8968.7507      10112.159    
     51000   314.598       -3239.2774     -3257.4547      18.177247      9135.344       10112.159    
     51100   284.26695     -3240.9857     -3257.4104      16.424741      8759.1332      10112.159    
     51200   285.8297      -3241.119      -3257.6341      16.515036      8994.2828      10112.159    
     51300   297.12891     -3240.5245     -3257.6924      17.167896      8614.4415      10112.159    
     51400   304.96552     -3239.683      -3257.3036      17.62069       8831.0068      10112.159    
     51500   294.77205     -3239.4321     -3256.4638      17.031718      9042.8044      10112.159    
     51600   301.82282     -3239.6424     -3257.0815      17.439107      9048.4868      10112.159    
     51700   308.9688      -3239.8826     -3257.7346      17.851996      8972.125       10112.159    
     51800   293.52015     -3240.2586     -3257.218       16.959384      8857.5585      10112.159    
     51900   279.6421      -3240.8031     -3256.9606      16.15752       8759.6759      10112.159    
     52000   305.35948     -3240.4237     -3258.0671      17.643452      8514.2046      10112.159    
     52100   297.00617     -3239.9301     -3257.0909      17.160804      8861.0313      10112.159    
     52200   297.64367     -3239.4264     -3256.624       17.197639      9372.2939      10112.159    
     52300   314.05204     -3238.4998     -3256.6455      18.145702      9000.4839      10112.159    
     52400   303.70744     -3238.8401     -3256.3881      17.547999      9242.0893      10112.159    
     52500   301.70442     -3240.2388     -3257.671       17.432266      8656.2362      10112.159    
     52600   286.27128     -3240.8789     -3257.4194      16.54055       8876.6452      10112.159    
     52700   299.4131      -3240.7246     -3258.0245      17.299875      8733.3384      10112.159    
     52800   307.757       -3239.7246     -3257.5066      17.781979      8759.4341      10112.159    
     52900   319.98564     -3238.1016     -3256.5901      18.488542      9183.9246      10112.159    
     53000   293.29608     -3238.5376     -3255.4841      16.946438      9291.6417      10112.159    
     53100   292.96429     -3239.6951     -3256.6224      16.927267      9255.0374      10112.159    
     53200   295.26378     -3240.5952     -3257.6553      17.06013       8988.5371      10112.159    
     53300   297.56301     -3240.5701     -3257.7631      17.192978      8772.5206      10112.159    
     53400   307.15019     -3240.232      -3257.9789      17.746918      8986.6418      10112.159    
     53500   299.45119     -3239.5545     -3256.8566      17.302076      8779.3334      10112.159    
     53600   309.02229     -3237.6572     -3255.5123      17.855087      9643.8481      10112.159    
     53700   305.55447     -3238.3503     -3256.0051      17.654719      9537.85        10112.159    
     53800   314.76702     -3239.4381     -3257.6251      18.187014      8947.0318      10112.159    
     53900   299.13425     -3240.19       -3257.4737      17.283763      8917.9653      10112.159    
     54000   297.08527     -3240.7104     -3257.8758      17.165375      8798.5453      10112.159    
     54100   290.88424     -3240.6963     -3257.5033      16.807084      8843.1635      10112.159    
     54200   311.56873     -3238.6526     -3256.6548      18.002218      9312.2129      10112.159    
     54300   307.17294     -3238.6525     -3256.4007      17.748233      9251.9233      10112.159    
     54400   299.12724     -3239.2959     -3256.5793      17.283358      9145.5821      10112.159    
     54500   309.97063     -3240.0491     -3257.959       17.909881      8851.7876      10112.159    
     54600   279.88764     -3241.3633     -3257.535       16.171708      8611.5577      10112.159    
     54700   291.9973      -3240.9352     -3257.8066      16.871395      8975.2837      10112.159    
     54800   293.11426     -3240.6305     -3257.5664      16.935932      9009.2263      10112.159    
     54900   296.33555     -3239.9774     -3257.0994      17.122056      8848.3727      10112.159    
     55000   307.90232     -3239.0062     -3256.7966      17.790376      9100.6814      10112.159    
     55100   313.70108     -3238.5792     -3256.7046      18.125424      8952.401       10112.159    
     55200   279.78072     -3240.059      -3256.2246      16.16553       9355.0986      10112.159    
     55300   292.38945     -3240.9249     -3257.8189      16.894054      8936.0653      10112.159    
     55400   307.77687     -3240.4194     -3258.2025      17.783127      8709.6878      10112.159    
     55500   306.81769     -3239.453      -3257.1807      17.727707      9034.7348      10112.159    
     55600   302.48812     -3238.8424     -3256.3199      17.477547      9441.5515      10112.159    
     55700   304.34003     -3239.0518     -3256.6364      17.584549      9133.6592      10112.159    
     55800   295.16863     -3240.6375     -3257.6922      17.054633      8895.9482      10112.159    
     55900   291.21627     -3241.3389     -3258.1652      16.826268      8622.9115      10112.159    
     56000   294.05818     -3240.6369     -3257.6274      16.990472      8805.3739      10112.159    
     56100   299.1072      -3239.6906     -3256.9728      17.2822        9238.9531      10112.159    
     56200   292.86414     -3239.7766     -3256.6981      16.92148       8848.402       10112.159    
     56300   296.84904     -3239.8621     -3257.0138      17.151725      8812.6869      10112.159    
     56400   317.97838     -3239.9797     -3258.3523      18.372564      8651.3049      10112.159    
     56500   283.4524      -3240.9821     -3257.3597      16.377677      8846.8892      10112.159    
     56600   295.28269     -3240.822      -3257.8832      17.061223      8704.0343      10112.159    
     56700   294.46754     -3239.69       -3256.7041      17.014124      9143.2605      10112.159    
     56800   315.87645     -3238.5285     -3256.7796      18.251116      9143.7338      10112.159    
     56900   302.4162      -3238.8639     -3256.3373      17.473392      9273.3083      10112.159    
     57000   298.4334      -3239.4646     -3256.7079      17.243268      8694.9218      10112.159    
     57100   306.53633     -3239.7506     -3257.462       17.71145       9170.2868      10112.159    
     57200   306.55531     -3240.173      -3257.8856      17.712546      8884.1768      10112.159    
     57300   278.58207     -3240.3866     -3256.4829      16.096273      9026.6794      10112.159    
     57400   308.09219     -3239.5916     -3257.393       17.801346      9200.607       10112.159    
     57500   303.92994     -3239.4507     -3257.0115      17.560855      9159.3455      10112.159    
     57600   303.56359     -3239.6013     -3257.141       17.539687      9098.3443      10112.159    
     57700   277.18276     -3240.6217     -3256.6371      16.015422      8565.5354      10112.159    
     57800   291.10727     -3240.7835     -3257.6035      16.81997       8496.3789      10112.159    
     57900   297.32602     -3240.2557     -3257.435       17.179285      8710.8678      10112.159    
     58000   311.3879      -3238.9144     -3256.9062      17.99177       9257.1795      10112.159    
     58100   306.67099     -3238.508      -3256.2272      17.71923       9465.7742      10112.159    
     58200   294.53536     -3239.422      -3256.44        17.018043      8879.4451      10112.159    
     58300   289.50625     -3240.6899     -3257.4173      16.727464      8724.4868      10112.159    
     58400   307.85358     -3240.6657     -3258.4532      17.78756       8998.0971      10112.159    
     58500   291.87702     -3240.5954     -3257.4598      16.864445      8822.8177      10112.159    
     58600   307.95379     -3239.6919     -3257.4852      17.79335       9080.7161      10112.159    
     58700   297.92155     -3238.913      -3256.1267      17.213694      9370.2127      10112.159    
     58800   307.81283     -3238.0904     -3255.8756      17.785205      9414.4219      10112.159    
     58900   303.7864      -3239.0274     -3256.58        17.552561      9115.0815      10112.159    
     59000   313.27015     -3240.3155     -3258.416       18.100525      8562.6362      10112.159    
     59100   289.77767     -3241.1561     -3257.8993      16.743147      8750.263       10112.159    
     59200   281.03298     -3241.004      -3257.2418      16.237885      8796.3681      10112.159    
     59300   304.8549      -3239.3661     -3256.9804      17.614298      9347.6366      10112.159    
     59400   312.4826      -3239.104      -3257.159       18.055021      9149.6934      10112.159    
     59500   306.21862     -3239.2977     -3256.9908      17.693093      9099.2735      10112.159    
     59600   301.24191     -3239.9835     -3257.389       17.405542      9164.3535      10112.159    
     59700   292.00629     -3241.4165     -3258.2884      16.871914      8494.1709      10112.159    
     59800   274.75018     -3241.5481     -3257.4229      15.874869      8991.6047      10112.159    
     59900   296.77808     -3240.8444     -3257.992       17.147625      8744.1442      10112.159    
     60000   294.6898      -3240.0576     -3257.0846      17.026966      8798.5438      10112.159    
     60100   295.59928     -3239.3262     -3256.4058      17.079515      8947.1446      10112.159    
     60200   312.91863     -3238.7669     -3256.8471      18.080215      8891.6052      10112.159    
     60300   309.09322     -3239.2702     -3257.1294      17.859185      8990.7237      10112.159    
     60400   283.43883     -3240.9859     -3257.3628      16.376893      8857.7652      10112.159    
     60500   289.28819     -3241.0319     -3257.7468      16.714865      8743.9572      10112.159    
     60600   293.61081     -3240.2015     -3257.1662      16.964622      8923.2033      10112.159    
     60700   316.43089     -3238.7041     -3256.9873      18.28315       9216.6773      10112.159    
     60800   320.39527     -3239.0996     -3257.6118      18.51221       8865.2519      10112.159    
     60900   285.07723     -3240.0266     -3256.4981      16.471559      8968.4617      10112.159    
     61000   314.79417     -3240.0322     -3258.2208      18.188582      8834.2093      10112.159    
     61100   283.52097     -3240.6866     -3257.0682      16.381639      8571.7793      10112.159    
     61200   321.78061     -3239.2611     -3257.8533      18.592254      8757.0489      10112.159    
     61300   299.95716     -3238.215      -3255.5463      17.33131       9528.5977      10112.159    
     61400   315.29561     -3238.2668     -3256.4844      18.217555      9440.4923      10112.159    
     61500   296.55483     -3239.9065     -3257.0413      17.134726      9078.5495      10112.159    
     61600   286.4626      -3240.1885     -3256.7401      16.551604      8691.2706      10112.159    
     61700   322.12534     -3239.6841     -3258.2963      18.612172      8523.7455      10112.159    
     61800   288.5254      -3240.2359     -3256.9067      16.670791      8870.0381      10112.159    
     61900   293.03094     -3240.4694     -3257.4006      16.931118      8790.0237      10112.159    
     62000   289.70926     -3240.3143     -3257.0535      16.739194      8777.6301      10112.159    
     62100   301.41163     -3239.3409     -3256.7562      17.415348      9081.5377      10112.159    
     62200   317.05592     -3238.525      -3256.8443      18.319264      9162.4036      10112.159    
     62300   299.97341     -3238.7763     -3256.1086      17.332249      9243.7793      10112.159    
     62400   297.95063     -3240.583      -3257.7984      17.215374      8638.5045      10112.159    
     62500   294.35573     -3241.1619     -3258.1696      17.007664      8943.8826      10112.159    
     62600   287.54979     -3240.6607     -3257.2751      16.614421      8562.9473      10112.159    
     62700   315.8696      -3239.4767     -3257.7275      18.25072       8943.7256      10112.159    
     62800   295.34587     -3239.4819     -3256.5467      17.064873      9119.6687      10112.159    
     62900   302.75448     -3239.4879     -3256.9808      17.492937      8819.3858      10112.159    
     63000   291.01824     -3240.1473     -3256.9622      16.814826      8772.7172      10112.159    
     63100   286.02678     -3241.9881     -3258.5146      16.526423      8734.2167      10112.159    
     63200   274.41595     -3242.382      -3258.2376      15.855557      7928.6889      10112.159    
     63300   305.7939      -3241.0229     -3258.6914      17.668553      8633.8666      10112.159    
     63400   282.02507     -3240.4408     -3256.736       16.295207      9048.8691      10112.159    
     63500   301.05307     -3239.451      -3256.8456      17.394631      9065.999       10112.159    
     63600   318.96155     -3239.1023     -3257.5316      18.42937       8981.921       10112.159    
     63700   310.71065     -3239.6248     -3257.5774      17.952639      9092.1306      10112.159    
     63800   281.63712     -3241.0365     -3257.3092      16.272791      9110.8464      10112.159    
     63900   289.98043     -3241.7255     -3258.4803      16.754862      8583.4473      10112.159    
     64000   295.71569     -3241.2429     -3258.3292      17.086241      8420.6151      10112.159    
     64100   298.02596     -3239.384      -3256.6038      17.219727      9069.4448      10112.159    
     64200   314.7542      -3239.0789     -3257.2652      18.186272      9322.4669      10112.159    
     64300   293.35239     -3239.9909     -3256.9405      16.949691      9151.1919      10112.159    
     64400   297.9703      -3240.477      -3257.6935      17.216511      8633.2674      10112.159    
     64500   290.5304      -3240.9306     -3257.7173      16.786639      8578.8855      10112.159    
     64600   289.30901     -3241.2943     -3258.0104      16.716068      8661.7102      10112.159    
     64700   295.36295     -3240.2592     -3257.325       17.06586       9079.2219      10112.159    
     64800   285.92829     -3239.3387     -3255.8595      16.520732      9083.6036      10112.159    
     64900   311.98023     -3238.7499     -3256.7759      18.025995      9061.4614      10112.159    
     65000   335.28862     -3238.9011     -3258.2739      19.372737      8881.2181      10112.159    
     65100   286.40961     -3240.8655     -3257.4141      16.548542      8848.2426      10112.159    
     65200   283.50311     -3240.8786     -3257.2592      16.380607      9011.3303      10112.159    
     65300   301.86814     -3240.0372     -3257.4789      17.441725      8986.2241      10112.159    
     65400   323.37613     -3238.9427     -3257.6271      18.684442      9145.045       10112.159    
     65500   299.23427     -3238.7521     -3256.0417      17.289542      9268.074       10112.159    
     65600   304.93772     -3239.4803     -3257.0993      17.619084      9095.3115      10112.159    
     65700   288.13642     -3240.9742     -3257.6225      16.648317      8881.3432      10112.159    
     65800   276.81933     -3241.3132     -3257.3076      15.994423      8784.5116      10112.159    
     65900   315.87446     -3240.1276     -3258.3786      18.251001      8761.0295      10112.159    
     66000   292.08236     -3239.4238     -3256.3001      16.87631       9089.0066      10112.159    
     66100   307.21385     -3238.9643     -3256.7149      17.750597      9109.6436      10112.159    
     66200   298.23925     -3239.379      -3256.611       17.23205       9299.7574      10112.159    
     66300   292.87348     -3239.8198     -3256.7418      16.92202       9256.8527      10112.159    
     66400   317.64665     -3239.6954     -3258.0488      18.353396      8603.5244      10112.159    
     66500   296.98587     -3240.2392     -3257.3989      17.159631      8817.62        10112.159    
     66600   287.87573     -3241.0198     -3257.653       16.633254      8904.089       10112.159    
     66700   277.72671     -3241.914      -3257.9608      16.04685       8864.0494      10112.159    
     66800   292.32257     -3241.2607     -3258.1509      16.890189      8830.8046      10112.159    
     66900   309.25514     -3239.6075     -3257.476       17.868541      8968.9693      10112.159    
     67000   299.40955     -3239.3387     -3256.6383      17.29967       9222.6705      10112.159    
     67100   306.46993     -3239.3648     -3257.0724      17.707613      9013.0067      10112.159    
     67200   293.80412     -3240.6413     -3257.6171      16.975792      8936.913       10112.159    
     67300   283.26946     -3241.3876     -3257.7547      16.367107      8725.1874      10112.159    
     67400   306.99706     -3240.5688     -3258.3069      17.73807       8915.0732      10112.159    
     67500   292.32554     -3240.1036     -3256.994       16.890361      8853.8085      10112.159    
     67600   286.60916     -3239.7626     -3256.3227      16.560072      9168.1488      10112.159    
     67700   299.83839     -3239.5574     -3256.8819      17.324448      8911.7585      10112.159    
     67800   316.26417     -3239.7251     -3257.9986      18.273518      8495.6022      10112.159    
     67900   289.36579     -3241.0088     -3257.7281      16.719348      8933.3721      10112.159    
     68000   268.08648     -3241.7079     -3257.1978      15.489845      8905.1858      10112.159    
     68100   299.18444     -3240.5365     -3257.8231      17.286663      9007.5729      10112.159    
     68200   312.4989      -3239.6694     -3257.7254      18.055963      8951.283       10112.159    
     68300   318.38593     -3239.2663     -3257.6624      18.396111      8689.6761      10112.159    
     68400   291.40317     -3239.5315     -3256.3686      16.837067      9349.7806      10112.159    
     68500   289.33861     -3240.089      -3256.8068      16.717778      8920.7147      10112.159    
     68600   284.79857     -3241.9173     -3258.3727      16.455458      8498.5524      10112.159    
     68700   275.24091     -3242.4618     -3258.3651      15.903223      8232.8623      10112.159    
     68800   288.34146     -3241.2345     -3257.8946      16.660164      9077.368       10112.159    
     68900   293.26309     -3240.1956     -3257.1402      16.944532      9007.8574      10112.159    
     69000   306.275       -3239.4617     -3257.158       17.69635       8841.2617      10112.159    
     69100   317.97683     -3239.0628     -3257.4353      18.372474      8963.2934      10112.159    
     69200   285.32363     -3239.6188     -3256.1045      16.485795      9408.1039      10112.159    
     69300   289.85626     -3241.3646     -3258.1122      16.747687      8650.5974      10112.159    
     69400   299.34284     -3241.4651     -3258.7609      17.295815      8392.5113      10112.159    
     69500   299.32179     -3240.2761     -3257.5707      17.294599      8760.5527      10112.159    
     69600   294.93633     -3239.7102     -3256.7514      17.04121       8980.7653      10112.159    
     69700   320.23977     -3239.606      -3258.1092      18.503225      8802.9527      10112.159    
     69800   297.22994     -3240.1718     -3257.3456      17.173733      8881.5052      10112.159    
     69900   283.86046     -3240.35       -3256.7512      16.401254      8950.4149      10112.159    
     70000   296.07158     -3240.4078     -3257.5146      17.106804      8911.7724      10112.159    
     70100   310.56101     -3239.9266     -3257.8706      17.943993      8524.1573      10112.159    
     70200   297.26699     -3239.3163     -3256.4922      17.175874      9132.9238      10112.159    
     70300   300.61424     -3238.5661     -3255.9354      17.369276      9296.9779      10112.159    
     70400   307.40593     -3238.9975     -3256.7592      17.761695      9101.7973      10112.159    
     70500   299.83057     -3240.7007     -3258.0247      17.323996      8862.8253      10112.159    
     70600   283.82339     -3241.1958     -3257.5949      16.399113      8728.053       10112.159    
     70700   302.97506     -3240.2635     -3257.7691      17.505682      8480.8834      10112.159    
     70800   305.82769     -3239.4097     -3257.0802      17.670505      9454.7225      10112.159    
     70900   303.83302     -3239.4236     -3256.9788      17.555255      9044.1163      10112.159    
     71000   298.56658     -3240.0502     -3257.3011      17.250964      8699.9372      10112.159    
     71100   293.96366     -3240.2739     -3257.2589      16.98501       9243.7368      10112.159    
     71200   295.32671     -3240.0434     -3257.1071      17.063766      8952.1668      10112.159    
     71300   311.86966     -3239.0166     -3257.0362      18.019606      8882.773       10112.159    
     71400   307.77918     -3237.5053     -3255.2885      17.783261      9824.2514      10112.159    
     71500   311.40019     -3238.1774     -3256.1699      17.99248       9128.4934      10112.159    
     71600   317.97346     -3239.4788     -3257.851       18.372279      9045.7503      10112.159    
     71700   285.10932     -3240.4533     -3256.9267      16.473412      8858.259       10112.159    
     71800   286.287       -3240.4137     -3256.9551      16.541458      8861.7668      10112.159    
     71900   324.57832     -3239.5527     -3258.3066      18.753903      8654.2297      10112.159    
     72000   297.37428     -3239.184      -3256.366       17.182073      9204.1475      10112.159    
     72100   310.55271     -3238.014      -3255.9575      17.943513      9290.2693      10112.159    
     72200   306.19683     -3238.2816     -3255.9734      17.691834      9277.8398      10112.159    
     72300   306.31881     -3239.9293     -3257.6282      17.698882      8723.97        10112.159    
     72400   300.12676     -3240.4784     -3257.8195      17.341109      8849.2153      10112.159    
     72500   296.14039     -3240.4625     -3257.5733      17.11078       8678.5509      10112.159    
     72600   301.06745     -3239.8221     -3257.2176      17.395462      8730.9492      10112.159    
     72700   309.1847      -3238.2893     -3256.1538      17.864471      9495.7796      10112.159    
     72800   323.09431     -3237.8618     -3256.5299      18.668158      9570.7957      10112.159    
     72900   304.51435     -3239.2919     -3256.8865      17.594622      8940.1665      10112.159    
     73000   301.51521     -3239.687      -3257.1083      17.421333      8987.5281      10112.159    
     73100   295.17705     -3239.9758     -3257.0309      17.055119      8730.1368      10112.159    
     73200   295.71503     -3240.2901     -3257.3763      17.086203      8780.7729      10112.159    
     73300   299.79558     -3240.3871     -3257.7091      17.321974      8659.1882      10112.159    
     73400   303.33477     -3239.9945     -3257.521       17.526466      9042.9665      10112.159    
     73500   304.23933     -3239.0825     -3256.6612      17.578731      9378.2624      10112.159    
     73600   305.37979     -3238.4676     -3256.1122      17.644626      9168.3813      10112.159    
     73700   295.80881     -3238.8898     -3255.9815      17.091621      9109.0375      10112.159    
     73800   305.62189     -3240.3941     -3258.0527      17.658614      8799.5427      10112.159    
     73900   291.64129     -3241.1874     -3258.0382      16.850825      8512.8693      10112.159    
     74000   288.57499     -3240.8858     -3257.5594      16.673657      8889.6501      10112.159    
     74100   294.51563     -3239.7873     -3256.8042      17.016902      9605.0343      10112.159    
     74200   321.02184     -3238.4505     -3256.9989      18.548412      9300.4365      10112.159    
     74300   305.73881     -3238.8931     -3256.5584      17.66537       9062.4917      10112.159    
     74400   308.99569     -3239.403      -3257.2566      17.85355       8978.96        10112.159    
     74500   288.3091      -3240.6453     -3257.3036      16.658293      8856.6613      10112.159    
     74600   297.15375     -3240.8375     -3258.0069      17.169331      8535.5119      10112.159    
     74700   292.38433     -3240.6061     -3257.4998      16.893757      8567.3953      10112.159    
     74800   297.97423     -3239.7292     -3256.9459      17.216738      9290.4923      10112.159    
     74900   309.84837     -3239.4152     -3257.318       17.902817      8811.4832      10112.159    
     75000   299.87484     -3239.7178     -3257.0444      17.326554      8652.3714      10112.159    
     75100   302.70762     -3240.0821     -3257.5724      17.49023       8895.2141      10112.159    
     75200   292.31706     -3240.892      -3257.7818      16.88987       8645.1097      10112.159    
     75300   280.65748     -3241.4306     -3257.6468      16.216189      8823.7162      10112.159    
     75400   316.91196     -3240.271      -3258.5819      18.310947      8616.9689      10112.159    
[...]
    281800   294.66055     -3240.8161     -3257.8414      17.025276      8940.9318      10112.159    
    281900   305.28697     -3239.841      -3257.4803      17.639263      8963.9287      10112.159    
    282000   302.19698     -3239.1947     -3256.6554      17.460725      9579.9388      10112.159    
    282100   291.28128     -3239.5221     -3256.3521      16.830024      9394.2711      10112.159    
    282200   315.80025     -3239.5762     -3257.8229      18.246713      8603.3205      10112.159    
    282300   286.0795      -3240.3738     -3256.9032      16.529469      9087.8323      10112.159    
    282400   288.47501     -3241.1652     -3257.8331      16.66788       9042.6705      10112.159    
    282500   291.48626     -3242.045      -3258.8868      16.841868      8419.9031      10112.159    
    282600   286.00337     -3241.3107     -3257.8358      16.52507       8476.7446      10112.159    
    282700   300.8091      -3239.6901     -3257.0706      17.380535      8861.3409      10112.159    
    282800   296.67197     -3239.4725     -3256.614       17.141494      9467.0288      10112.159    
    282900   305.53839     -3239.568      -3257.2218      17.653789      8633.3956      10112.159    
    283000   306.14013     -3239.9873     -3257.6758      17.688558      8592.535       10112.159    
    283100   276.31786     -3241.137      -3257.1025      15.965448      8868.0354      10112.159    
    283200   293.29015     -3241.2708     -3258.2169      16.946095      8641.1989      10112.159    
    283300   308.29769     -3239.9662     -3257.7795      17.81322       8720.3148      10112.159    
    283400   291.97712     -3238.9323     -3255.8026      16.870229      9478.8367      10112.159    
    283500   298.35478     -3238.8542     -3256.0929      17.238726      9472.9283      10112.159    
    283600   313.23906     -3239.4378     -3257.5366      18.098729      8912.0492      10112.159    
    283700   297.38984     -3240.0836     -3257.2666      17.182972      9054.6789      10112.159    
    283800   306.00367     -3240.1963     -3257.8769      17.680673      8672.231       10112.159    
    283900   284.444       -3240.0884     -3256.5234      16.434971      8756.1513      10112.159    
    284000   311.68794     -3239.5528     -3257.5619      18.009106      9087.4777      10112.159    
    284100   300.19339     -3239.914      -3257.259       17.344959      9022.4148      10112.159    
    284200   306.72044     -3239.6771     -3257.3992      17.722088      8464.8537      10112.159    
    284300   292.17192     -3239.6203     -3256.5018      16.881485      9103.6987      10112.159    
    284400   303.4061      -3239.8644     -3257.395       17.530587      9229.5054      10112.159    
    284500   281.82497     -3241.044      -3257.3277      16.283645      8790.9905      10112.159    
    284600   309.65715     -3240.6711     -3258.5629      17.891769      8511.5455      10112.159    
    284700   280.84213     -3240.097      -3256.3239      16.226858      9252.0791      10112.159    
    284800   315.69177     -3238.5948     -3256.8352      18.240445      9136.7362      10112.159    
    284900   329.57923     -3238.4505     -3257.4933      19.042852      8777.5327      10112.159    
    285000   290.79808     -3239.1892     -3255.9913      16.802105      8980.2862      10112.159    
    285100   316.53714     -3239.4639     -3257.7532      18.28929       8764.6812      10112.159    
    285200   295.77654     -3240.4713     -3257.561       17.089757      8885.1592      10112.159    
    285300   311.48238     -3240.2828     -3258.28        17.997229      8376.5739      10112.159    
    285400   295.20713     -3240.0698     -3257.1267      17.056857      8942.5543      10112.159    
    285500   306.96834     -3238.367      -3256.1034      17.736411      9503.9539      10112.159    
    285600   314.96914     -3237.795      -3255.9937      18.198692      9089.9802      10112.159    
    285700   303.26857     -3239.1415     -3256.6641      17.522641      8948.1452      10112.159    
    285800   301.72048     -3239.9366     -3257.3698      17.433194      8594.8309      10112.159    
    285900   291.40563     -3240.5019     -3257.3391      16.837209      8838.8887      10112.159    
    286000   298.25502     -3240.4525     -3257.6855      17.232962      8740.1908      10112.159    
    286100   299.28438     -3239.0177     -3256.3102      17.292437      9084.733       10112.159    
    286200   324.01964     -3237.9056     -3256.6272      18.721623      9226.1284      10112.159    
    286300   307.98299     -3238.6334     -3256.4285      17.795037      8605.3266      10112.159    
    286400   304.78551     -3239.8981     -3257.5084      17.610289      8965.5671      10112.159    
    286500   283.86129     -3240.6247     -3257.026       16.401302      8908.4037      10112.159    
    286600   310.01171     -3239.9917     -3257.904       17.912255      8685.3772      10112.159    
    286700   300.38864     -3239.7646     -3257.1208      17.356241      8997.0809      10112.159    
    286800   302.11199     -3239.7467     -3257.2025      17.455815      8850.5486      10112.159    
    286900   297.08305     -3240.1475     -3257.3127      17.165246      8977.8323      10112.159    
    287000   283.05079     -3240.6703     -3257.0248      16.354472      8804.038       10112.159    
    287100   303.33513     -3240.3451     -3257.8716      17.526487      8412.1605      10112.159    
    287200   305.71924     -3239.5509     -3257.2151      17.664239      8813.728       10112.159    
    287300   304.0928      -3238.6696     -3256.2398      17.570264      9118.3346      10112.159    
    287400   308.75846     -3238.4932     -3256.3331      17.839843      9076.464       10112.159    
    287500   300.63472     -3239.7947     -3257.1651      17.370459      9296.8927      10112.159    
    287600   294.65079     -3240.7724     -3257.7971      17.024712      8637.0993      10112.159    
    287700   291.34293     -3240.6855     -3257.5191      16.833586      8581.9838      10112.159    
    287800   311.5463      -3239.5678     -3257.5687      18.000922      8418.1139      10112.159    
    287900   318.28755     -3238.5362     -3256.9266      18.390427      8815.9748      10112.159    
    288000   319.12491     -3238.5247     -3256.9635      18.438809      8961.6124      10112.159    
    288100   281.74826     -3240.7389     -3257.0181      16.279213      8698.3698      10112.159    
    288200   283.30554     -3241.0365     -3257.4057      16.369192      8709.5095      10112.159    
    288300   310.92578     -3240.1615     -3258.1266      17.965069      8740.1392      10112.159    
    288400   314.59761     -3239.1616     -3257.3388      18.177225      8835.8389      10112.159    
    288500   299.96824     -3238.9085     -3256.2404      17.33195       9296.4597      10112.159    
    288600   292.76935     -3239.8279     -3256.7439      16.916004      9191.6471      10112.159    
    288700   279.96704     -3241.6225     -3257.7988      16.176296      8634.1601      10112.159    
    288800   300.1568      -3241.1317     -3258.4746      17.342845      8621.084       10112.159    
    288900   318.38733     -3239.9705     -3258.3667      18.396192      8717.6284      10112.159    
    289000   302.96126     -3239.3928     -3256.8977      17.504885      8874.6427      10112.159    
    289100   287.00543     -3239.5056     -3256.0886      16.582968      8988.1769      10112.159    
    289200   298.00271     -3239.7632     -3256.9816      17.218383      9193.8661      10112.159    
    289300   295.97734     -3240.3345     -3257.4359      17.101359      9133.1063      10112.159    
    289400   292.67482     -3242.2328     -3259.1433      16.910542      8278.7618      10112.159    
    289500   272.88508     -3242.3068     -3258.0739      15.767105      8521.3818      10112.159    
    289600   299.44925     -3240.8248     -3258.1268      17.301964      8733.8926      10112.159    
    289700   289.6726      -3240.0424     -3256.7795      16.737076      9152.8597      10112.159    
    289800   299.18872     -3239.3013     -3256.5883      17.28691       9175.2211      10112.159    
    289900   308.15898     -3239.1936     -3256.9988      17.805206      8865.3739      10112.159    
    290000   305.77319     -3240.2774     -3257.9448      17.667356      8772.9713      10112.159    
    290100   286.32917     -3241.517      -3258.0609      16.543895      8549.6754      10112.159    
    290200   281.28221     -3241.1623     -3257.4146      16.252285      9025.8585      10112.159    
    290300   295.57089     -3239.8972     -3256.9751      17.077875      9080.2119      10112.159    
    290400   318.60239     -3239.2744     -3257.683       18.408618      8988.0437      10112.159    
    290500   311.59277     -3239.5299     -3257.5335      18.003607      8829.36        10112.159    
    290600   290.05988     -3240.0026     -3256.762       16.759452      9298.6285      10112.159    
    290700   289.48942     -3240.4849     -3257.2114      16.726492      9011.1717      10112.159    
    290800   280.81472     -3241.5752     -3257.8005      16.225274      8753.3413      10112.159    
    290900   296.34256     -3241.3361     -3258.4586      17.122461      8713.9938      10112.159    
    291000   298.37657     -3239.6565     -3256.8965      17.239985      8929.0739      10112.159    
    291100   309.72486     -3238.794      -3256.6897      17.895681      9392.4357      10112.159    
    291200   288.0685      -3239.402      -3256.0464      16.644392      9145.7544      10112.159    
    291300   311.79245     -3240.0725     -3258.0877      18.015145      8953.3218      10112.159    
    291400   290.94611     -3241.2252     -3258.0359      16.810658      8809.9916      10112.159    
    291500   284.83141     -3241.076      -3257.5333      16.457355      8539.3608      10112.159    
    291600   308.4204      -3238.8484     -3256.6687      17.82031       9250.6059      10112.159    
    291700   319.83285     -3238.5076     -3256.9873      18.479713      9182.89        10112.159    
    291800   298.5016      -3239.4727     -3256.7199      17.247209      9091.1051      10112.159    
    291900   297.26043     -3240.4421     -3257.6176      17.175495      8685.0983      10112.159    
    292000   300.39112     -3240.9744     -3258.3307      17.356384      8677.6617      10112.159    
    292100   290.68233     -3240.7161     -3257.5116      16.795417      8584.4225      10112.159    
    292200   309.30118     -3238.7298     -3256.601       17.871201      8976.0556      10112.159    
    292300   295.52738     -3238.8563     -3255.9317      17.075361      9390.2969      10112.159    
    292400   307.23458     -3239.8833     -3257.6351      17.751794      9317.478       10112.159    
    292500   299.80581     -3240.7173     -3258.0398      17.322565      8513.5977      10112.159    
    292600   298.51485     -3240.6278     -3257.8758      17.247975      8707.0571      10112.159    
    292700   295.78357     -3239.9181     -3257.0082      17.090163      8772.1384      10112.159    
    292800   320.00868     -3238.1073     -3256.5972      18.489873      9283.1331      10112.159    
    292900   295.24626     -3238.6248     -3255.6839      17.059118      9258.2345      10112.159    
    293000   300.85585     -3239.4476     -3256.8308      17.383236      9225.2835      10112.159    
    293100   304.82252     -3240.3095     -3257.9219      17.612427      9064.3538      10112.159    
    293200   289.81068     -3240.9489     -3257.6939      16.745054      8665.8141      10112.159    
    293300   307.2422      -3240.134      -3257.8862      17.752234      8918.8247      10112.159    
    293400   293.14425     -3238.5216     -3255.4593      16.937665      9574.4463      10112.159    
    293500   324.83757     -3238.2918     -3257.0606      18.768882      8996.5054      10112.159    
    293600   315.27844     -3239.3213     -3257.5379      18.216563      9132.7264      10112.159    
    293700   295.64458     -3240.4328     -3257.515       17.082132      9082.3703      10112.159    
    293800   304.32256     -3240.4725     -3258.056       17.58354       8817.5717      10112.159    
    293900   262.82835     -3240.5195     -3255.7055      15.186034      9273.3363      10112.159    
    294000   325.7651      -3238.7192     -3257.5417      18.822475      9104.9672      10112.159    
    294100   310.50132     -3238.8419     -3256.7824      17.940544      9208.4192      10112.159    
    294200   301.02791     -3239.4778     -3256.871       17.393177      8899.4936      10112.159    
    294300   294.45793     -3240.8254     -3257.839       17.013569      9007.719       10112.159    
    294400   274.35064     -3242.0585     -3257.9103      15.851784      8705.6377      10112.159    
    294500   298.47407     -3241.4855     -3258.7311      17.245618      8497.7712      10112.159    
    294600   291.59504     -3240.5922     -3257.4403      16.848153      8990.8494      10112.159    
    294700   291.92941     -3239.6008     -3256.4682      16.867473      9459.6473      10112.159    
    294800   296.6325      -3239.4555     -3256.5948      17.139214      9344.3893      10112.159    
    294900   295.2536      -3240.0535     -3257.113       17.059542      8826.9066      10112.159    
    295000   326.84669     -3240.3291     -3259.214       18.884968      8523.7508      10112.159    
    295100   273.01673     -3241.6762     -3257.4509      15.774711      8983.4251      10112.159    
    295200   278.91328     -3241.4222     -3257.5376      16.11541       8870.5413      10112.159    
    295300   295.16756     -3239.9238     -3256.9783      17.05457       9000.3763      10112.159    
    295400   307.95429     -3239.3418     -3257.1352      17.793379      9169.9221      10112.159    
    295500   297.48898     -3239.6332     -3256.8219      17.188701      9067.6604      10112.159    
    295600   287.93561     -3240.1937     -3256.8304      16.636714      9015.7925      10112.159    
    295700   298.06202     -3241.2916     -3258.5134      17.22181       8865.2354      10112.159    
    295800   268.72807     -3242.3741     -3257.901       15.526916      8430.2057      10112.159    
    295900   297.56682     -3241.042      -3258.2352      17.193198      8383.6468      10112.159    
    296000   293.42887     -3240.067      -3257.0211      16.95411       8791.366       10112.159    
    296100   290.97019     -3239.5908     -3256.4028      16.812049      9006.9794      10112.159    
    296200   311.09994     -3239.4583     -3257.4334      17.975132      8745.08        10112.159    
    296300   296.43411     -3240.4685     -3257.5963      17.127751      8758.1645      10112.159    
    296400   288.88022     -3241.6088     -3258.3001      16.691293      8665.9125      10112.159    
    296500   284.52581     -3241.3511     -3257.7908      16.439698      8608.1286      10112.159    
    296600   286.83133     -3239.3906     -3255.9635      16.572909      9194.4239      10112.159    
    296700   326.95064     -3239.0882     -3257.9792      18.890974      9094.1449      10112.159    
    296800   292.79748     -3240.0195     -3256.9371      16.917629      9069.6795      10112.159    
    296900   303.76752     -3240.1635     -3257.715       17.55147       8618.2571      10112.159    
    297000   283.74687     -3240.9306     -3257.3252      16.394691      9039.5209      10112.159    
    297100   279.35112     -3241.4286     -3257.5693      16.140708      8845.8954      10112.159    
    297200   304.11365     -3240.3062     -3257.8776      17.571469      8711.976       10112.159    
    297300   302.76566     -3239.0187     -3256.5123      17.493583      9248.423       10112.159    
    297400   316.67498     -3238.9033     -3257.2005      18.297254      9217.8318      10112.159    
    297500   289.58111     -3239.9386     -3256.6704      16.731789      9094.5467      10112.159    
    297600   315.56057     -3240.0032     -3258.2361      18.232864      8859.3001      10112.159    
    297700   287.20584     -3240.2332     -3256.8278      16.594548      8919.1927      10112.159    
    297800   294.29253     -3239.7662     -3256.7702      17.004012      9252.5942      10112.159    
    297900   308.76186     -3239.6725     -3257.5126      17.840039      8808.4925      10112.159    
    298000   308.98635     -3239.7642     -3257.6172      17.85301       8825.2564      10112.159    
    298100   305.41831     -3239.8672     -3257.514       17.646852      8834.9529      10112.159    
    298200   289.25499     -3240.2057     -3256.9187      16.712946      9351.7392      10112.159    
    298300   283.95168     -3240.4629     -3256.8695      16.406525      8839.8268      10112.159    
    298400   297.39571     -3240.5667     -3257.75        17.183312      8407.3346      10112.159    
    298500   297.79421     -3239.9723     -3257.1787      17.206336      9045.0363      10112.159    
    298600   303.24305     -3239.1927     -3256.7138      17.521167      9178.1782      10112.159    
    298700   305.37373     -3239.3327     -3256.977       17.644276      9071.3216      10112.159    
    298800   300.79608     -3240.1358     -3257.5155      17.379782      9148.1236      10112.159    
    298900   291.83052     -3241.3256     -3258.1873      16.861759      8585.3895      10112.159    
    299000   278.29705     -3241.6016     -3257.6814      16.079804      8467.6876      10112.159    
    299100   305.11187     -3239.872      -3257.5012      17.629146      8740.9477      10112.159    
    299200   301.33386     -3239.2603     -3256.6711      17.410855      9177.5779      10112.159    
    299300   304.02973     -3239.3227     -3256.8894      17.56662       8927.0082      10112.159    
    299400   304.31857     -3240.0917     -3257.675       17.583309      8995.9727      10112.159    
    299500   271.98415     -3241.5159     -3257.2309      15.71505       8581.0179      10112.159    
    299600   302.01689     -3240.9734     -3258.4237      17.45032       8708.0357      10112.159    
    299700   292.41567     -3240.5421     -3257.4377      16.895568      8722.1281      10112.159    
    299800   296.2876      -3239.8681     -3256.9874      17.119286      8910.5376      10112.159    
    299900   318.65816     -3239.2614     -3257.6732      18.411841      9128.3358      10112.159    
    300000   293.70003     -3239.8792     -3256.849       16.969778      8871.8913      10112.159    
Loop time of 2291.44 on 20 procs for 300000 steps with 448 atoms

Performance: 11.312 ns/day, 2.122 hours/ns, 130.922 timesteps/s, 58.653 katom-step/s
99.9% CPU use with 20 MPI tasks x 1 OpenMP threads

MPI task timing breakdown:
Section |  min time  |  avg time  |  max time  |%varavg| %total
---------------------------------------------------------------
Pair    | 1721.8     | 1997.3     | 2187.3     | 399.0 | 87.16
Neigh   | 20.051     | 27.203     | 34.902     | 104.5 |  1.19
Comm    | 65.863     | 263.81     | 546.56     |1130.7 | 11.51
Output  | 0.35376    | 0.55961    | 0.62574    |   7.3 |  0.02
Modify  | 2.1363     | 2.2999     | 2.496      |   6.3 |  0.10
Other   |            | 0.2797     |            |       |  0.01

Nlocal:           22.4 ave          25 max          17 min
Histogram: 1 2 0 2 0 0 1 4 9 1
Nghost:          496.7 ave         524 max         465 min
Histogram: 4 0 0 5 3 0 0 0 3 5
Neighs:              0 ave           0 max           0 min
Histogram: 20 0 0 0 0 0 0 0 0 0
FullNghs:       1284.4 ave        1461 max         970 min
Histogram: 1 2 0 2 0 1 1 3 9 1

Total # of neighbors = 25688
Ave neighs/atom = 57.339286
Neighbor list builds = 300000
Dangerous builds not checked
Total wall time: 0:38:11
