ITEM: TIMESTEP
0
ITEM: NUMBER OF ATOMS
21
ITEM: BOX BOUNDS pp ss pp
0.0000000000000000e+00 2.2653923264628304e+01
2.1917670042342338e-01 2.0501971366646707e+01
-2.8317404080785380e-01 2.8317404080785380e-01
ITEM: ATOMS id type xs ys zs
379 3 0.45041 0.851482 0.5
380 3 0.475477 0.898968 0.5
381 3 0.50046 0.851732 0.5
382 3 0.525593 0.899425 0.5
383 3 0.550425 0.851859 0.5
384 3 0.575456 0.899708 0.5
385 3 0.600264 0.851629 0.5
386 3 0.625738 0.898456 0.5
387 3 0.650397 0.851048 0.5
388 3 0.675692 0.898108 0.5
389 3 0.700432 0.850803 0.5
390 3 0.725591 0.897979 0.5
391 3 0.750412 0.850707 0.5
392 3 0.77549 0.897943 0.5
410 3 0.450346 0.94618 0.5
411 3 0.500774 0.946892 0.5
412 3 0.617995 0.999903 0.5
413 3 0.601707 0.946317 0.5
414 3 0.651218 0.945736 0.5
415 3 0.700887 0.945515 0.5
416 3 0.75066 0.945437 0.5
ITEM: TIMESTEP
10
ITEM: NUMBER OF ATOMS
21
ITEM: BOX BOUNDS pp ss pp
0.0000000000000000e+00 2.2653923264628304e+01
2.1917670042342338e-01 2.0501971366646707e+01
-2.8317404080785380e-01 2.8317404080785380e-01
ITEM: ATOMS id type xs ys zs
379 3 0.450418 0.851486 0.5
380 3 0.475374 0.898855 0.5
381 3 0.50046 0.851696 0.5
382 3 0.525519 0.899247 0.5
383 3 0.550453 0.851797 0.5
384 3 0.575627 0.899363 0.5
385 3 0.600375 0.851639 0.5
386 3 0.625815 0.898792 0.5
387 3 0.650399 0.851174 0.5
388 3 0.675516 0.898477 0.5
389 3 0.700384 0.850916 0.5
390 3 0.725546 0.89804 0.5
391 3 0.750404 0.850732 0.5
392 3 0.775489 0.897957 0.5
410 3 0.450194 0.946212 0.5
411 3 0.500043 0.946542 0.5
412 3 0.619269 0.997359 0.5
413 3 0.601327 0.946353 0.5
414 3 0.650705 0.946976 0.5
415 3 0.700726 0.945636 0.5
416 3 0.75063 0.945456 0.5
ITEM: TIMESTEP
20
ITEM: NUMBER OF ATOMS
21
ITEM: BOX BOUNDS pp ss pp
0.0000000000000000e+00 2.2653923264628304e+01
2.1917670042342338e-01 2.0392271993279323e+01
-2.8317404080785380e-01 2.8317404080785380e-01
ITEM: ATOMS id type xs ys zs
379 3 0.450316 0.855996 0.5
380 3 0.47515 0.903563 0.5
381 3 0.50039 0.856225 0.5
382 3 0.525353 0.904015 0.5
383 3 0.550363 0.856205 0.5
384 3 0.575388 0.903709 0.5
385 3 0.600467 0.856211 0.5
386 3 0.6257 0.903801 0.5
387 3 0.650414 0.856033 0.5
388 3 0.675321 0.903815 0.5
389 3 0.700261 0.85585 0.5
390 3 0.725355 0.903211 0.5
391 3 0.750288 0.85553 0.5
392 3 0.77539 0.902932 0.5
410 3 0.449903 0.951241 0.5
411 3 0.499654 0.951462 0.5
412 3 0.622763 0.999902 0.5
413 3 0.600482 0.950966 0.5
414 3 0.650283 0.952359 0.5
415 3 0.700457 0.951221 0.5
416 3 0.7505 0.950732 0.5
ITEM: TIMESTEP
30
ITEM: NUMBER OF ATOMS
21
ITEM: BOX BOUNDS pp ss pp
0.0000000000000000e+00 2.2653923264628304e+01
2.1917670042342338e-01 2.0392271993279323e+01
-2.8317404080785380e-01 2.8317404080785380e-01
ITEM: ATOMS id type xs ys zs
379 3 0.450188 0.85588 0.5
380 3 0.474981 0.903424 0.5
381 3 0.500264 0.856098 0.5
382 3 0.525189 0.90388 0.5
383 3 0.55025 0.856111 0.5
384 3 0.575264 0.903698 0.5
385 3 0.600317 0.856083 0.5
386 3 0.625505 0.903524 0.5
387 3 0.650344 0.855951 0.5
388 3 0.675381 0.903531 0.5
389 3 0.700273 0.855848 0.5
390 3 0.725322 0.903322 0.5
391 3 0.750242 0.855659 0.5
392 3 0.775321 0.903077 0.5
410 3 0.449731 0.95112 0.5
411 3 0.499459 0.951309 0.5
412 3 0.625036 0.99905 0.5
413 3 0.600636 0.951033 0.5
414 3 0.650509 0.95135 0.5
415 3 0.700413 0.951234 0.5
416 3 0.750435 0.950903 0.5
ITEM: TIMESTEP
40
ITEM: NUMBER OF ATOMS
21
ITEM: BOX BOUNDS pp ss pp
0.0000000000000000e+00 2.2653923264628304e+01
2.1917670042342338e-01 2.0392271993279323e+01
-2.8317404080785380e-01 2.8317404080785380e-01
ITEM: ATOMS id type xs ys zs
379 3 0.450121 0.855817 0.5
380 3 0.474903 0.903356 0.5
381 3 0.500207 0.856052 0.5
382 3 0.525132 0.903842 0.5
383 3 0.550213 0.856112 0.5
384 3 0.575263 0.903759 0.5
385 3 0.600255 0.85604 0.5
386 3 0.625502 0.903391 0.5
387 3 0.650323 0.855843 0.5
388 3 0.675449 0.903322 0.5
389 3 0.700307 0.855748 0.5
390 3 0.725361 0.903258 0.5
391 3 0.750267 0.855646 0.5
392 3 0.775329 0.903103 0.5
410 3 0.449645 0.951049 0.5
411 3 0.499362 0.951242 0.5
412 3 0.625834 0.998884 0.5
413 3 0.600865 0.951081 0.5
414 3 0.650685 0.951002 0.5
415 3 0.700463 0.951105 0.5
416 3 0.750435 0.950905 0.5
ITEM: TIMESTEP
50
ITEM: NUMBER OF ATOMS
21
ITEM: BOX BOUNDS pp ss pp
0.0000000000000000e+00 2.2653923264628304e+01
2.1917670042342338e-01 2.0392271993279323e+01
-2.8317404080785380e-01 2.8317404080785380e-01
ITEM: ATOMS id type xs ys zs
379 3 0.450084 0.855783 0.5
380 3 0.474863 0.903321 0.5
381 3 0.500181 0.856031 0.5
382 3 0.525108 0.903828 0.5
383 3 0.5502 0.856116 0.5
384 3 0.575275 0.903788 0.5
385 3 0.600234 0.85602 0.5
386 3 0.625518 0.903329 0.5
387 3 0.650323 0.855783 0.5
388 3 0.675493 0.903215 0.5
389 3 0.700331 0.855681 0.5
390 3 0.725392 0.903202 0.5
391 3 0.75029 0.855616 0.5
392 3 0.775346 0.903094 0.5
410 3 0.449594 0.951007 0.5
411 3 0.499308 0.951209 0.5
412 3 0.626188 0.998819 0.5
413 3 0.600991 0.951098 0.5
414 3 0.650784 0.950853 0.5
415 3 0.700507 0.951024 0.5
416 3 0.750449 0.950878 0.5
ITEM: TIMESTEP
60
ITEM: NUMBER OF ATOMS
21
ITEM: BOX BOUNDS pp ss pp
0.0000000000000000e+00 2.2653923264628304e+01
2.1917670042342338e-01 2.0392271993279323e+01
-2.8317404080785380e-01 2.8317404080785380e-01
ITEM: ATOMS id type xs ys zs
379 3 0.450057 0.855756 0.5
380 3 0.474833 0.903294 0.5
381 3 0.500163 0.856017 0.5
382 3 0.525093 0.903819 0.5
383 3 0.550192 0.856117 0.5
384 3 0.575287 0.903804 0.5
385 3 0.600225 0.856004 0.5
386 3 0.625537 0.903285 0.5
387 3 0.650327 0.855738 0.5
388 3 0.675528 0.90314 0.5
389 3 0.700351 0.855629 0.5
390 3 0.725419 0.903154 0.5
391 3 0.750311 0.855586 0.5
392 3 0.775364 0.903076 0.5
410 3 0.449554 0.950974 0.5
411 3 0.499266 0.951185 0.5
412 3 0.626413 0.998776 0.5
413 3 0.601079 0.951104 0.5
414 3 0.650855 0.950757 0.5
415 3 0.700544 0.950962 0.5
416 3 0.750466 0.950848 0.5
ITEM: TIMESTEP
70
ITEM: NUMBER OF ATOMS
21
ITEM: BOX BOUNDS pp ss pp
0.0000000000000000e+00 2.2653923264628304e+01
2.1917670042342338e-01 2.0392271993279323e+01
-2.8317404080785380e-01 2.8317404080785380e-01
ITEM: ATOMS id type xs ys zs
379 3 0.450031 0.855728 0.5
380 3 0.474804 0.903265 0.5
381 3 0.500147 0.856001 0.5
382 3 0.52508 0.903807 0.5
383 3 0.550187 0.856115 0.5
384 3 0.575298 0.90381 0.5
385 3 0.600221 0.855986 0.5
386 3 0.625557 0.903244 0.5
387 3 0.650335 0.855696 0.5
388 3 0.675561 0.903073 0.5
389 3 0.700372 0.855578 0.5
390 3 0.725446 0.903104 0.5
391 3 0.750332 0.85555 0.5
392 3 0.775383 0.903049 0.5
410 3 0.449514 0.95094 0.5
411 3 0.499226 0.951159 0.5
412 3 0.626589 0.998735 0.5
413 3 0.601153 0.9511 0.5
414 3 0.650916 0.950677 0.5
415 3 0.700581 0.950903 0.5
416 3 0.750484 0.950811 0.5
ITEM: TIMESTEP
80
ITEM: NUMBER OF ATOMS
21
ITEM: BOX BOUNDS pp ss pp
0.0000000000000000e+00 2.2653923264628304e+01
2.1917670042342338e-01 2.0392271993279323e+01
-2.8317404080785380e-01 2.8317404080785380e-01
ITEM: ATOMS id type xs ys zs
379 3 0.450016 0.855711 0.5
380 3 0.474789 0.903248 0.5
381 3 0.500137 0.85599 0.5
382 3 0.525072 0.903798 0.5
383 3 0.550183 0.856109 0.5
384 3 0.575303 0.903808 0.5
385 3 0.60022 0.855974 0.5
386 3 0.625567 0.903221 0.5
387 3 0.65034 0.855672 0.5
388 3 0.675577 0.903038 0.5
389 3 0.700382 0.85555 0.5
390 3 0.725461 0.903076 0.5
391 3 0.750344 0.855529 0.5
392 3 0.775394 0.903032 0.5
410 3 0.449492 0.950918 0.5
411 3 0.499204 0.951143 0.5
412 3 0.626664 0.998712 0.5
413 3 0.601187 0.951092 0.5
414 3 0.650945 0.950637 0.5
415 3 0.700599 0.950871 0.5
416 3 0.750495 0.950788 0.5
ITEM: TIMESTEP
90
ITEM: NUMBER OF ATOMS
21
ITEM: BOX BOUNDS pp ss pp
0.0000000000000000e+00 2.2653923264628304e+01
2.1917670042342338e-01 2.0392271993279323e+01
-2.8317404080785380e-01 2.8317404080785380e-01
ITEM: ATOMS id type xs ys zs
379 3 0.450003 0.855694 0.5
380 3 0.474775 0.903231 0.5
381 3 0.500129 0.855978 0.5
382 3 0.525065 0.903788 0.5
383 3 0.550179 0.856102 0.5
384 3 0.575306 0.903801 0.5
385 3 0.600218 0.855962 0.5
386 3 0.625574 0.903201 0.5
387 3 0.650343 0.855652 0.5
388 3 0.675589 0.90301 0.5
389 3 0.70039 0.855526 0.5
390 3 0.725471 0.903053 0.5
391 3 0.750353 0.855509 0.5
392 3 0.775402 0.903015 0.5
410 3 0.449473 0.950899 0.5
411 3 0.499186 0.951126 0.5
412 3 0.626715 0.998692 0.5
413 3 0.60121 0.951081 0.5
414 3 0.650964 0.950606 0.5
415 3 0.700612 0.950845 0.5
416 3 0.750503 0.950768 0.5
ITEM: TIMESTEP
100
ITEM: NUMBER OF ATOMS
21
ITEM: BOX BOUNDS pp ss pp
0.0000000000000000e+00 2.2653923264628304e+01
2.1917670042342338e-01 2.0392271993279323e+01
-2.8317404080785380e-01 2.8317404080785380e-01
ITEM: ATOMS id type xs ys zs
379 3 0.449995 0.855683 0.5
380 3 0.474766 0.903219 0.5
381 3 0.500124 0.85597 0.5
382 3 0.52506 0.90378 0.5
383 3 0.550177 0.856095 0.5
384 3 0.575307 0.903796 0.5
385 3 0.600217 0.855953 0.5
386 3 0.625578 0.903188 0.5
387 3 0.650345 0.855639 0.5
388 3 0.675594 0.902994 0.5
389 3 0.700394 0.855512 0.5
390 3 0.725476 0.903038 0.5
391 3 0.750358 0.855497 0.5
392 3 0.775406 0.903004 0.5
410 3 0.449462 0.950885 0.5
411 3 0.499174 0.951115 0.5
412 3 0.626738 0.998678 0.5
413 3 0.60122 0.951073 0.5
414 3 0.650974 0.950587 0.5
415 3 0.700619 0.950829 0.5
416 3 0.750506 0.950756 0.5
ITEM: TIMESTEP
110
ITEM: NUMBER OF ATOMS
21
ITEM: BOX BOUNDS pp ss pp
0.0000000000000000e+00 2.2653923264628304e+01
2.1917670042342338e-01 2.0392271993279323e+01
-2.8317404080785380e-01 2.8317404080785380e-01
ITEM: ATOMS id type xs ys zs
379 3 0.449987 0.855671 0.5
380 3 0.474758 0.903207 0.5
381 3 0.500118 0.85596 0.5
382 3 0.525055 0.903771 0.5
383 3 0.550174 0.856088 0.5
384 3 0.575306 0.903788 0.5
385 3 0.600216 0.855943 0.5
386 3 0.62558 0.903175 0.5
387 3 0.650346 0.855626 0.5
388 3 0.675598 0.902978 0.5
389 3 0.700397 0.855499 0.5
390 3 0.72548 0.903025 0.5
391 3 0.750361 0.855486 0.5
392 3 0.775409 0.902994 0.5
410 3 0.449451 0.950872 0.5
411 3 0.499164 0.951103 0.5
412 3 0.626756 0.998665 0.5
413 3 0.601228 0.951063 0.5
414 3 0.65098 0.950571 0.5
415 3 0.700623 0.950814 0.5
416 3 0.750509 0.950744 0.5
ITEM: TIMESTEP
120
ITEM: NUMBER OF ATOMS
21
ITEM: BOX BOUNDS pp ss pp
0.0000000000000000e+00 2.2653923264628304e+01
2.1917670042342338e-01 2.0392271993279323e+01
-2.8317404080785380e-01 2.8317404080785380e-01
ITEM: ATOMS id type xs ys zs
379 3 0.449981 0.855661 0.5
380 3 0.474752 0.903197 0.5
381 3 0.500114 0.855952 0.5
382 3 0.525051 0.903763 0.5
383 3 0.550171 0.856081 0.5
384 3 0.575305 0.903781 0.5
385 3 0.600214 0.855935 0.5
386 3 0.62558 0.903165 0.5
387 3 0.650346 0.855617 0.5
388 3 0.6756 0.902967 0.5
389 3 0.700399 0.855489 0.5
390 3 0.725481 0.903015 0.5
391 3 0.750363 0.855477 0.5
392 3 0.77541 0.902986 0.5
410 3 0.449444 0.950861 0.5
411 3 0.499156 0.951094 0.5
412 3 0.626765 0.998654 0.5
413 3 0.601232 0.951055 0.5
414 3 0.650984 0.950558 0.5
415 3 0.700625 0.950803 0.5
416 3 0.750509 0.950734 0.5
ITEM: TIMESTEP
125
ITEM: NUMBER OF ATOMS
21
ITEM: BOX BOUNDS pp ss pp
0.0000000000000000e+00 2.2653923264628304e+01
2.1917670042342338e-01 2.0392271993279323e+01
-2.8317404080785380e-01 2.8317404080785380e-01
ITEM: ATOMS id type xs ys zs
379 3 0.449979 0.855657 0.5
380 3 0.474749 0.903192 0.5
381 3 0.500112 0.855948 0.5
382 3 0.525049 0.903759 0.5
383 3 0.55017 0.856077 0.5
384 3 0.575304 0.903778 0.5
385 3 0.600213 0.855932 0.5
386 3 0.62558 0.903161 0.5
387 3 0.650346 0.855612 0.5
388 3 0.6756 0.902962 0.5
389 3 0.700399 0.855484 0.5
390 3 0.725482 0.90301 0.5
391 3 0.750363 0.855473 0.5
392 3 0.77541 0.902982 0.5
410 3 0.44944 0.950856 0.5
411 3 0.499153 0.951089 0.5
412 3 0.626768 0.99865 0.5
413 3 0.601233 0.951051 0.5
414 3 0.650985 0.950553 0.5
415 3 0.700625 0.950798 0.5
416 3 0.75051 0.95073 0.5
ITEM: TIMESTEP
130
ITEM: NUMBER OF ATOMS
21
ITEM: BOX BOUNDS pp ss pp
0.0000000000000000e+00 2.2653923264628304e+01
2.1917670042342338e-01 2.0367003763027920e+01
-2.8317404080785380e-01 2.8317404080785380e-01
ITEM: ATOMS id type xs ys zs
379 3 0.449977 0.856726 0.5
380 3 0.474747 0.904321 0.5
381 3 0.50011 0.857018 0.5
382 3 0.525048 0.904889 0.5
383 3 0.550168 0.857148 0.5
384 3 0.575304 0.904908 0.5
385 3 0.600212 0.857002 0.5
386 3 0.62558 0.904289 0.5
387 3 0.650346 0.856682 0.5
388 3 0.675601 0.90409 0.5
389 3 0.700399 0.856553 0.5
390 3 0.725482 0.904139 0.5
391 3 0.750364 0.856543 0.5
392 3 0.77541 0.904111 0.5
410 3 0.449438 0.952044 0.5
411 3 0.49915 0.952278 0.5
412 3 0.626771 0.999898 0.5
413 3 0.601234 0.95224 0.5
414 3 0.650985 0.95174 0.5
415 3 0.700626 0.951986 0.5
416 3 0.750509 0.951919 0.5
ITEM: TIMESTEP
140
ITEM: NUMBER OF ATOMS
21
ITEM: BOX BOUNDS pp ss pp
0.0000000000000000e+00 2.2653923264628304e+01
2.1917670042342338e-01 2.0367003763027920e+01
-2.8317404080785380e-01 2.8317404080785380e-01
ITEM: ATOMS id type xs ys zs
379 3 0.44997 0.856713 0.5
380 3 0.47474 0.904308 0.5
381 3 0.500105 0.857007 0.5
382 3 0.525042 0.904878 0.5
383 3 0.550164 0.857138 0.5
384 3 0.575301 0.904898 0.5
385 3 0.60021 0.856991 0.5
386 3 0.625579 0.904277 0.5
387 3 0.650344 0.85667 0.5
388 3 0.6756 0.904077 0.5
389 3 0.700399 0.856542 0.5
390 3 0.725482 0.904127 0.5
391 3 0.750364 0.856532 0.5
392 3 0.77541 0.904102 0.5
410 3 0.449429 0.95203 0.5
411 3 0.499142 0.952265 0.5
412 3 0.626775 0.999885 0.5
413 3 0.601235 0.952229 0.5
414 3 0.650986 0.951726 0.5
415 3 0.700625 0.951974 0.5
416 3 0.750508 0.951908 0.5
ITEM: TIMESTEP
150
ITEM: NUMBER OF ATOMS
21
ITEM: BOX BOUNDS pp ss pp
0.0000000000000000e+00 2.2653923264628304e+01
2.1917670042342338e-01 2.0367003763027920e+01
-2.8317404080785380e-01 2.8317404080785380e-01
ITEM: ATOMS id type xs ys zs
379 3 0.449966 0.856706 0.5
380 3 0.474736 0.9043 0.5
381 3 0.500102 0.857 0.5
382 3 0.525039 0.904871 0.5
383 3 0.550162 0.857131 0.5
384 3 0.575299 0.904891 0.5
385 3 0.600208 0.856984 0.5
386 3 0.625577 0.90427 0.5
387 3 0.650343 0.856663 0.5
388 3 0.675599 0.90407 0.5
389 3 0.700398 0.856535 0.5
390 3 0.725481 0.90412 0.5
391 3 0.750363 0.856526 0.5
392 3 0.775409 0.904096 0.5
410 3 0.449425 0.952022 0.5
411 3 0.499138 0.952257 0.5
412 3 0.626776 0.999878 0.5
413 3 0.601234 0.952222 0.5
414 3 0.650985 0.951718 0.5
415 3 0.700624 0.951967 0.5
416 3 0.750507 0.951902 0.5
ITEM: TIMESTEP
160
ITEM: NUMBER OF ATOMS
21
ITEM: BOX BOUNDS pp ss pp
0.0000000000000000e+00 2.2653923264628304e+01
2.1917670042342338e-01 2.0367003763027920e+01
-2.8317404080785380e-01 2.8317404080785380e-01
ITEM: ATOMS id type xs ys zs
379 3 0.449963 0.856699 0.5
380 3 0.474733 0.904293 0.5
381 3 0.500099 0.856993 0.5
382 3 0.525036 0.904865 0.5
383 3 0.55016 0.857125 0.5
384 3 0.575297 0.904885 0.5
385 3 0.600206 0.856978 0.5
386 3 0.625576 0.904263 0.5
387 3 0.650342 0.856657 0.5
388 3 0.675598 0.904063 0.5
389 3 0.700397 0.856529 0.5
390 3 0.72548 0.904114 0.5
391 3 0.750362 0.856521 0.5
392 3 0.775408 0.904091 0.5
410 3 0.449421 0.952015 0.5
411 3 0.499134 0.952251 0.5
412 3 0.626776 0.999871 0.5
413 3 0.601233 0.952215 0.5
414 3 0.650984 0.951711 0.5
415 3 0.700623 0.95196 0.5
416 3 0.750505 0.951896 0.5
ITEM: TIMESTEP
170
ITEM: NUMBER OF ATOMS
21
ITEM: BOX BOUNDS pp ss pp
0.0000000000000000e+00 2.2653923264628304e+01
2.1917670042342338e-01 2.0367003763027920e+01
-2.8317404080785380e-01 2.8317404080785380e-01
ITEM: ATOMS id type xs ys zs
379 3 0.44996 0.856692 0.5
380 3 0.47473 0.904287 0.5
381 3 0.500096 0.856987 0.5
382 3 0.525034 0.904859 0.5
383 3 0.550157 0.857119 0.5
384 3 0.575294 0.904879 0.5
385 3 0.600204 0.856973 0.5
386 3 0.625574 0.904257 0.5
387 3 0.65034 0.856651 0.5
388 3 0.675597 0.904057 0.5
389 3 0.700396 0.856523 0.5
390 3 0.725479 0.904109 0.5
391 3 0.750361 0.856516 0.5
392 3 0.775407 0.904086 0.5
410 3 0.449417 0.952008 0.5
411 3 0.49913 0.952244 0.5
412 3 0.626775 0.999864 0.5
413 3 0.601231 0.952209 0.5
414 3 0.650982 0.951705 0.5
415 3 0.700621 0.951954 0.5
416 3 0.750504 0.951891 0.5
ITEM: TIMESTEP
180
ITEM: NUMBER OF ATOMS
21
ITEM: BOX BOUNDS pp ss pp
0.0000000000000000e+00 2.2653923264628304e+01
2.1917670042342338e-01 2.0367003763027920e+01
-2.8317404080785380e-01 2.8317404080785380e-01
ITEM: ATOMS id type xs ys zs
379 3 0.449956 0.856685 0.5
380 3 0.474726 0.904279 0.5
381 3 0.500093 0.85698 0.5
382 3 0.52503 0.904852 0.5
383 3 0.550155 0.857113 0.5
384 3 0.575292 0.904873 0.5
385 3 0.600201 0.856966 0.5
386 3 0.625571 0.90425 0.5
387 3 0.650338 0.856645 0.5
388 3 0.675595 0.90405 0.5
389 3 0.700394 0.856517 0.5
390 3 0.725477 0.904103 0.5
391 3 0.75036 0.85651 0.5
392 3 0.775405 0.904081 0.5
410 3 0.449414 0.952 0.5
411 3 0.499126 0.952236 0.5
412 3 0.626773 0.999857 0.5
413 3 0.601229 0.952202 0.5
414 3 0.65098 0.951697 0.5
415 3 0.700619 0.951948 0.5
416 3 0.750501 0.951885 0.5
ITEM: TIMESTEP
190
ITEM: NUMBER OF ATOMS
21
ITEM: BOX BOUNDS pp ss pp
0.0000000000000000e+00 2.2653923264628304e+01
2.1917670042342338e-01 2.0367003763027920e+01
-2.8317404080785380e-01 2.8317404080785380e-01
ITEM: ATOMS id type xs ys zs
379 3 0.449954 0.856679 0.5
380 3 0.474724 0.904273 0.5
381 3 0.500091 0.856975 0.5
382 3 0.525028 0.904846 0.5
383 3 0.550152 0.857108 0.5
384 3 0.57529 0.904867 0.5
385 3 0.600199 0.856961 0.5
386 3 0.62557 0.904245 0.5
387 3 0.650336 0.85664 0.5
388 3 0.675593 0.904045 0.5
389 3 0.700393 0.856512 0.5
390 3 0.725475 0.904098 0.5
391 3 0.750359 0.856506 0.5
392 3 0.775403 0.904077 0.5
410 3 0.449411 0.951994 0.5
411 3 0.499124 0.952231 0.5
412 3 0.626772 0.999852 0.5
413 3 0.601228 0.952197 0.5
414 3 0.650978 0.951692 0.5
415 3 0.700617 0.951943 0.5
416 3 0.750499 0.951881 0.5
ITEM: TIMESTEP
200
ITEM: NUMBER OF ATOMS
21
ITEM: BOX BOUNDS pp ss pp
0.0000000000000000e+00 2.2653923264628304e+01
2.1917670042342338e-01 2.0367003763027920e+01
-2.8317404080785380e-01 2.8317404080785380e-01
ITEM: ATOMS id type xs ys zs
379 3 0.449951 0.856673 0.5
380 3 0.47472 0.904267 0.5
381 3 0.500088 0.856968 0.5
382 3 0.525025 0.90484 0.5
383 3 0.55015 0.857101 0.5
384 3 0.575287 0.904861 0.5
385 3 0.600197 0.856955 0.5
386 3 0.625567 0.904239 0.5
387 3 0.650334 0.856634 0.5
388 3 0.675591 0.904039 0.5
389 3 0.700391 0.856507 0.5
390 3 0.725473 0.904093 0.5
391 3 0.750357 0.856501 0.5
392 3 0.775401 0.904072 0.5
410 3 0.449408 0.951987 0.5
411 3 0.49912 0.952224 0.5
412 3 0.626769 0.999846 0.5
413 3 0.601225 0.952191 0.5
414 3 0.650976 0.951686 0.5
415 3 0.700615 0.951937 0.5
416 3 0.750497 0.951876 0.5
ITEM: TIMESTEP
210
ITEM: NUMBER OF ATOMS
21
ITEM: BOX BOUNDS pp ss pp
0.0000000000000000e+00 2.2653923264628304e+01
2.1917670042342338e-01 2.0367003763027920e+01
-2.8317404080785380e-01 2.8317404080785380e-01
ITEM: ATOMS id type xs ys zs
379 3 0.449948 0.856666 0.5
380 3 0.474718 0.90426 0.5
381 3 0.500086 0.856962 0.5
382 3 0.525022 0.904834 0.5
383 3 0.550147 0.857095 0.5
384 3 0.575285 0.904855 0.5
385 3 0.600195 0.856949 0.5
386 3 0.625565 0.904233 0.5
387 3 0.650332 0.856628 0.5
388 3 0.675589 0.904034 0.5
389 3 0.700389 0.856502 0.5
390 3 0.725471 0.904087 0.5
391 3 0.750355 0.856496 0.5
392 3 0.775399 0.904067 0.5
410 3 0.449405 0.951981 0.5
411 3 0.499117 0.952218 0.5
412 3 0.626767 0.99984 0.5
413 3 0.601223 0.952185 0.5
414 3 0.650974 0.95168 0.5
415 3 0.700612 0.951932 0.5
416 3 0.750495 0.951871 0.5
ITEM: TIMESTEP
220
ITEM: NUMBER OF ATOMS
21
ITEM: BOX BOUNDS pp ss pp
0.0000000000000000e+00 2.2653923264628304e+01
2.1917670042342338e-01 2.0367003763027920e+01
-2.8317404080785380e-01 2.8317404080785380e-01
ITEM: ATOMS id type xs ys zs
379 3 0.449945 0.85666 0.5
380 3 0.474715 0.904254 0.5
381 3 0.500083 0.856956 0.5
382 3 0.52502 0.904827 0.5
383 3 0.550145 0.857089 0.5
384 3 0.575282 0.904849 0.5
385 3 0.600192 0.856943 0.5
386 3 0.625562 0.904227 0.5
387 3 0.65033 0.856622 0.5
388 3 0.675586 0.904028 0.5
389 3 0.700387 0.856496 0.5
390 3 0.725468 0.904082 0.5
391 3 0.750353 0.856491 0.5
392 3 0.775396 0.904062 0.5
410 3 0.449402 0.951974 0.5
411 3 0.499114 0.952211 0.5
412 3 0.626764 0.999833 0.5
413 3 0.60122 0.952178 0.5
414 3 0.650971 0.951674 0.5
415 3 0.700609 0.951926 0.5
416 3 0.750492 0.951865 0.5
ITEM: TIMESTEP
230
ITEM: NUMBER OF ATOMS
21
ITEM: BOX BOUNDS pp ss pp
0.0000000000000000e+00 2.2653923264628304e+01
2.1917670042342338e-01 2.0367003763027920e+01
-2.8317404080785380e-01 2.8317404080785380e-01
ITEM: ATOMS id type xs ys zs
379 3 0.449943 0.856655 0.5
380 3 0.474713 0.904249 0.5
381 3 0.500081 0.856951 0.5
382 3 0.525017 0.904823 0.5
383 3 0.550143 0.857085 0.5
384 3 0.57528 0.904845 0.5
385 3 0.60019 0.856939 0.5
386 3 0.62556 0.904223 0.5
387 3 0.650328 0.856618 0.5
388 3 0.675584 0.904024 0.5
389 3 0.700385 0.856492 0.5
390 3 0.725466 0.904078 0.5
391 3 0.750351 0.856487 0.5
392 3 0.775394 0.904058 0.5
410 3 0.4494 0.951969 0.5
411 3 0.499112 0.952206 0.5
412 3 0.626762 0.999829 0.5
413 3 0.601218 0.952174 0.5
414 3 0.650969 0.951669 0.5
415 3 0.700607 0.951922 0.5
416 3 0.75049 0.951861 0.5
ITEM: TIMESTEP
240
ITEM: NUMBER OF ATOMS
21
ITEM: BOX BOUNDS pp ss pp
0.0000000000000000e+00 2.2653923264628304e+01
2.1917670042342338e-01 2.0367003763027920e+01
-2.8317404080785380e-01 2.8317404080785380e-01
ITEM: ATOMS id type xs ys zs
379 3 0.449941 0.856651 0.5
380 3 0.47471 0.904244 0.5
381 3 0.500079 0.856947 0.5
382 3 0.525015 0.904818 0.5
383 3 0.550141 0.85708 0.5
384 3 0.575277 0.90484 0.5
385 3 0.600188 0.856935 0.5
386 3 0.625558 0.904218 0.5
387 3 0.650326 0.856614 0.5
388 3 0.675582 0.90402 0.5
389 3 0.700383 0.856488 0.5
390 3 0.725464 0.904074 0.5
391 3 0.750349 0.856484 0.5
392 3 0.775393 0.904055 0.5
410 3 0.449397 0.951965 0.5
411 3 0.49911 0.952202 0.5
412 3 0.626759 0.999824 0.5
413 3 0.601215 0.952169 0.5
414 3 0.650966 0.951665 0.5
415 3 0.700605 0.951918 0.5
416 3 0.750488 0.951858 0.5
ITEM: TIMESTEP
250
ITEM: NUMBER OF ATOMS
21
ITEM: BOX BOUNDS pp ss pp
0.0000000000000000e+00 2.2653923264628304e+01
2.1917670042342338e-01 2.0367003763027920e+01
-2.8317404080785380e-01 2.8317404080785380e-01
ITEM: ATOMS id type xs ys zs
379 3 0.449939 0.856646 0.5
380 3 0.474708 0.90424 0.5
381 3 0.500077 0.856943 0.5
382 3 0.525013 0.904814 0.5
383 3 0.550139 0.857076 0.5
384 3 0.575276 0.904836 0.5
385 3 0.600186 0.856931 0.5
386 3 0.625556 0.904214 0.5
387 3 0.650324 0.85661 0.5
388 3 0.67558 0.904016 0.5
389 3 0.700381 0.856485 0.5
390 3 0.725462 0.904071 0.5
391 3 0.750347 0.85648 0.5
392 3 0.775391 0.904051 0.5
410 3 0.449395 0.95196 0.5
411 3 0.499108 0.952197 0.5
412 3 0.626757 0.99982 0.5
413 3 0.601213 0.952165 0.5
414 3 0.650964 0.951661 0.5
415 3 0.700603 0.951914 0.5
416 3 0.750486 0.951854 0.5
ITEM: TIMESTEP
260
ITEM: NUMBER OF ATOMS
21
ITEM: BOX BOUNDS pp ss pp
0.0000000000000000e+00 2.2653923264628304e+01
2.1917670042342338e-01 2.0367003763027920e+01
-2.8317404080785380e-01 2.8317404080785380e-01
ITEM: ATOMS id type xs ys zs
379 3 0.449936 0.856641 0.5
380 3 0.474706 0.904234 0.5
381 3 0.500074 0.856937 0.5
382 3 0.525011 0.904808 0.5
383 3 0.550136 0.857071 0.5
384 3 0.575273 0.90483 0.5
385 3 0.600184 0.856925 0.5
386 3 0.625553 0.904209 0.5
387 3 0.650322 0.856605 0.5
388 3 0.675577 0.904011 0.5
389 3 0.700379 0.85648 0.5
390 3 0.72546 0.904066 0.5
391 3 0.750345 0.856475 0.5
392 3 0.775388 0.904046 0.5
410 3 0.449393 0.951955 0.5
411 3 0.499105 0.952192 0.5
412 3 0.626754 0.999815 0.5
413 3 0.60121 0.95216 0.5
414 3 0.650961 0.951656 0.5
415 3 0.7006 0.951909 0.5
416 3 0.750483 0.951849 0.5
ITEM: TIMESTEP
270
ITEM: NUMBER OF ATOMS
21
ITEM: BOX BOUNDS pp ss pp
0.0000000000000000e+00 2.2653923264628304e+01
2.1917670042342338e-01 2.0367003763027920e+01
-2.8317404080785380e-01 2.8317404080785380e-01
ITEM: ATOMS id type xs ys zs
379 3 0.449935 0.856637 0.5
380 3 0.474704 0.904231 0.5
381 3 0.500073 0.856933 0.5
382 3 0.525009 0.904805 0.5
383 3 0.550134 0.857067 0.5
384 3 0.575271 0.904827 0.5
385 3 0.600182 0.856922 0.5
386 3 0.625552 0.904205 0.5
387 3 0.65032 0.856602 0.5
388 3 0.675576 0.904007 0.5
389 3 0.700377 0.856476 0.5
390 3 0.725458 0.904062 0.5
391 3 0.750343 0.856472 0.5
392 3 0.775386 0.904043 0.5
410 3 0.449391 0.951951 0.5
411 3 0.499103 0.952188 0.5
412 3 0.626752 0.999811 0.5
413 3 0.601208 0.952156 0.5
414 3 0.650959 0.951652 0.5
415 3 0.700598 0.951906 0.5
416 3 0.750481 0.951846 0.5
ITEM: TIMESTEP
280
ITEM: NUMBER OF ATOMS
21
ITEM: BOX BOUNDS pp ss pp
0.0000000000000000e+00 2.2653923264628304e+01
2.1917670042342338e-01 2.0367003763027920e+01
-2.8317404080785380e-01 2.8317404080785380e-01
ITEM: ATOMS id type xs ys zs
379 3 0.449933 0.856633 0.5
380 3 0.474702 0.904227 0.5
381 3 0.500071 0.856929 0.5
382 3 0.525007 0.904801 0.5
383 3 0.550132 0.857063 0.5
384 3 0.575269 0.904823 0.5
385 3 0.60018 0.856918 0.5
386 3 0.62555 0.904201 0.5
387 3 0.650318 0.856598 0.5
388 3 0.675574 0.904004 0.5
389 3 0.700375 0.856473 0.5
390 3 0.725456 0.904059 0.5
391 3 0.750341 0.856469 0.5
392 3 0.775384 0.90404 0.5
410 3 0.449389 0.951947 0.5
411 3 0.499101 0.952184 0.5
412 3 0.626749 0.999807 0.5
413 3 0.601206 0.952152 0.5
414 3 0.650957 0.951649 0.5
415 3 0.700596 0.951902 0.5
416 3 0.750479 0.951843 0.5
ITEM: TIMESTEP
282
ITEM: NUMBER OF ATOMS
21
ITEM: BOX BOUNDS pp ss pp
0.0000000000000000e+00 2.2653923264628304e+01
2.1917670042342338e-01 2.0367003763027920e+01
-2.8317404080785380e-01 2.8317404080785380e-01
ITEM: ATOMS id type xs ys zs
379 3 0.449932 0.856633 0.5
380 3 0.474702 0.904226 0.5
381 3 0.50007 0.856929 0.5
382 3 0.525007 0.9048 0.5
383 3 0.550132 0.857063 0.5
384 3 0.575269 0.904822 0.5
385 3 0.60018 0.856917 0.5
386 3 0.625549 0.904201 0.5
387 3 0.650318 0.856598 0.5
388 3 0.675573 0.904003 0.5
389 3 0.700375 0.856473 0.5
390 3 0.725456 0.904059 0.5
391 3 0.750341 0.856469 0.5
392 3 0.775384 0.90404 0.5
410 3 0.449389 0.951946 0.5
411 3 0.499101 0.952183 0.5
412 3 0.626749 0.999807 0.5
413 3 0.601206 0.952152 0.5
414 3 0.650957 0.951648 0.5
415 3 0.700596 0.951902 0.5
416 3 0.750478 0.951842 0.5
