ITEM: TIMESTEP
0
ITEM: NUMBER OF ATOMS
399
ITEM: BOX BOUNDS pp ss pp
0.0000000000000000e+00 2.2653923264628304e+01
2.1917670042342338e-01 1.9932861341420704e+01
-2.8317404080785380e-01 2.8317404080785380e-01
ITEM: ATOMS id type xs ys zs
1 2 0 9.99999e-05 0.5
2 2 0.025 0.048906 0.5
3 2 0.05 9.99999e-05 0.5
4 2 0.075 0.048906 0.5
5 2 0.1 9.99999e-05 0.5
6 2 0.125 0.048906 0.5
7 2 0.15 9.99999e-05 0.5
8 2 0.175 0.048906 0.5
9 2 0.2 9.99999e-05 0.5
10 2 0.225 0.048906 0.5
11 2 0.25 9.99999e-05 0.5
12 2 0.275 0.048906 0.5
13 2 0.3 9.99999e-05 0.5
14 2 0.325 0.048906 0.5
15 2 0.35 9.99999e-05 0.5
16 2 0.375 0.048906 0.5
17 2 0.4 9.99999e-05 0.5
18 2 0.425 0.048906 0.5
19 2 0.45 9.99999e-05 0.5
20 2 0.475 0.048906 0.5
21 2 0.5 9.99999e-05 0.5
22 2 0.525 0.048906 0.5
23 2 0.55 9.99999e-05 0.5
24 2 0.575 0.048906 0.5
25 2 0.6 9.99999e-05 0.5
26 2 0.625 0.048906 0.5
27 2 0.65 9.99999e-05 0.5
28 2 0.675 0.048906 0.5
29 2 0.7 9.99999e-05 0.5
30 2 0.725 0.048906 0.5
31 2 0.75 9.99999e-05 0.5
32 2 0.775 0.048906 0.5
33 2 0.8 9.99999e-05 0.5
34 2 0.825 0.048906 0.5
35 2 0.85 9.99999e-05 0.5
36 2 0.875 0.048906 0.5
37 2 0.9 9.99999e-05 0.5
38 2 0.925 0.048906 0.5
39 2 0.95 9.99999e-05 0.5
40 2 0.975 0.048906 0.5
41 2 2.43656e-18 0.0975118 0.5
42 1 0.0250081 0.146134 0.5
43 2 0.05 0.0975118 0.5
44 1 0.07501 0.146135 0.5
45 2 0.1 0.0975118 0.5
46 1 0.125011 0.146136 0.5
47 2 0.15 0.0975118 0.5
48 1 0.175012 0.146137 0.5
49 2 0.2 0.0975118 0.5
50 1 0.225012 0.146139 0.5
51 2 0.25 0.0975118 0.5
52 1 0.275011 0.14614 0.5
53 2 0.3 0.0975118 0.5
54 1 0.325009 0.146141 0.5
55 2 0.35 0.0975118 0.5
56 1 0.375007 0.146141 0.5
57 2 0.4 0.0975118 0.5
58 1 0.425004 0.146141 0.5
59 2 0.45 0.0975118 0.5
60 1 0.475002 0.146141 0.5
61 2 0.5 0.0975118 0.5
62 1 0.524999 0.146141 0.5
63 2 0.55 0.0975118 0.5
64 1 0.574998 0.14614 0.5
65 2 0.6 0.0975118 0.5
66 1 0.624996 0.146139 0.5
67 2 0.65 0.0975118 0.5
68 1 0.674996 0.146138 0.5
69 2 0.7 0.0975118 0.5
70 1 0.724996 0.146137 0.5
71 2 0.75 0.0975118 0.5
72 1 0.774997 0.146135 0.5
73 2 0.8 0.0975118 0.5
74 1 0.824998 0.146134 0.5
75 2 0.85 0.0975118 0.5
76 1 0.875001 0.146134 0.5
77 2 0.9 0.0975118 0.5
78 1 0.925003 0.146133 0.5
79 2 0.95 0.0975118 0.5
80 1 0.975006 0.146134 0.5
81 1 1.37093e-05 0.194754 0.5
82 1 0.0250241 0.243375 0.5
83 1 0.0500179 0.194756 0.5
84 1 0.0750294 0.243378 0.5
85 1 0.100021 0.194758 0.5
86 1 0.125033 0.243383 0.5
87 1 0.150023 0.194762 0.5
88 1 0.175035 0.243389 0.5
89 1 0.200023 0.194765 0.5
90 1 0.225035 0.243395 0.5
91 1 0.250022 0.194768 0.5
92 1 0.275032 0.2434 0.5
93 1 0.30002 0.19477 0.5
94 1 0.325028 0.243404 0.5
95 1 0.350016 0.194772 0.5
96 1 0.375022 0.243406 0.5
97 1 0.400011 0.194773 0.5
98 1 0.425015 0.243407 0.5
99 1 0.450007 0.194773 0.5
100 1 0.475008 0.243406 0.5
101 1 0.500002 0.194772 0.5
102 1 0.525001 0.243404 0.5
103 1 0.549998 0.194771 0.5
104 1 0.574996 0.2434 0.5
105 1 0.599995 0.194768 0.5
106 1 0.624992 0.243396 0.5
107 1 0.649993 0.194766 0.5
108 1 0.67499 0.243391 0.5
109 1 0.699993 0.194763 0.5
110 1 0.724991 0.243386 0.5
111 1 0.749994 0.19476 0.5
112 1 0.774993 0.243381 0.5
113 1 0.799996 0.194757 0.5
114 1 0.824998 0.243377 0.5
115 1 0.85 0.194755 0.5
116 1 0.875004 0.243374 0.5
117 1 0.900004 0.194754 0.5
118 1 0.925011 0.243372 0.5
119 1 0.950009 0.194754 0.5
120 1 0.975018 0.243372 0.5
121 1 2.89989e-05 0.291991 0.5
122 1 0.0250433 0.340609 0.5
123 1 0.0500368 0.291995 0.5
124 1 0.0750518 0.340617 0.5
125 1 0.100043 0.292002 0.5
126 1 0.125058 0.340628 0.5
127 1 0.150047 0.29201 0.5
128 1 0.175061 0.34064 0.5
129 1 0.200048 0.292019 0.5
130 1 0.225062 0.340653 0.5
131 1 0.250046 0.292028 0.5
132 1 0.275059 0.340664 0.5
133 1 0.300042 0.292035 0.5
134 1 0.325052 0.340674 0.5
135 1 0.350035 0.29204 0.5
136 1 0.375043 0.34068 0.5
137 1 0.400027 0.292043 0.5
138 1 0.425032 0.340683 0.5
139 1 0.450018 0.292043 0.5
140 1 0.47502 0.340681 0.5
141 1 0.500009 0.292041 0.5
142 1 0.525009 0.340677 0.5
143 1 0.55 0.292036 0.5
144 1 0.574999 0.340669 0.5
145 1 0.599994 0.29203 0.5
146 1 0.624992 0.340658 0.5
147 1 0.64999 0.292022 0.5
148 1 0.674989 0.340647 0.5
149 1 0.699989 0.292014 0.5
150 1 0.724989 0.340635 0.5
151 1 0.749991 0.292006 0.5
152 1 0.774993 0.340624 0.5
153 1 0.799995 0.291999 0.5
154 1 0.825001 0.340614 0.5
155 1 0.850002 0.291993 0.5
156 1 0.875011 0.340607 0.5
157 1 0.900011 0.29199 0.5
158 1 0.925022 0.340604 0.5
159 1 0.95002 0.291989 0.5
160 1 0.975033 0.340605 0.5
161 1 4.92269e-05 0.38922 0.5
162 1 0.0250685 0.437837 0.5
163 1 0.0500603 0.389229 0.5
164 1 0.0750797 0.437851 0.5
165 1 0.100069 0.389242 0.5
166 1 0.125088 0.43787 0.5
167 1 0.150075 0.389257 0.5
168 1 0.175094 0.437891 0.5
169 1 0.200078 0.389274 0.5
170 1 0.225096 0.437913 0.5
171 1 0.250077 0.389291 0.5
172 1 0.275095 0.437934 0.5
173 1 0.300072 0.389306 0.5
174 1 0.325088 0.437953 0.5
175 1 0.350064 0.389317 0.5
176 1 0.375077 0.437966 0.5
177 1 0.400052 0.389324 0.5
178 1 0.425061 0.437972 0.5
179 1 0.450038 0.389325 0.5
180 1 0.475044 0.437972 0.5
181 1 0.500023 0.389322 0.5
182 1 0.525025 0.437963 0.5
183 1 0.550009 0.389313 0.5
184 1 0.575009 0.437949 0.5
185 1 0.599998 0.3893 0.5
186 1 0.624998 0.43793 0.5
187 1 0.649991 0.389285 0.5
188 1 0.674991 0.437908 0.5
189 1 0.699989 0.389268 0.5
190 1 0.724992 0.437885 0.5
191 1 0.749992 0.389251 0.5
192 1 0.774999 0.437863 0.5
193 1 0.799999 0.389237 0.5
194 1 0.82501 0.437845 0.5
195 1 0.85001 0.389225 0.5
196 1 0.875025 0.437832 0.5
197 1 0.900023 0.389218 0.5
198 1 0.92504 0.437827 0.5
199 1 0.950037 0.389216 0.5
200 1 0.975055 0.437828 0.5
201 1 7.68207e-05 0.486442 0.5
202 1 0.0251005 0.535057 0.5
203 1 0.05009 0.486456 0.5
204 1 0.0751129 0.535079 0.5
205 1 0.100101 0.486477 0.5
206 1 0.125124 0.535106 0.5
207 1 0.15011 0.486502 0.5
208 1 0.175132 0.535138 0.5
209 1 0.200115 0.486529 0.5
210 1 0.225139 0.535172 0.5
211 1 0.250117 0.486557 0.5
212 1 0.275141 0.535207 0.5
213 1 0.300115 0.486584 0.5
214 1 0.325138 0.53524 0.5
215 1 0.350106 0.486606 0.5
216 1 0.375127 0.535266 0.5
217 1 0.400092 0.48662 0.5
218 1 0.425109 0.535282 0.5
219 1 0.450072 0.486626 0.5
220 1 0.475084 0.535285 0.5
221 1 0.50005 0.486621 0.5
222 1 0.525056 0.535274 0.5
223 1 0.550028 0.486607 0.5
224 1 0.575031 0.53525 0.5
225 1 0.60001 0.486584 0.5
226 1 0.625011 0.535216 0.5
227 1 0.649998 0.486556 0.5
228 1 0.675002 0.535175 0.5
229 1 0.699995 0.486525 0.5
230 1 0.725003 0.535133 0.5
231 1 0.75 0.486494 0.5
232 1 0.775014 0.535095 0.5
233 1 0.800011 0.486467 0.5
234 1 0.825032 0.535064 0.5
235 1 0.850027 0.486447 0.5
236 1 0.875051 0.535045 0.5
237 1 0.900045 0.486436 0.5
238 1 0.92507 0.535039 0.5
239 1 0.950062 0.486434 0.5
240 1 0.975086 0.535043 0.5
241 1 0.000112302 0.583655 0.5
242 1 0.0251373 0.632272 0.5
243 1 0.0501246 0.583677 0.5
244 1 0.0751474 0.632301 0.5
245 1 0.100136 0.583706 0.5
246 1 0.125158 0.632337 0.5
247 1 0.150147 0.58374 0.5
248 1 0.17517 0.632379 0.5
249 1 0.200157 0.583779 0.5
250 1 0.225182 0.632426 0.5
251 1 0.250165 0.583822 0.5
252 1 0.275193 0.632477 0.5
253 1 0.300168 0.583865 0.5
254 1 0.3252 0.63253 0.5
255 1 0.350165 0.583905 0.5
256 1 0.375197 0.63258 0.5
257 1 0.400152 0.583936 0.5
258 1 0.425181 0.632618 0.5
259 1 0.450129 0.583953 0.5
260 1 0.475151 0.632634 0.5
261 1 0.500097 0.58395 0.5
262 1 0.52511 0.632623 0.5
263 1 0.550063 0.583929 0.5
264 1 0.575068 0.632584 0.5
265 1 0.600033 0.583891 0.5
266 1 0.625038 0.632524 0.5
267 1 0.650015 0.58384 0.5
268 1 0.675026 0.632451 0.5
269 1 0.700011 0.583784 0.5
270 1 0.725033 0.632375 0.5
271 1 0.750021 0.58373 0.5
272 1 0.775053 0.63231 0.5
273 1 0.80004 0.583685 0.5
274 1 0.825077 0.632266 0.5
275 1 0.850061 0.583655 0.5
276 1 0.875098 0.632244 0.5
277 1 0.900081 0.583642 0.5
278 1 0.925114 0.632241 0.5
279 1 0.950098 0.583643 0.5
280 1 0.975127 0.632251 0.5
281 1 0.00015273 0.680866 0.5
282 1 0.025173 0.729488 0.5
283 1 0.0501592 0.680895 0.5
284 1 0.075176 0.729522 0.5
285 1 0.100167 0.68093 0.5
286 1 0.125183 0.729562 0.5
287 1 0.150178 0.680972 0.5
288 1 0.175196 0.72961 0.5
289 1 0.200192 0.681021 0.5
290 1 0.225214 0.729666 0.5
291 1 0.250209 0.681077 0.5
292 1 0.275235 0.729732 0.5
293 1 0.300224 0.681139 0.5
294 1 0.325258 0.729809 0.5
295 1 0.350236 0.681206 0.5
296 1 0.375276 0.729893 0.5
297 1 0.400235 0.681269 0.5
298 1 0.42528 0.729976 0.5
299 1 0.450216 0.681315 0.5
300 1 0.475256 0.730034 0.5
301 1 0.500175 0.681328 0.5
302 1 0.5252 0.730039 0.5
303 1 0.550122 0.681301 0.5
304 1 0.575133 0.729979 0.5
305 1 0.600075 0.681234 0.5
306 1 0.625086 0.729866 0.5
307 1 0.650049 0.681141 0.5
308 1 0.675078 0.729725 0.5
309 1 0.700051 0.681038 0.5
310 1 0.725108 0.729587 0.5
311 1 0.750075 0.680944 0.5
312 1 0.77514 0.729496 0.5
313 1 0.800102 0.68088 0.5
314 1 0.82516 0.72945 0.5
315 1 0.850123 0.680847 0.5
316 1 0.87517 0.729436 0.5
317 1 0.900137 0.680838 0.5
318 1 0.925173 0.729442 0.5
319 1 0.950146 0.680846 0.5
320 1 0.975173 0.729461 0.5
321 1 0.000190545 0.778083 0.5
322 1 0.0251982 0.826712 0.5
323 1 0.0501857 0.778115 0.5
324 1 0.07519 0.826746 0.5
325 1 0.100186 0.778153 0.5
326 1 0.12519 0.826786 0.5
327 1 0.150194 0.778197 0.5
328 1 0.175198 0.826833 0.5
329 1 0.200209 0.77825 0.5
330 1 0.225216 0.826891 0.5
331 1 0.250232 0.778314 0.5
332 1 0.275244 0.826964 0.5
333 1 0.300261 0.778392 0.5
334 1 0.325281 0.827056 0.5
335 1 0.350293 0.778487 0.5
336 1 0.375326 0.827174 0.5
337 1 0.400322 0.778595 0.5
338 1 0.425369 0.827316 0.5
339 1 0.450333 0.778708 0.5
340 1 0.475396 0.827479 0.5
341 1 0.500303 0.778785 0.5
342 1 0.525356 0.827584 0.5
343 1 0.550224 0.778767 0.5
344 1 0.575248 0.827501 0.5
345 1 0.600146 0.778644 0.5
346 1 0.625175 0.827257 0.5
347 1 0.650118 0.778453 0.5
348 1 0.675244 0.826918 0.5
349 1 0.70016 0.778243 0.5
350 1 0.725287 0.826737 0.5
351 1 0.750198 0.778115 0.5
352 1 0.775296 0.826659 0.5
353 1 0.800215 0.778054 0.5
354 1 0.825282 0.826636 0.5
355 1 0.850217 0.778034 0.5
356 1 0.875259 0.826639 0.5
357 1 0.900209 0.778038 0.5
358 1 0.925234 0.826656 0.5
359 1 0.950199 0.778056 0.5
360 1 0.975213 0.826681 0.5
361 1 0.000214221 0.875313 0.5
362 1 0.0252026 0.923951 0.5
363 1 0.0501952 0.875344 0.5
364 1 0.0751822 0.923981 0.5
365 1 0.100185 0.875379 0.5
366 1 0.125172 0.924015 0.5
367 1 0.150185 0.87542 0.5
368 1 0.175171 0.924057 0.5
369 1 0.200194 0.87547 0.5
370 1 0.225179 0.92411 0.5
371 1 0.250214 0.875533 0.5
372 1 0.275199 0.924179 0.5
373 1 0.300247 0.875615 0.5
374 1 0.325233 0.924272 0.5
375 1 0.350292 0.875725 0.5
376 1 0.375285 0.9244 0.5
377 1 0.400349 0.875871 0.5
378 1 0.425363 0.92458 0.5
393 1 0.800371 0.875243 0.5
394 1 0.825405 0.923869 0.5
395 1 0.850323 0.875247 0.5
396 1 0.875333 0.923881 0.5
397 1 0.900279 0.875263 0.5
398 1 0.925277 0.923901 0.5
399 1 0.950242 0.875286 0.5
400 1 0.975234 0.923924 0.5
401 1 0.000211941 0.972769 0.5
402 1 0.0501809 0.972794 0.5
403 1 0.10016 0.972823 0.5
404 1 0.150149 0.972857 0.5
405 1 0.200146 0.972901 0.5
406 1 0.250151 0.972958 0.5
407 1 0.300166 0.973034 0.5
408 1 0.350196 0.973138 0.5
409 1 0.400249 0.973284 0.5
417 1 0.800507 0.972716 0.5
418 1 0.850397 0.972719 0.5
419 1 0.900316 0.972731 0.5
420 1 0.950256 0.972748 0.5
ITEM: TIMESTEP
10
ITEM: NUMBER OF ATOMS
399
ITEM: BOX BOUNDS pp ss pp
0.0000000000000000e+00 2.2653923264628304e+01
2.1917670042342338e-01 1.9932861341420704e+01
-2.8317404080785380e-01 2.8317404080785380e-01
ITEM: ATOMS id type xs ys zs
1 2 0 9.99999e-05 0.5
2 2 0.025 0.048906 0.5
3 2 0.05 9.99999e-05 0.5
4 2 0.075 0.048906 0.5
5 2 0.1 9.99999e-05 0.5
6 2 0.125 0.048906 0.5
7 2 0.15 9.99999e-05 0.5
8 2 0.175 0.048906 0.5
9 2 0.2 9.99999e-05 0.5
10 2 0.225 0.048906 0.5
11 2 0.25 9.99999e-05 0.5
12 2 0.275 0.048906 0.5
13 2 0.3 9.99999e-05 0.5
14 2 0.325 0.048906 0.5
15 2 0.35 9.99999e-05 0.5
16 2 0.375 0.048906 0.5
17 2 0.4 9.99999e-05 0.5
18 2 0.425 0.048906 0.5
19 2 0.45 9.99999e-05 0.5
20 2 0.475 0.048906 0.5
21 2 0.5 9.99999e-05 0.5
22 2 0.525 0.048906 0.5
23 2 0.55 9.99999e-05 0.5
24 2 0.575 0.048906 0.5
25 2 0.6 9.99999e-05 0.5
26 2 0.625 0.048906 0.5
27 2 0.65 9.99999e-05 0.5
28 2 0.675 0.048906 0.5
29 2 0.7 9.99999e-05 0.5
30 2 0.725 0.048906 0.5
31 2 0.75 9.99999e-05 0.5
32 2 0.775 0.048906 0.5
33 2 0.8 9.99999e-05 0.5
34 2 0.825 0.048906 0.5
35 2 0.85 9.99999e-05 0.5
36 2 0.875 0.048906 0.5
37 2 0.9 9.99999e-05 0.5
38 2 0.925 0.048906 0.5
39 2 0.95 9.99999e-05 0.5
40 2 0.975 0.048906 0.5
41 2 2.43656e-18 0.0975118 0.5
42 1 0.0250083 0.146134 0.5
43 2 0.05 0.0975118 0.5
44 1 0.0750104 0.146135 0.5
45 2 0.1 0.0975118 0.5
46 1 0.125012 0.146136 0.5
47 2 0.15 0.0975118 0.5
48 1 0.175012 0.146138 0.5
49 2 0.2 0.0975118 0.5
50 1 0.225012 0.146139 0.5
51 2 0.25 0.0975118 0.5
52 1 0.275011 0.14614 0.5
53 2 0.3 0.0975118 0.5
54 1 0.325009 0.146141 0.5
55 2 0.35 0.0975118 0.5
56 1 0.375007 0.146142 0.5
57 2 0.4 0.0975118 0.5
58 1 0.425005 0.146142 0.5
59 2 0.45 0.0975118 0.5
60 1 0.475002 0.146142 0.5
61 2 0.5 0.0975118 0.5
62 1 0.525 0.146141 0.5
63 2 0.55 0.0975118 0.5
64 1 0.574998 0.14614 0.5
65 2 0.6 0.0975118 0.5
66 1 0.624996 0.146139 0.5
67 2 0.65 0.0975118 0.5
68 1 0.674996 0.146138 0.5
69 2 0.7 0.0975118 0.5
70 1 0.724996 0.146137 0.5
71 2 0.75 0.0975118 0.5
72 1 0.774997 0.146136 0.5
73 2 0.8 0.0975118 0.5
74 1 0.824999 0.146135 0.5
75 2 0.85 0.0975118 0.5
76 1 0.875001 0.146134 0.5
77 2 0.9 0.0975118 0.5
78 1 0.925003 0.146134 0.5
79 2 0.95 0.0975118 0.5
80 1 0.975006 0.146134 0.5
81 1 1.42209e-05 0.194755 0.5
82 1 0.0250249 0.243375 0.5
83 1 0.0500185 0.194756 0.5
84 1 0.0750304 0.243379 0.5
85 1 0.100022 0.194759 0.5
86 1 0.125034 0.243384 0.5
87 1 0.150024 0.194762 0.5
88 1 0.175036 0.243389 0.5
89 1 0.200024 0.194765 0.5
90 1 0.225036 0.243395 0.5
91 1 0.250023 0.194768 0.5
92 1 0.275033 0.2434 0.5
93 1 0.30002 0.194771 0.5
94 1 0.325029 0.243405 0.5
95 1 0.350017 0.194773 0.5
96 1 0.375023 0.243407 0.5
97 1 0.400012 0.194774 0.5
98 1 0.425016 0.243408 0.5
99 1 0.450007 0.194774 0.5
100 1 0.475009 0.243407 0.5
101 1 0.500003 0.194773 0.5
102 1 0.525002 0.243405 0.5
103 1 0.549998 0.194771 0.5
104 1 0.574997 0.243401 0.5
105 1 0.599995 0.194769 0.5
106 1 0.624993 0.243397 0.5
107 1 0.649993 0.194766 0.5
108 1 0.674991 0.243392 0.5
109 1 0.699993 0.194763 0.5
110 1 0.724991 0.243386 0.5
111 1 0.749994 0.19476 0.5
112 1 0.774994 0.243382 0.5
113 1 0.799996 0.194758 0.5
114 1 0.824998 0.243377 0.5
115 1 0.85 0.194756 0.5
116 1 0.875004 0.243374 0.5
117 1 0.900004 0.194754 0.5
118 1 0.925011 0.243373 0.5
119 1 0.950009 0.194754 0.5
120 1 0.975018 0.243373 0.5
121 1 3.00358e-05 0.291991 0.5
122 1 0.0250447 0.34061 0.5
123 1 0.050038 0.291996 0.5
124 1 0.0750534 0.340618 0.5
125 1 0.100044 0.292003 0.5
126 1 0.12506 0.340629 0.5
127 1 0.150048 0.292011 0.5
128 1 0.175063 0.340641 0.5
129 1 0.200049 0.29202 0.5
130 1 0.225064 0.340654 0.5
131 1 0.250048 0.292028 0.5
132 1 0.275061 0.340666 0.5
133 1 0.300044 0.292036 0.5
134 1 0.325054 0.340675 0.5
135 1 0.350037 0.292041 0.5
136 1 0.375045 0.340682 0.5
137 1 0.400029 0.292044 0.5
138 1 0.425034 0.340684 0.5
139 1 0.450019 0.292045 0.5
140 1 0.475022 0.340683 0.5
141 1 0.50001 0.292042 0.5
142 1 0.52501 0.340678 0.5
143 1 0.550001 0.292038 0.5
144 1 0.575 0.34067 0.5
145 1 0.599995 0.292031 0.5
146 1 0.624993 0.34066 0.5
147 1 0.64999 0.292024 0.5
148 1 0.674989 0.340648 0.5
149 1 0.699989 0.292015 0.5
150 1 0.72499 0.340636 0.5
151 1 0.749991 0.292007 0.5
152 1 0.774994 0.340625 0.5
153 1 0.799996 0.292 0.5
154 1 0.825001 0.340615 0.5
155 1 0.850003 0.291994 0.5
156 1 0.875011 0.340608 0.5
157 1 0.900012 0.29199 0.5
158 1 0.925023 0.340605 0.5
159 1 0.950021 0.291989 0.5
160 1 0.975034 0.340605 0.5
161 1 5.07975e-05 0.389221 0.5
162 1 0.0250704 0.437838 0.5
163 1 0.0500621 0.38923 0.5
164 1 0.075082 0.437852 0.5
165 1 0.100071 0.389243 0.5
166 1 0.125091 0.43787 0.5
167 1 0.150077 0.389258 0.5
168 1 0.175097 0.437892 0.5
169 1 0.20008 0.389275 0.5
170 1 0.225099 0.437914 0.5
171 1 0.25008 0.389292 0.5
172 1 0.275097 0.437936 0.5
173 1 0.300075 0.389307 0.5
174 1 0.325091 0.437954 0.5
175 1 0.350066 0.389319 0.5
176 1 0.375079 0.437968 0.5
177 1 0.400054 0.389326 0.5
178 1 0.425064 0.437975 0.5
179 1 0.45004 0.389327 0.5
180 1 0.475046 0.437974 0.5
181 1 0.500025 0.389324 0.5
182 1 0.525027 0.437966 0.5
183 1 0.550011 0.389315 0.5
184 1 0.575011 0.437952 0.5
185 1 0.599999 0.389302 0.5
186 1 0.624999 0.437932 0.5
187 1 0.649992 0.389287 0.5
188 1 0.674993 0.43791 0.5
189 1 0.69999 0.38927 0.5
190 1 0.724993 0.437886 0.5
191 1 0.749993 0.389253 0.5
192 1 0.775 0.437864 0.5
193 1 0.8 0.389238 0.5
194 1 0.825011 0.437846 0.5
195 1 0.850011 0.389226 0.5
196 1 0.875026 0.437833 0.5
197 1 0.900024 0.389219 0.5
198 1 0.925042 0.437827 0.5
199 1 0.950038 0.389217 0.5
200 1 0.975057 0.437829 0.5
201 1 7.89175e-05 0.486442 0.5
202 1 0.025103 0.535058 0.5
203 1 0.0500924 0.486457 0.5
204 1 0.0751157 0.535079 0.5
205 1 0.100104 0.486477 0.5
206 1 0.125127 0.535107 0.5
207 1 0.150113 0.486502 0.5
208 1 0.175136 0.535139 0.5
209 1 0.200118 0.48653 0.5
210 1 0.225142 0.535174 0.5
211 1 0.250121 0.486559 0.5
212 1 0.275145 0.535209 0.5
213 1 0.300118 0.486585 0.5
214 1 0.325141 0.535242 0.5
215 1 0.350109 0.486608 0.5
216 1 0.375131 0.535269 0.5
217 1 0.400095 0.486623 0.5
218 1 0.425112 0.535285 0.5
219 1 0.450075 0.486629 0.5
220 1 0.475087 0.535288 0.5
221 1 0.500052 0.486624 0.5
222 1 0.525059 0.535277 0.5
223 1 0.55003 0.48661 0.5
224 1 0.575033 0.535253 0.5
225 1 0.600012 0.486587 0.5
226 1 0.625013 0.535219 0.5
227 1 0.65 0.486559 0.5
228 1 0.675003 0.535178 0.5
229 1 0.699996 0.486527 0.5
230 1 0.725005 0.535136 0.5
231 1 0.750001 0.486496 0.5
232 1 0.775016 0.535097 0.5
233 1 0.800012 0.486469 0.5
234 1 0.825033 0.535066 0.5
235 1 0.850028 0.486448 0.5
236 1 0.875053 0.535046 0.5
237 1 0.900046 0.486437 0.5
238 1 0.925072 0.535039 0.5
239 1 0.950063 0.486435 0.5
240 1 0.975088 0.535044 0.5
241 1 0.00011489 0.583656 0.5
242 1 0.0251403 0.632273 0.5
243 1 0.0501275 0.583677 0.5
244 1 0.0751506 0.632302 0.5
245 1 0.100139 0.583706 0.5
246 1 0.125162 0.632338 0.5
247 1 0.15015 0.583741 0.5
248 1 0.175174 0.63238 0.5
249 1 0.20016 0.583781 0.5
250 1 0.225186 0.632427 0.5
251 1 0.250168 0.583823 0.5
252 1 0.275197 0.632479 0.5
253 1 0.300172 0.583867 0.5
254 1 0.325203 0.632533 0.5
255 1 0.350169 0.583907 0.5
256 1 0.375201 0.632583 0.5
257 1 0.400156 0.583939 0.5
258 1 0.425185 0.632621 0.5
259 1 0.450132 0.583956 0.5
260 1 0.475154 0.632638 0.5
261 1 0.500099 0.583954 0.5
262 1 0.525112 0.632627 0.5
263 1 0.550065 0.583933 0.5
264 1 0.575071 0.632589 0.5
265 1 0.600036 0.583894 0.5
266 1 0.62504 0.632528 0.5
267 1 0.650017 0.583844 0.5
268 1 0.675028 0.632454 0.5
269 1 0.700013 0.583787 0.5
270 1 0.725034 0.632378 0.5
271 1 0.750023 0.583732 0.5
272 1 0.775055 0.632313 0.5
273 1 0.800041 0.583687 0.5
274 1 0.825079 0.632268 0.5
275 1 0.850063 0.583656 0.5
276 1 0.8751 0.632245 0.5
277 1 0.900083 0.583643 0.5
278 1 0.925117 0.632241 0.5
279 1 0.9501 0.583643 0.5
280 1 0.97513 0.632252 0.5
281 1 0.000155738 0.680866 0.5
282 1 0.0251763 0.729488 0.5
283 1 0.0501625 0.680895 0.5
284 1 0.0751795 0.729522 0.5
285 1 0.100171 0.68093 0.5
286 1 0.125187 0.729563 0.5
287 1 0.150182 0.680973 0.5
288 1 0.175199 0.729611 0.5
289 1 0.200196 0.681022 0.5
290 1 0.225217 0.729668 0.5
291 1 0.250212 0.681078 0.5
292 1 0.275239 0.729734 0.5
293 1 0.300228 0.681142 0.5
294 1 0.325262 0.729812 0.5
295 1 0.350239 0.681209 0.5
296 1 0.37528 0.729897 0.5
297 1 0.400239 0.681273 0.5
298 1 0.425284 0.729981 0.5
299 1 0.450219 0.681319 0.5
300 1 0.475259 0.73004 0.5
301 1 0.500178 0.681333 0.5
302 1 0.525203 0.730046 0.5
303 1 0.550125 0.681305 0.5
304 1 0.575135 0.729986 0.5
305 1 0.600077 0.681239 0.5
306 1 0.625088 0.729873 0.5
307 1 0.650051 0.681145 0.5
308 1 0.67508 0.72973 0.5
309 1 0.700053 0.681041 0.5
310 1 0.72511 0.729591 0.5
311 1 0.750077 0.680947 0.5
312 1 0.775142 0.729499 0.5
313 1 0.800104 0.680882 0.5
314 1 0.825163 0.729452 0.5
315 1 0.850125 0.680848 0.5
316 1 0.875173 0.729437 0.5
317 1 0.90014 0.680839 0.5
318 1 0.925176 0.729442 0.5
319 1 0.950149 0.680847 0.5
320 1 0.975176 0.72946 0.5
321 1 0.000193874 0.778083 0.5
322 1 0.0252016 0.826711 0.5
323 1 0.0501892 0.778115 0.5
324 1 0.0751935 0.826746 0.5
325 1 0.10019 0.778153 0.5
326 1 0.125193 0.826786 0.5
327 1 0.150198 0.778198 0.5
328 1 0.175202 0.826834 0.5
329 1 0.200213 0.778251 0.5
330 1 0.225219 0.826892 0.5
331 1 0.250235 0.778316 0.5
332 1 0.275247 0.826966 0.5
333 1 0.300264 0.778395 0.5
334 1 0.325284 0.82706 0.5
335 1 0.350297 0.778491 0.5
336 1 0.375332 0.827181 0.5
337 1 0.400328 0.778604 0.5
338 1 0.425385 0.827342 0.5
339 1 0.450338 0.77872 0.5
340 1 0.475408 0.82751 0.5
341 1 0.500307 0.778798 0.5
342 1 0.525364 0.827613 0.5
343 1 0.550227 0.778778 0.5
344 1 0.575249 0.827523 0.5
345 1 0.600147 0.778654 0.5
346 1 0.625174 0.827273 0.5
347 1 0.650119 0.778461 0.5
348 1 0.675252 0.826922 0.5
349 1 0.700163 0.778248 0.5
350 1 0.72529 0.826746 0.5
351 1 0.750199 0.77812 0.5
352 1 0.775298 0.826664 0.5
353 1 0.800218 0.778057 0.5
354 1 0.825285 0.826638 0.5
355 1 0.850219 0.778036 0.5
356 1 0.875262 0.82664 0.5
357 1 0.900212 0.778039 0.5
358 1 0.925238 0.826656 0.5
359 1 0.950202 0.778056 0.5
360 1 0.975217 0.826681 0.5
361 1 0.000217759 0.875313 0.5
362 1 0.0252061 0.92395 0.5
363 1 0.0501987 0.875344 0.5
364 1 0.0751854 0.923981 0.5
365 1 0.100189 0.875379 0.5
366 1 0.125175 0.924016 0.5
367 1 0.150188 0.87542 0.5
368 1 0.175173 0.924058 0.5
369 1 0.200197 0.875471 0.5
370 1 0.225182 0.924112 0.5
371 1 0.250217 0.875535 0.5
372 1 0.275201 0.924182 0.5
373 1 0.300249 0.875618 0.5
374 1 0.325236 0.924276 0.5
375 1 0.350297 0.87573 0.5
376 1 0.375295 0.924408 0.5
377 1 0.400367 0.875888 0.5
378 1 0.425399 0.92462 0.5
393 1 0.800374 0.875247 0.5
394 1 0.82541 0.923871 0.5
395 1 0.850327 0.875248 0.5
396 1 0.875338 0.923882 0.5
397 1 0.900283 0.875263 0.5
398 1 0.925281 0.923901 0.5
399 1 0.950246 0.875285 0.5
400 1 0.975237 0.923924 0.5
401 1 0.000215589 0.972769 0.5
402 1 0.0501841 0.972794 0.5
403 1 0.100163 0.972823 0.5
404 1 0.150151 0.972858 0.5
405 1 0.200147 0.972902 0.5
406 1 0.250152 0.97296 0.5
407 1 0.300168 0.973037 0.5
408 1 0.350202 0.973142 0.5
409 1 0.400276 0.973293 0.5
417 1 0.800516 0.972721 0.5
418 1 0.850402 0.972721 0.5
419 1 0.90032 0.972731 0.5
420 1 0.95026 0.972748 0.5
ITEM: TIMESTEP
20
ITEM: NUMBER OF ATOMS
399
ITEM: BOX BOUNDS pp ss pp
0.0000000000000000e+00 2.2653923264628304e+01
2.1917670042342338e-01 1.9932861341420704e+01
-2.8317404080785380e-01 2.8317404080785380e-01
ITEM: ATOMS id type xs ys zs
1 2 0 9.99999e-05 0.5
2 2 0.025 0.048906 0.5
3 2 0.05 9.99999e-05 0.5
4 2 0.075 0.048906 0.5
5 2 0.1 9.99999e-05 0.5
6 2 0.125 0.048906 0.5
7 2 0.15 9.99999e-05 0.5
8 2 0.175 0.048906 0.5
9 2 0.2 9.99999e-05 0.5
10 2 0.225 0.048906 0.5
11 2 0.25 9.99999e-05 0.5
12 2 0.275 0.048906 0.5
13 2 0.3 9.99999e-05 0.5
14 2 0.325 0.048906 0.5
15 2 0.35 9.99999e-05 0.5
16 2 0.375 0.048906 0.5
17 2 0.4 9.99999e-05 0.5
18 2 0.425 0.048906 0.5
19 2 0.45 9.99999e-05 0.5
20 2 0.475 0.048906 0.5
21 2 0.5 9.99999e-05 0.5
22 2 0.525 0.048906 0.5
23 2 0.55 9.99999e-05 0.5
24 2 0.575 0.048906 0.5
25 2 0.6 9.99999e-05 0.5
26 2 0.625 0.048906 0.5
27 2 0.65 9.99999e-05 0.5
28 2 0.675 0.048906 0.5
29 2 0.7 9.99999e-05 0.5
30 2 0.725 0.048906 0.5
31 2 0.75 9.99999e-05 0.5
32 2 0.775 0.048906 0.5
33 2 0.8 9.99999e-05 0.5
34 2 0.825 0.048906 0.5
35 2 0.85 9.99999e-05 0.5
36 2 0.875 0.048906 0.5
37 2 0.9 9.99999e-05 0.5
38 2 0.925 0.048906 0.5
39 2 0.95 9.99999e-05 0.5
40 2 0.975 0.048906 0.5
41 2 2.43656e-18 0.0975118 0.5
42 1 0.025009 0.146135 0.5
43 2 0.05 0.0975118 0.5
44 1 0.0750111 0.146136 0.5
45 2 0.1 0.0975118 0.5
46 1 0.125013 0.146137 0.5
47 2 0.15 0.0975118 0.5
48 1 0.175013 0.146138 0.5
49 2 0.2 0.0975118 0.5
50 1 0.225013 0.146139 0.5
51 2 0.25 0.0975118 0.5
52 1 0.275012 0.146141 0.5
53 2 0.3 0.0975118 0.5
54 1 0.32501 0.146142 0.5
55 2 0.35 0.0975118 0.5
56 1 0.375008 0.146142 0.5
57 2 0.4 0.0975118 0.5
58 1 0.425005 0.146142 0.5
59 2 0.45 0.0975118 0.5
60 1 0.475003 0.146142 0.5
61 2 0.5 0.0975118 0.5
62 1 0.525 0.146142 0.5
63 2 0.55 0.0975118 0.5
64 1 0.574998 0.146141 0.5
65 2 0.6 0.0975118 0.5
66 1 0.624997 0.14614 0.5
67 2 0.65 0.0975118 0.5
68 1 0.674996 0.146139 0.5
69 2 0.7 0.0975118 0.5
70 1 0.724996 0.146137 0.5
71 2 0.75 0.0975118 0.5
72 1 0.774997 0.146136 0.5
73 2 0.8 0.0975118 0.5
74 1 0.824999 0.146135 0.5
75 2 0.85 0.0975118 0.5
76 1 0.875001 0.146134 0.5
77 2 0.9 0.0975118 0.5
78 1 0.925004 0.146134 0.5
79 2 0.95 0.0975118 0.5
80 1 0.975006 0.146134 0.5
81 1 1.5375e-05 0.194755 0.5
82 1 0.0250268 0.243376 0.5
83 1 0.0500199 0.194757 0.5
84 1 0.0750326 0.24338 0.5
85 1 0.100023 0.19476 0.5
86 1 0.125037 0.243385 0.5
87 1 0.150025 0.194763 0.5
88 1 0.175039 0.243391 0.5
89 1 0.200026 0.194766 0.5
90 1 0.225039 0.243397 0.5
91 1 0.250025 0.194769 0.5
92 1 0.275036 0.243402 0.5
93 1 0.300022 0.194772 0.5
94 1 0.325032 0.243406 0.5
95 1 0.350019 0.194774 0.5
96 1 0.375026 0.243409 0.5
97 1 0.400014 0.194775 0.5
98 1 0.425018 0.24341 0.5
99 1 0.450009 0.194775 0.5
100 1 0.475011 0.243409 0.5
101 1 0.500004 0.194774 0.5
102 1 0.525004 0.243407 0.5
103 1 0.549999 0.194772 0.5
104 1 0.574998 0.243403 0.5
105 1 0.599996 0.19477 0.5
106 1 0.624994 0.243399 0.5
107 1 0.649994 0.194767 0.5
108 1 0.674992 0.243394 0.5
109 1 0.699993 0.194764 0.5
110 1 0.724992 0.243388 0.5
111 1 0.749994 0.194761 0.5
112 1 0.774994 0.243383 0.5
113 1 0.799997 0.194759 0.5
114 1 0.824999 0.243379 0.5
115 1 0.850001 0.194757 0.5
116 1 0.875005 0.243375 0.5
117 1 0.900005 0.194755 0.5
118 1 0.925012 0.243374 0.5
119 1 0.95001 0.194755 0.5
120 1 0.97502 0.243374 0.5
121 1 3.23704e-05 0.291993 0.5
122 1 0.0250479 0.340611 0.5
123 1 0.0500407 0.291997 0.5
124 1 0.0750571 0.340619 0.5
125 1 0.100047 0.292004 0.5
126 1 0.125064 0.34063 0.5
127 1 0.150052 0.292012 0.5
128 1 0.175068 0.340643 0.5
129 1 0.200053 0.292022 0.5
130 1 0.225068 0.340656 0.5
131 1 0.250052 0.29203 0.5
132 1 0.275065 0.340668 0.5
133 1 0.300047 0.292038 0.5
134 1 0.325059 0.340678 0.5
135 1 0.350041 0.292044 0.5
136 1 0.37505 0.340685 0.5
137 1 0.400032 0.292047 0.5
138 1 0.425038 0.340688 0.5
139 1 0.450022 0.292047 0.5
140 1 0.475025 0.340687 0.5
141 1 0.500012 0.292045 0.5
142 1 0.525013 0.340682 0.5
143 1 0.550003 0.29204 0.5
144 1 0.575003 0.340674 0.5
145 1 0.599996 0.292034 0.5
146 1 0.624995 0.340664 0.5
147 1 0.649992 0.292026 0.5
148 1 0.674991 0.340652 0.5
149 1 0.699991 0.292018 0.5
150 1 0.724991 0.340639 0.5
151 1 0.749992 0.292009 0.5
152 1 0.774995 0.340627 0.5
153 1 0.799997 0.292002 0.5
154 1 0.825003 0.340617 0.5
155 1 0.850004 0.291996 0.5
156 1 0.875013 0.34061 0.5
157 1 0.900013 0.291992 0.5
158 1 0.925025 0.340606 0.5
159 1 0.950023 0.291991 0.5
160 1 0.975037 0.340607 0.5
161 1 5.43199e-05 0.389222 0.5
162 1 0.0250749 0.437839 0.5
163 1 0.0500662 0.389231 0.5
164 1 0.075087 0.437853 0.5
165 1 0.100076 0.389244 0.5
166 1 0.125097 0.437872 0.5
167 1 0.150082 0.38926 0.5
168 1 0.175103 0.437894 0.5
169 1 0.200086 0.389278 0.5
170 1 0.225106 0.437917 0.5
171 1 0.250085 0.389295 0.5
172 1 0.275104 0.437939 0.5
173 1 0.30008 0.389311 0.5
174 1 0.325097 0.437958 0.5
175 1 0.350071 0.389323 0.5
176 1 0.375085 0.437972 0.5
177 1 0.400059 0.38933 0.5
178 1 0.425069 0.43798 0.5
179 1 0.450044 0.389332 0.5
180 1 0.475051 0.437979 0.5
181 1 0.500029 0.389328 0.5
182 1 0.525032 0.437972 0.5
183 1 0.550014 0.38932 0.5
184 1 0.575015 0.437957 0.5
185 1 0.600002 0.389307 0.5
186 1 0.625002 0.437937 0.5
187 1 0.649994 0.389291 0.5
188 1 0.674995 0.437915 0.5
189 1 0.699992 0.389274 0.5
190 1 0.724995 0.437891 0.5
191 1 0.749994 0.389256 0.5
192 1 0.775002 0.437868 0.5
193 1 0.800002 0.389241 0.5
194 1 0.825014 0.437849 0.5
195 1 0.850013 0.389228 0.5
196 1 0.875029 0.437835 0.5
197 1 0.900027 0.389221 0.5
198 1 0.925045 0.437829 0.5
199 1 0.950041 0.389219 0.5
200 1 0.975061 0.437831 0.5
201 1 8.35937e-05 0.486443 0.5
202 1 0.0251086 0.535059 0.5
203 1 0.0500978 0.486458 0.5
204 1 0.0751219 0.535081 0.5
205 1 0.10011 0.486479 0.5
206 1 0.125133 0.535109 0.5
207 1 0.150119 0.486504 0.5
208 1 0.175143 0.535141 0.5
209 1 0.200125 0.486533 0.5
210 1 0.22515 0.535177 0.5
211 1 0.250128 0.486562 0.5
212 1 0.275152 0.535213 0.5
213 1 0.300125 0.48659 0.5
214 1 0.325149 0.535248 0.5
215 1 0.350116 0.486613 0.5
216 1 0.375138 0.535275 0.5
217 1 0.400101 0.486629 0.5
218 1 0.425119 0.535293 0.5
219 1 0.450081 0.486635 0.5
220 1 0.475093 0.535296 0.5
221 1 0.500057 0.486631 0.5
222 1 0.525064 0.535286 0.5
223 1 0.550035 0.486616 0.5
224 1 0.575037 0.535261 0.5
225 1 0.600015 0.486594 0.5
226 1 0.625017 0.535227 0.5
227 1 0.650003 0.486565 0.5
228 1 0.675007 0.535185 0.5
229 1 0.699999 0.486532 0.5
230 1 0.725008 0.535141 0.5
231 1 0.750003 0.486501 0.5
232 1 0.775019 0.535101 0.5
233 1 0.800015 0.486472 0.5
234 1 0.825036 0.535069 0.5
235 1 0.850031 0.486451 0.5
236 1 0.875056 0.535049 0.5
237 1 0.90005 0.486439 0.5
238 1 0.925076 0.535041 0.5
239 1 0.950067 0.486437 0.5
240 1 0.975093 0.535045 0.5
241 1 0.000120621 0.583657 0.5
242 1 0.0251469 0.632273 0.5
243 1 0.050134 0.583678 0.5
244 1 0.0751578 0.632302 0.5
245 1 0.100146 0.583707 0.5
246 1 0.125169 0.632339 0.5
247 1 0.150158 0.583743 0.5
248 1 0.175182 0.632382 0.5
249 1 0.200168 0.583783 0.5
250 1 0.225195 0.632431 0.5
251 1 0.250177 0.583827 0.5
252 1 0.275206 0.632485 0.5
253 1 0.300181 0.583873 0.5
254 1 0.325213 0.632542 0.5
255 1 0.350177 0.583915 0.5
256 1 0.37521 0.632595 0.5
257 1 0.400163 0.583948 0.5
258 1 0.425193 0.632635 0.5
259 1 0.450139 0.583966 0.5
260 1 0.475161 0.632653 0.5
261 1 0.500105 0.583965 0.5
262 1 0.525118 0.632641 0.5
263 1 0.55007 0.583943 0.5
264 1 0.575075 0.632602 0.5
265 1 0.60004 0.583904 0.5
266 1 0.625044 0.632539 0.5
267 1 0.650021 0.583852 0.5
268 1 0.675031 0.632463 0.5
269 1 0.700016 0.583794 0.5
270 1 0.725038 0.632385 0.5
271 1 0.750026 0.583738 0.5
272 1 0.775059 0.632317 0.5
273 1 0.800045 0.583691 0.5
274 1 0.825083 0.632271 0.5
275 1 0.850067 0.583659 0.5
276 1 0.875105 0.632248 0.5
277 1 0.900088 0.583645 0.5
278 1 0.925122 0.632243 0.5