ITEM: TIMESTEP
0
ITEM: NUMBER OF ATOMS
399
ITEM: BOX BOUNDS pp ss pp
0.0000000000000000e+00 2.2653923264628304e+01
2.1917670042342338e-01 2.0312268024904707e+01
-2.8317404080785380e-01 2.8317404080785380e-01
ITEM: ATOMS id type xs ys zs
1 2 0 9.81117e-05 0.5
2 2 0.025 0.0479825 0.5
3 2 0.05 9.81117e-05 0.5
4 2 0.075 0.0479825 0.5
5 2 0.1 9.81117e-05 0.5
6 2 0.125 0.0479825 0.5
7 2 0.15 9.81117e-05 0.5
8 2 0.175 0.0479825 0.5
9 2 0.2 9.81117e-05 0.5
10 2 0.225 0.0479825 0.5
11 2 0.25 9.81117e-05 0.5
12 2 0.275 0.0479825 0.5
13 2 0.3 9.81117e-05 0.5
14 2 0.325 0.0479825 0.5
15 2 0.35 9.81117e-05 0.5
16 2 0.375 0.0479825 0.5
17 2 0.4 9.81117e-05 0.5
18 2 0.425 0.0479825 0.5
19 2 0.45 9.81117e-05 0.5
20 2 0.475 0.0479825 0.5
21 2 0.5 9.81117e-05 0.5
22 2 0.525 0.0479825 0.5
23 2 0.55 9.81117e-05 0.5
24 2 0.575 0.0479825 0.5
25 2 0.6 9.81117e-05 0.5
26 2 0.625 0.0479825 0.5
27 2 0.65 9.81117e-05 0.5
28 2 0.675 0.0479825 0.5
29 2 0.7 9.81117e-05 0.5
30 2 0.725 0.0479825 0.5
31 2 0.75 9.81117e-05 0.5
32 2 0.775 0.0479825 0.5
33 2 0.8 9.81117e-05 0.5
34 2 0.825 0.0479825 0.5
35 2 0.85 9.81117e-05 0.5
36 2 0.875 0.0479825 0.5
37 2 0.9 9.81117e-05 0.5
38 2 0.925 0.0479825 0.5
39 2 0.95 9.81117e-05 0.5
40 2 0.975 0.0479825 0.5
41 2 2.43656e-18 0.0956706 0.5
42 1 0.0250081 0.143375 0.5
43 2 0.05 0.0956706 0.5
44 1 0.07501 0.143376 0.5
45 2 0.1 0.0956706 0.5
46 1 0.125011 0.143377 0.5
47 2 0.15 0.0956706 0.5
48 1 0.175012 0.143378 0.5
49 2 0.2 0.0956706 0.5
50 1 0.225012 0.143379 0.5
51 2 0.25 0.0956706 0.5
52 1 0.275011 0.14338 0.5
53 2 0.3 0.0956706 0.5
54 1 0.325009 0.143381 0.5
55 2 0.35 0.0956706 0.5
56 1 0.375007 0.143382 0.5
57 2 0.4 0.0956706 0.5
58 1 0.425004 0.143382 0.5
59 2 0.45 0.0956706 0.5
60 1 0.475002 0.143382 0.5
61 2 0.5 0.0956706 0.5
62 1 0.524999 0.143381 0.5
63 2 0.55 0.0956706 0.5
64 1 0.574998 0.14338 0.5
65 2 0.6 0.0956706 0.5
66 1 0.624996 0.143379 0.5
67 2 0.65 0.0956706 0.5
68 1 0.674996 0.143378 0.5
69 2 0.7 0.0956706 0.5
70 1 0.724996 0.143377 0.5
71 2 0.75 0.0956706 0.5
72 1 0.774997 0.143376 0.5
73 2 0.8 0.0956706 0.5
74 1 0.824998 0.143375 0.5
75 2 0.85 0.0956706 0.5
76 1 0.875001 0.143374 0.5
77 2 0.9 0.0956706 0.5
78 1 0.925003 0.143374 0.5
79 2 0.95 0.0956706 0.5
80 1 0.975006 0.143374 0.5
81 1 1.37093e-05 0.191077 0.5
82 1 0.0250241 0.238779 0.5
83 1 0.0500179 0.191078 0.5
84 1 0.0750294 0.238783 0.5
85 1 0.100021 0.191081 0.5
86 1 0.125033 0.238788 0.5
87 1 0.150023 0.191084 0.5
88 1 0.175035 0.238793 0.5
89 1 0.200023 0.191087 0.5
90 1 0.225035 0.238799 0.5
91 1 0.250022 0.19109 0.5
92 1 0.275032 0.238804 0.5
93 1 0.30002 0.191093 0.5
94 1 0.325028 0.238808 0.5
95 1 0.350016 0.191095 0.5
96 1 0.375022 0.23881 0.5
97 1 0.400011 0.191095 0.5
98 1 0.425015 0.238811 0.5
99 1 0.450007 0.191095 0.5
100 1 0.475008 0.23881 0.5
101 1 0.500002 0.191094 0.5
102 1 0.525001 0.238808 0.5
103 1 0.549998 0.191093 0.5
104 1 0.574996 0.238804 0.5
105 1 0.599995 0.191091 0.5
106 1 0.624992 0.2388 0.5
107 1 0.649993 0.191088 0.5
108 1 0.67499 0.238795 0.5
109 1 0.699993 0.191085 0.5
110 1 0.724991 0.23879 0.5
111 1 0.749994 0.191082 0.5
112 1 0.774993 0.238785 0.5
113 1 0.799996 0.19108 0.5
114 1 0.824998 0.238781 0.5
115 1 0.85 0.191078 0.5
116 1 0.875004 0.238778 0.5
117 1 0.900004 0.191076 0.5
118 1 0.925011 0.238777 0.5
119 1 0.950009 0.191076 0.5
120 1 0.975018 0.238777 0.5
121 1 2.89989e-05 0.286477 0.5
122 1 0.0250433 0.334178 0.5
123 1 0.0500368 0.286482 0.5
124 1 0.0750518 0.334186 0.5
125 1 0.100043 0.286488 0.5
126 1 0.125058 0.334196 0.5
127 1 0.150047 0.286496 0.5
128 1 0.175061 0.334208 0.5
129 1 0.200048 0.286505 0.5
130 1 0.225062 0.334221 0.5
131 1 0.250046 0.286513 0.5
132 1 0.275059 0.334232 0.5
133 1 0.300042 0.286521 0.5
134 1 0.325052 0.334241 0.5
135 1 0.350035 0.286526 0.5
136 1 0.375043 0.334247 0.5
137 1 0.400027 0.286529 0.5
138 1 0.425032 0.33425 0.5
139 1 0.450018 0.286529 0.5
140 1 0.47502 0.334249 0.5
141 1 0.500009 0.286526 0.5
142 1 0.525009 0.334244 0.5
143 1 0.55 0.286522 0.5
144 1 0.574999 0.334236 0.5
145 1 0.599994 0.286516 0.5
146 1 0.624992 0.334226 0.5
147 1 0.64999 0.286508 0.5
148 1 0.674989 0.334215 0.5
149 1 0.699989 0.2865 0.5
150 1 0.724989 0.334203 0.5
151 1 0.749991 0.286493 0.5
152 1 0.774993 0.334192 0.5
153 1 0.799995 0.286485 0.5
154 1 0.825001 0.334182 0.5
155 1 0.850002 0.28648 0.5
156 1 0.875011 0.334176 0.5
157 1 0.900011 0.286476 0.5
158 1 0.925022 0.334172 0.5
159 1 0.95002 0.286475 0.5
160 1 0.975033 0.334173 0.5
161 1 4.92269e-05 0.381871 0.5
162 1 0.0250685 0.42957 0.5
163 1 0.0500603 0.381879 0.5
164 1 0.0750797 0.429583 0.5
165 1 0.100069 0.381892 0.5
166 1 0.125088 0.429602 0.5
167 1 0.150075 0.381907 0.5
168 1 0.175094 0.429622 0.5
169 1 0.200078 0.381924 0.5
170 1 0.225096 0.429644 0.5
171 1 0.250077 0.38194 0.5
172 1 0.275095 0.429665 0.5
173 1 0.300072 0.381955 0.5
174 1 0.325088 0.429683 0.5
175 1 0.350064 0.381966 0.5
176 1 0.375077 0.429696 0.5
177 1 0.400052 0.381973 0.5
178 1 0.425061 0.429702 0.5
179 1 0.450038 0.381974 0.5
180 1 0.475044 0.429702 0.5
181 1 0.500023 0.38197 0.5
182 1 0.525025 0.429694 0.5
183 1 0.550009 0.381962 0.5
184 1 0.575009 0.42968 0.5
185 1 0.599998 0.381949 0.5
186 1 0.624998 0.429661 0.5
187 1 0.649991 0.381934 0.5
188 1 0.674991 0.429639 0.5
189 1 0.699989 0.381918 0.5
190 1 0.724992 0.429616 0.5
191 1 0.749992 0.381901 0.5
192 1 0.774999 0.429595 0.5
193 1 0.799999 0.381887 0.5
194 1 0.82501 0.429577 0.5
195 1 0.85001 0.381875 0.5
196 1 0.875025 0.429565 0.5
197 1 0.900023 0.381869 0.5
198 1 0.92504 0.429559 0.5
199 1 0.950037 0.381867 0.5
200 1 0.975055 0.429561 0.5
201 1 7.68207e-05 0.477256 0.5
202 1 0.0251005 0.524954 0.5
203 1 0.05009 0.477271 0.5
204 1 0.0751129 0.524975 0.5
205 1 0.100101 0.477291 0.5
206 1 0.125124 0.525002 0.5
207 1 0.15011 0.477315 0.5
208 1 0.175132 0.525033 0.5
209 1 0.200115 0.477342 0.5
210 1 0.225139 0.525067 0.5
211 1 0.250117 0.47737 0.5
212 1 0.275141 0.525101 0.5
213 1 0.300115 0.477396 0.5
214 1 0.325138 0.525133 0.5
215 1 0.350106 0.477417 0.5
216 1 0.375127 0.525159 0.5
217 1 0.400092 0.477432 0.5
218 1 0.425109 0.525175 0.5
219 1 0.450072 0.477437 0.5
220 1 0.475084 0.525177 0.5
221 1 0.50005 0.477432 0.5
222 1 0.525056 0.525166 0.5
223 1 0.550028 0.477418 0.5
224 1 0.575031 0.525143 0.5
225 1 0.60001 0.477396 0.5
226 1 0.625011 0.52511 0.5
227 1 0.649998 0.477369 0.5
228 1 0.675002 0.52507 0.5
229 1 0.699995 0.477338 0.5
230 1 0.725003 0.525029 0.5
231 1 0.75 0.477308 0.5
232 1 0.775014 0.524991 0.5
233 1 0.800011 0.477281 0.5
234 1 0.825032 0.524961 0.5
235 1 0.850027 0.477262 0.5
236 1 0.875051 0.524942 0.5
237 1 0.900045 0.477251 0.5
238 1 0.92507 0.524936 0.5
239 1 0.950062 0.477249 0.5
240 1 0.975086 0.52494 0.5
241 1 0.000112302 0.572635 0.5
242 1 0.0251373 0.620334 0.5
243 1 0.0501246 0.572656 0.5
244 1 0.0751474 0.620362 0.5
245 1 0.100136 0.572684 0.5
246 1 0.125158 0.620397 0.5
247 1 0.150147 0.572718 0.5
248 1 0.17517 0.620438 0.5
249 1 0.200157 0.572756 0.5
250 1 0.225182 0.620484 0.5
251 1 0.250165 0.572798 0.5
252 1 0.275193 0.620534 0.5
253 1 0.300168 0.57284 0.5
254 1 0.3252 0.620587 0.5
255 1 0.350165 0.572879 0.5
256 1 0.375197 0.620635 0.5
257 1 0.400152 0.57291 0.5
258 1 0.425181 0.620672 0.5
259 1 0.450129 0.572926 0.5
260 1 0.475151 0.620688 0.5
261 1 0.500097 0.572924 0.5
262 1 0.52511 0.620677 0.5
263 1 0.550063 0.572903 0.5
264 1 0.575068 0.62064 0.5
265 1 0.600033 0.572865 0.5
266 1 0.625038 0.620581 0.5
267 1 0.650015 0.572816 0.5
268 1 0.675026 0.620509 0.5
269 1 0.700011 0.572761 0.5
270 1 0.725033 0.620435 0.5
271 1 0.750021 0.572707 0.5
272 1 0.775053 0.620371 0.5
273 1 0.80004 0.572663 0.5
274 1 0.825077 0.620328 0.5
275 1 0.850061 0.572634 0.5
276 1 0.875098 0.620306 0.5
277 1 0.900081 0.572621 0.5
278 1 0.925114 0.620303 0.5
279 1 0.950098 0.572622 0.5
280 1 0.975127 0.620313 0.5
281 1 0.00015273 0.66801 0.5
282 1 0.025173 0.715713 0.5
283 1 0.0501592 0.668038 0.5
284 1 0.075176 0.715747 0.5
285 1 0.100167 0.668073 0.5
286 1 0.125183 0.715787 0.5
287 1 0.150178 0.668114 0.5
288 1 0.175196 0.715833 0.5
289 1 0.200192 0.668161 0.5
290 1 0.225214 0.715888 0.5
291 1 0.250209 0.668216 0.5
292 1 0.275235 0.715953 0.5
293 1 0.300224 0.668278 0.5
294 1 0.325258 0.716028 0.5
295 1 0.350236 0.668343 0.5
296 1 0.375276 0.716111 0.5
297 1 0.400235 0.668405 0.5
298 1 0.42528 0.716192 0.5
299 1 0.450216 0.66845 0.5
300 1 0.475256 0.716249 0.5
301 1 0.500175 0.668463 0.5
302 1 0.5252 0.716254 0.5
303 1 0.550122 0.668436 0.5
304 1 0.575133 0.716196 0.5
305 1 0.600075 0.668371 0.5
306 1 0.625086 0.716085 0.5
307 1 0.650049 0.668279 0.5
308 1 0.675078 0.715946 0.5
309 1 0.700051 0.668178 0.5
310 1 0.725108 0.715811 0.5
311 1 0.750075 0.668086 0.5
312 1 0.77514 0.715722 0.5
313 1 0.800102 0.668023 0.5
314 1 0.82516 0.715676 0.5
315 1 0.850123 0.667991 0.5
316 1 0.87517 0.715662 0.5
317 1 0.900137 0.667982 0.5
318 1 0.925173 0.715668 0.5
319 1 0.950146 0.66799 0.5
320 1 0.975173 0.715687 0.5
321 1 0.000190545 0.763391 0.5
322 1 0.0251982 0.811101 0.5
323 1 0.0501857 0.763422 0.5
324 1 0.07519 0.811135 0.5
325 1 0.100186 0.76346 0.5
326 1 0.12519 0.811174 0.5
327 1 0.150194 0.763503 0.5
328 1 0.175198 0.81122 0.5
329 1 0.200209 0.763555 0.5
330 1 0.225216 0.811277 0.5
331 1 0.250232 0.763617 0.5
332 1 0.275244 0.811349 0.5
333 1 0.300261 0.763694 0.5
334 1 0.325281 0.81144 0.5
335 1 0.350293 0.763787 0.5
336 1 0.375326 0.811554 0.5
337 1 0.400322 0.763894 0.5
338 1 0.425369 0.811695 0.5
339 1 0.450333 0.764004 0.5
340 1 0.475396 0.811855 0.5
341 1 0.500303 0.764079 0.5
342 1 0.525356 0.811957 0.5
343 1 0.550224 0.764062 0.5
344 1 0.575248 0.811875 0.5
345 1 0.600146 0.763942 0.5
346 1 0.625175 0.811636 0.5
347 1 0.650118 0.763754 0.5
348 1 0.675244 0.811304 0.5
349 1 0.70016 0.763548 0.5
350 1 0.725287 0.811126 0.5
351 1 0.750198 0.763423 0.5
352 1 0.775296 0.81105 0.5
353 1 0.800215 0.763362 0.5
354 1 0.825282 0.811027 0.5
355 1 0.850217 0.763343 0.5
356 1 0.875259 0.81103 0.5
357 1 0.900209 0.763347 0.5
358 1 0.925234 0.811047 0.5
359 1 0.950199 0.763365 0.5
360 1 0.975213 0.811072 0.5
361 1 0.000214221 0.858785 0.5
362 1 0.0252026 0.906504 0.5
363 1 0.0501952 0.858816 0.5
364 1 0.0751822 0.906534 0.5
365 1 0.100185 0.85885 0.5
366 1 0.125172 0.906568 0.5
367 1 0.150185 0.85889 0.5
368 1 0.175171 0.906609 0.5
369 1 0.200194 0.858939 0.5
370 1 0.225179 0.90666 0.5
371 1 0.250214 0.859001 0.5
372 1 0.275199 0.906728 0.5
373 1 0.300247 0.859082 0.5
374 1 0.325233 0.90682 0.5
375 1 0.350292 0.859189 0.5
376 1 0.375285 0.906945 0.5
377 1 0.400349 0.859333 0.5
378 1 0.425363 0.907122 0.5
393 1 0.800371 0.858717 0.5
394 1 0.825405 0.906424 0.5
395 1 0.850323 0.85872 0.5
396 1 0.875333 0.906436 0.5
397 1 0.900279 0.858736 0.5
398 1 0.925277 0.906455 0.5
399 1 0.950242 0.858758 0.5
400 1 0.975234 0.906478 0.5
401 1 0.000211941 0.954401 0.5
402 1 0.0501809 0.954425 0.5
403 1 0.10016 0.954454 0.5
404 1 0.150149 0.954487 0.5
405 1 0.200146 0.95453 0.5
406 1 0.250151 0.954586 0.5
407 1 0.300166 0.954661 0.5
408 1 0.350196 0.954763 0.5
409 1 0.400249 0.954906 0.5
417 1 0.800507 0.954348 0.5
418 1 0.850397 0.954352 0.5
419 1 0.900316 0.954363 0.5
420 1 0.950256 0.95438 0.5
ITEM: TIMESTEP
10
ITEM: NUMBER OF ATOMS
399
ITEM: BOX BOUNDS pp ss pp
0.0000000000000000e+00 2.2653923264628304e+01
2.1917670042342338e-01 2.0312268024904707e+01
-2.8317404080785380e-01 2.8317404080785380e-01
ITEM: ATOMS id type xs ys zs
1 2 0 9.81117e-05 0.5
2 2 0.025 0.0479825 0.5
3 2 0.05 9.81117e-05 0.5
4 2 0.075 0.0479825 0.5
5 2 0.1 9.81117e-05 0.5
6 2 0.125 0.0479825 0.5
7 2 0.15 9.81117e-05 0.5
8 2 0.175 0.0479825 0.5
9 2 0.2 9.81117e-05 0.5
10 2 0.225 0.0479825 0.5
11 2 0.25 9.81117e-05 0.5
12 2 0.275 0.0479825 0.5
13 2 0.3 9.81117e-05 0.5
14 2 0.325 0.0479825 0.5
15 2 0.35 9.81117e-05 0.5
16 2 0.375 0.0479825 0.5
17 2 0.4 9.81117e-05 0.5
18 2 0.425 0.0479825 0.5
19 2 0.45 9.81117e-05 0.5
20 2 0.475 0.0479825 0.5
21 2 0.5 9.81117e-05 0.5
22 2 0.525 0.0479825 0.5
23 2 0.55 9.81117e-05 0.5
24 2 0.575 0.0479825 0.5
25 2 0.6 9.81117e-05 0.5
26 2 0.625 0.0479825 0.5
27 2 0.65 9.81117e-05 0.5
28 2 0.675 0.0479825 0.5
29 2 0.7 9.81117e-05 0.5
30 2 0.725 0.0479825 0.5
31 2 0.75 9.81117e-05 0.5
32 2 0.775 0.0479825 0.5
33 2 0.8 9.81117e-05 0.5
34 2 0.825 0.0479825 0.5
35 2 0.85 9.81117e-05 0.5
36 2 0.875 0.0479825 0.5
37 2 0.9 9.81117e-05 0.5
38 2 0.925 0.0479825 0.5
39 2 0.95 9.81117e-05 0.5
40 2 0.975 0.0479825 0.5
41 2 2.43656e-18 0.0956706 0.5
42 1 0.0250083 0.143375 0.5
43 2 0.05 0.0956706 0.5
44 1 0.0750104 0.143376 0.5
45 2 0.1 0.0956706 0.5
46 1 0.125012 0.143377 0.5
47 2 0.15 0.0956706 0.5
48 1 0.175012 0.143378 0.5
49 2 0.2 0.0956706 0.5
50 1 0.225012 0.143379 0.5
51 2 0.25 0.0956706 0.5
52 1 0.275011 0.143381 0.5
53 2 0.3 0.0956706 0.5
54 1 0.325009 0.143382 0.5
55 2 0.35 0.0956706 0.5
56 1 0.375007 0.143382 0.5
57 2 0.4 0.0956706 0.5
58 1 0.425005 0.143382 0.5
59 2 0.45 0.0956706 0.5
60 1 0.475002 0.143382 0.5
61 2 0.5 0.0956706 0.5
62 1 0.525 0.143381 0.5
63 2 0.55 0.0956706 0.5
64 1 0.574998 0.143381 0.5
65 2 0.6 0.0956706 0.5
66 1 0.624996 0.14338 0.5
67 2 0.65 0.0956706 0.5
68 1 0.674996 0.143379 0.5
69 2 0.7 0.0956706 0.5
70 1 0.724996 0.143377 0.5
71 2 0.75 0.0956706 0.5
72 1 0.774997 0.143376 0.5
73 2 0.8 0.0956706 0.5
74 1 0.824999 0.143375 0.5
75 2 0.85 0.0956706 0.5
76 1 0.875001 0.143375 0.5
77 2 0.9 0.0956706 0.5
78 1 0.925003 0.143374 0.5
79 2 0.95 0.0956706 0.5
80 1 0.975006 0.143374 0.5
81 1 1.42209e-05 0.191077 0.5
82 1 0.0250249 0.23878 0.5
83 1 0.0500185 0.191079 0.5
84 1 0.0750304 0.238783 0.5
85 1 0.100022 0.191081 0.5
86 1 0.125034 0.238788 0.5
87 1 0.150024 0.191084 0.5
88 1 0.175036 0.238794 0.5
89 1 0.200024 0.191088 0.5
90 1 0.225036 0.238799 0.5
91 1 0.250023 0.191091 0.5
92 1 0.275033 0.238804 0.5
93 1 0.30002 0.191093 0.5
94 1 0.325029 0.238808 0.5
95 1 0.350017 0.191095 0.5
96 1 0.375023 0.238811 0.5
97 1 0.400012 0.191096 0.5
98 1 0.425016 0.238812 0.5
99 1 0.450007 0.191096 0.5
100 1 0.475009 0.238811 0.5
101 1 0.500003 0.191095 0.5
102 1 0.525002 0.238809 0.5
103 1 0.549998 0.191093 0.5
104 1 0.574997 0.238805 0.5
105 1 0.599995 0.191091 0.5
106 1 0.624993 0.238801 0.5
107 1 0.649993 0.191088 0.5
108 1 0.674991 0.238796 0.5
109 1 0.699993 0.191086 0.5
110 1 0.724991 0.238791 0.5
111 1 0.749994 0.191083 0.5
112 1 0.774994 0.238786 0.5
113 1 0.799996 0.19108 0.5
114 1 0.824998 0.238782 0.5
115 1 0.85 0.191078 0.5
116 1 0.875004 0.238779 0.5
117 1 0.900004 0.191077 0.5
118 1 0.925011 0.238777 0.5
119 1 0.950009 0.191076 0.5
120 1 0.975018 0.238777 0.5
121 1 3.00358e-05 0.286478 0.5
122 1 0.0250447 0.334178 0.5
123 1 0.050038 0.286482 0.5
124 1 0.0750534 0.334186 0.5
125 1 0.100044 0.286489 0.5
126 1 0.12506 0.334197 0.5
127 1 0.150048 0.286497 0.5
128 1 0.175063 0.334209 0.5
129 1 0.200049 0.286506 0.5
130 1 0.225064 0.334222 0.5
131 1 0.250048 0.286514 0.5
132 1 0.275061 0.334233 0.5
133 1 0.300044 0.286522 0.5
134 1 0.325054 0.334242 0.5
135 1 0.350037 0.286527 0.5
136 1 0.375045 0.334249 0.5
137 1 0.400029 0.28653 0.5
138 1 0.425034 0.334251 0.5
139 1 0.450019 0.28653 0.5
140 1 0.475022 0.33425 0.5
141 1 0.50001 0.286528 0.5
142 1 0.52501 0.334245 0.5
143 1 0.550001 0.286523 0.5
144 1 0.575 0.334238 0.5
145 1 0.599995 0.286517 0.5
146 1 0.624993 0.334228 0.5
147 1 0.64999 0.28651 0.5
148 1 0.674989 0.334216 0.5
149 1 0.699989 0.286501 0.5
150 1 0.72499 0.334204 0.5
151 1 0.749991 0.286493 0.5
152 1 0.774994 0.334193 0.5
153 1 0.799996 0.286486 0.5
154 1 0.825001 0.334183 0.5
155 1 0.850003 0.286481 0.5
156 1 0.875011 0.334176 0.5
157 1 0.900012 0.286477 0.5
158 1 0.925023 0.334173 0.5
159 1 0.950021 0.286476 0.5
160 1 0.975034 0.334174 0.5
161 1 5.07975e-05 0.381871 0.5
162 1 0.0250704 0.42957 0.5
163 1 0.0500621 0.38188 0.5
164 1 0.075082 0.429584 0.5
165 1 0.100071 0.381893 0.5
166 1 0.125091 0.429602 0.5
167 1 0.150077 0.381908 0.5
168 1 0.175097 0.429623 0.5
169 1 0.20008 0.381925 0.5
170 1 0.225099 0.429645 0.5
171 1 0.25008 0.381942 0.5
172 1 0.275097 0.429667 0.5
173 1 0.300075 0.381956 0.5
174 1 0.325091 0.429685 0.5
175 1 0.350066 0.381968 0.5
176 1 0.375079 0.429698 0.5
177 1 0.400054 0.381974 0.5
178 1 0.425064 0.429705 0.5
179 1 0.45004 0.381976 0.5
180 1 0.475046 0.429704 0.5
181 1 0.500025 0.381972 0.5
182 1 0.525027 0.429696 0.5
183 1 0.550011 0.381964 0.5
184 1 0.575011 0.429682 0.5
185 1 0.599999 0.381951 0.5
186 1 0.624999 0.429663 0.5
187 1 0.649992 0.381936 0.5
188 1 0.674993 0.429641 0.5
189 1 0.69999 0.381919 0.5
190 1 0.724993 0.429618 0.5
191 1 0.749993 0.381903 0.5
192 1 0.775 0.429596 0.5
193 1 0.8 0.381888 0.5
194 1 0.825011 0.429578 0.5
195 1 0.850011 0.381876 0.5
196 1 0.875026 0.429566 0.5
197 1 0.900024 0.381869 0.5
198 1 0.925042 0.42956 0.5
199 1 0.950038 0.381868 0.5
200 1 0.975057 0.429562 0.5
201 1 7.89175e-05 0.477257 0.5
202 1 0.025103 0.524955 0.5
203 1 0.0500924 0.477271 0.5
204 1 0.0751157 0.524976 0.5
205 1 0.100104 0.477291 0.5
206 1 0.125127 0.525003 0.5
207 1 0.150113 0.477316 0.5
208 1 0.175136 0.525034 0.5
209 1 0.200118 0.477343 0.5
210 1 0.225142 0.525068 0.5
211 1 0.250121 0.477371 0.5
212 1 0.275145 0.525103 0.5
213 1 0.300118 0.477398 0.5
214 1 0.325141 0.525135 0.5
215 1 0.350109 0.477419 0.5
216 1 0.375131 0.525162 0.5
217 1 0.400095 0.477434 0.5
218 1 0.425112 0.525178 0.5
219 1 0.450075 0.47744 0.5
220 1 0.475087 0.525181 0.5
221 1 0.500052 0.477435 0.5
222 1 0.525059 0.52517 0.5
223 1 0.55003 0.477421 0.5
224 1 0.575033 0.525146 0.5
225 1 0.600012 0.477399 0.5
226 1 0.625013 0.525113 0.5
227 1 0.65 0.477371 0.5
228 1 0.675003 0.525073 0.5
229 1 0.699996 0.47734 0.5
230 1 0.725005 0.525031 0.5
231 1 0.750001 0.47731 0.5
232 1 0.775016 0.524993 0.5
233 1 0.800012 0.477283 0.5
234 1 0.825033 0.524962 0.5
235 1 0.850028 0.477263 0.5
236 1 0.875053 0.524943 0.5
237 1 0.900046 0.477252 0.5
238 1 0.925072 0.524936 0.5
239 1 0.950063 0.47725 0.5
240 1 0.975088 0.524941 0.5
241 1 0.00011489 0.572635 0.5
242 1 0.0251403 0.620334 0.5
243 1 0.0501275 0.572656 0.5
244 1 0.0751506 0.620362 0.5
245 1 0.100139 0.572684 0.5
246 1 0.125162 0.620397 0.5
247 1 0.15015 0.572719 0.5
248 1 0.175174 0.620439 0.5
249 1 0.20016 0.572757 0.5
250 1 0.225186 0.620485 0.5
251 1 0.250168 0.572799 0.5
252 1 0.275197 0.620536 0.5
253 1 0.300172 0.572842 0.5
254 1 0.325203 0.620589 0.5
255 1 0.350169 0.572882 0.5
256 1 0.375201 0.620638 0.5
257 1 0.400156 0.572913 0.5
258 1 0.425185 0.620676 0.5
259 1 0.450132 0.57293 0.5
260 1 0.475154 0.620692 0.5
261 1 0.500099 0.572928 0.5
262 1 0.525112 0.620681 0.5
263 1 0.550065 0.572907 0.5
264 1 0.575071 0.620644 0.5
265 1 0.600036 0.572869 0.5
266 1 0.62504 0.620584 0.5
267 1 0.650017 0.572819 0.5
268 1 0.675028 0.620512 0.5
269 1 0.700013 0.572764 0.5
270 1 0.725034 0.620438 0.5
271 1 0.750023 0.57271 0.5
272 1 0.775055 0.620373 0.5
273 1 0.800041 0.572665 0.5
274 1 0.825079 0.620329 0.5
275 1 0.850063 0.572635 0.5
276 1 0.8751 0.620307 0.5
277 1 0.900083 0.572622 0.5
278 1 0.925117 0.620303 0.5
279 1 0.9501 0.572623 0.5
280 1 0.97513 0.620313 0.5
281 1 0.000155738 0.66801 0.5
282 1 0.0251763 0.715713 0.5
283 1 0.0501625 0.668038 0.5
284 1 0.0751795 0.715747 0.5
285 1 0.100171 0.668073 0.5
286 1 0.125187 0.715787 0.5
287 1 0.150182 0.668114 0.5
288 1 0.175199 0.715834 0.5
289 1 0.200196 0.668163 0.5
290 1 0.225217 0.71589 0.5
291 1 0.250212 0.668218 0.5
292 1 0.275239 0.715955 0.5
293 1 0.300228 0.66828 0.5
294 1 0.325262 0.716031 0.5
295 1 0.350239 0.668346 0.5
296 1 0.37528 0.716115 0.5
297 1 0.400239 0.668408 0.5
298 1 0.425283 0.716197 0.5
299 1 0.450219 0.668454 0.5
300 1 0.475257 0.71625 0.5
301 1 0.500178 0.668468 0.5
302 1 0.525201 0.716252 0.5
303 1 0.550125 0.668441 0.5
304 1 0.575134 0.716189 0.5
305 1 0.600077 0.668376 0.5
306 1 0.625088 0.716076 0.5
307 1 0.650051 0.668284 0.5
308 1 0.675081 0.715939 0.5
309 1 0.700053 0.668182 0.5
310 1 0.725116 0.715804 0.5
311 1 0.750077 0.668089 0.5
312 1 0.775141 0.715725 0.5
313 1 0.800104 0.668025 0.5
314 1 0.825163 0.715678 0.5
315 1 0.850125 0.667992 0.5
316 1 0.875173 0.715663 0.5
317 1 0.90014 0.667983 0.5
318 1 0.925176 0.715668 0.5
319 1 0.950149 0.667991 0.5
320 1 0.975176 0.715686 0.5
321 1 0.000193874 0.76339 0.5
322 1 0.0252016 0.811101 0.5
323 1 0.0501892 0.763422 0.5
324 1 0.0751935 0.811135 0.5
325 1 0.10019 0.763459 0.5
326 1 0.125193 0.811174 0.5
327 1 0.150198 0.763503 0.5
328 1 0.175202 0.811221 0.5
329 1 0.200213 0.763556 0.5
330 1 0.225219 0.811279 0.5
331 1 0.250235 0.763619 0.5
332 1 0.275247 0.811351 0.5
333 1 0.300264 0.763697 0.5
334 1 0.325284 0.811443 0.5
335 1 0.350297 0.763791 0.5
336 1 0.375331 0.811561 0.5
337 1 0.400327 0.763901 0.5
338 1 0.425376 0.811707 0.5
339 1 0.450334 0.764009 0.5
340 1 0.475372 0.811838 0.5
341 1 0.500283 0.764048 0.5
342 1 0.525257 0.811785 0.5
343 1 0.550214 0.764015 0.5
344 1 0.575213 0.811673 0.5
345 1 0.600144 0.763887 0.5
346 1 0.625224 0.811419 0.5
347 1 0.650129 0.763701 0.5
348 1 0.675388 0.811085 0.5
349 1 0.700196 0.763496 0.5
350 1 0.725323 0.811109 0.5
351 1 0.750205 0.763424 0.5
352 1 0.775302 0.811053 0.5
353 1 0.800217 0.763365 0.5
354 1 0.825284 0.811029 0.5
355 1 0.850219 0.763344 0.5
356 1 0.875262 0.811031 0.5
357 1 0.900212 0.763348 0.5
358 1 0.925238 0.811047 0.5
359 1 0.950202 0.763365 0.5
360 1 0.975217 0.811071 0.5
361 1 0.000217759 0.858785 0.5
362 1 0.0252061 0.906504 0.5
363 1 0.0501987 0.858815 0.5
364 1 0.0751854 0.906534 0.5
365 1 0.100189 0.85885 0.5
366 1 0.125175 0.906568 0.5
367 1 0.150188 0.85889 0.5
368 1 0.175173 0.90661 0.5
369 1 0.200197 0.85894 0.5
370 1 0.225182 0.906662 0.5
371 1 0.250217 0.859003 0.5
372 1 0.275201 0.906731 0.5
373 1 0.300249 0.859085 0.5
374 1 0.325236 0.906823 0.5
375 1 0.350296 0.859193 0.5
376 1 0.375287 0.906949 0.5
377 1 0.400357 0.85934 0.5
378 1 0.42534 0.907128 0.5
393 1 0.800377 0.858719 0.5
394 1 0.825411 0.906426 0.5
395 1 0.850327 0.858721 0.5
396 1 0.875337 0.906437 0.5
397 1 0.900283 0.858736 0.5
398 1 0.925281 0.906455 0.5
399 1 0.950246 0.858758 0.5
400 1 0.975237 0.906478 0.5
401 1 0.000215589 0.9544 0.5
402 1 0.0501841 0.954425 0.5
403 1 0.100163 0.954453 0.5
404 1 0.150151 0.954488 0.5
405 1 0.200147 0.954532 0.5
406 1 0.250152 0.954588 0.5
407 1 0.300168 0.954664 0.5
408 1 0.350196 0.954767 0.5
409 1 0.400227 0.954914 0.5
417 1 0.800514 0.954354 0.5
418 1 0.850402 0.954353 0.5
419 1 0.90032 0.954364 0.5
420 1 0.95026 0.95438 0.5
ITEM: TIMESTEP
20
ITEM: NUMBER OF ATOMS
399
ITEM: BOX BOUNDS pp ss pp
0.0000000000000000e+00 2.2653923264628304e+01
2.1917670042342338e-01 2.0459024741675208e+01
-2.8317404080785380e-01 2.8317404080785380e-01
ITEM: ATOMS id type xs ys zs
1 2 0 9.74003e-05 0.5
2 2 0.025 0.0476346 0.5
3 2 0.05 9.74003e-05 0.5
4 2 0.075 0.0476346 0.5
5 2 0.1 9.74003e-05 0.5
6 2 0.125 0.0476346 0.5
7 2 0.15 9.74003e-05 0.5
8 2 0.175 0.0476346 0.5
9 2 0.2 9.74003e-05 0.5
10 2 0.225 0.0476346 0.5
11 2 0.25 9.74003e-05 0.5
12 2 0.275 0.0476346 0.5
13 2 0.3 9.74003e-05 0.5
14 2 0.325 0.0476346 0.5
15 2 0.35 9.74003e-05 0.5
16 2 0.375 0.0476346 0.5
17 2 0.4 9.74003e-05 0.5
18 2 0.425 0.0476346 0.5
19 2 0.45 9.74003e-05 0.5
20 2 0.475 0.0476346 0.5
21 2 0.5 9.74003e-05 0.5
22 2 0.525 0.0476346 0.5
23 2 0.55 9.74003e-05 0.5
24 2 0.575 0.0476346 0.5
25 2 0.6 9.74003e-05 0.5
26 2 0.625 0.0476346 0.5
27 2 0.65 9.74003e-05 0.5
28 2 0.675 0.0476346 0.5
29 2 0.7 9.74003e-05 0.5
30 2 0.725 0.0476346 0.5
31 2 0.75 9.74003e-05 0.5
32 2 0.775 0.0476346 0.5
33 2 0.8 9.74003e-05 0.5
34 2 0.825 0.0476346 0.5
35 2 0.85 9.74003e-05 0.5
36 2 0.875 0.0476346 0.5
37 2 0.9 9.74003e-05 0.5
38 2 0.925 0.0476346 0.5
39 2 0.95 9.74003e-05 0.5
40 2 0.975 0.0476346 0.5
41 2 2.43656e-18 0.0949769 0.5
42 1 0.025009 0.142336 0.5
43 2 0.05 0.0949769 0.5
44 1 0.0750111 0.142337 0.5
45 2 0.1 0.0949769 0.5
46 1 0.125013 0.142338 0.5
47 2 0.15 0.0949769 0.5
48 1 0.175013 0.142339 0.5
49 2 0.2 0.0949769 0.5
50 1 0.225013 0.14234 0.5
51 2 0.25 0.0949769 0.5
52 1 0.275012 0.142341 0.5
53 2 0.3 0.0949769 0.5
54 1 0.32501 0.142342 0.5
55 2 0.35 0.0949769 0.5
56 1 0.375008 0.142343 0.5
57 2 0.4 0.0949769 0.5
58 1 0.425005 0.142343 0.5
59 2 0.45 0.0949769 0.5
60 1 0.475003 0.142343 0.5
61 2 0.5 0.0949769 0.5
62 1 0.525 0.142342 0.5
63 2 0.55 0.0949769 0.5
64 1 0.574998 0.142342 0.5
65 2 0.6 0.0949769 0.5
66 1 0.624997 0.142341 0.5
67 2 0.65 0.0949769 0.5
68 1 0.674996 0.142339 0.5
69 2 0.7 0.0949769 0.5
70 1 0.724996 0.142338 0.5
71 2 0.75 0.0949769 0.5
72 1 0.774997 0.142337 0.5
73 2 0.8 0.0949769 0.5
74 1 0.824999 0.142336 0.5
75 2 0.85 0.0949769 0.5
76 1 0.875001 0.142336 0.5
77 2 0.9 0.0949769 0.5
78 1 0.925004 0.142335 0.5
79 2 0.95 0.0949769 0.5
80 1 0.975006 0.142335 0.5
81 1 1.5375e-05 0.189692 0.5
82 1 0.0250268 0.237049 0.5
83 1 0.0500199 0.189694 0.5
84 1 0.0750326 0.237053 0.5
85 1 0.100023 0.189697 0.5
86 1 0.125037 0.237058 0.5
87 1 0.150025 0.1897 0.5
88 1 0.175039 0.237063 0.5
89 1 0.200026 0.189703 0.5
90 1 0.225039 0.237069 0.5
91 1 0.250025 0.189706 0.5
92 1 0.275036 0.237074 0.5
93 1 0.300022 0.189709 0.5
94 1 0.325032 0.237079 0.5
95 1 0.350019 0.18971 0.5
96 1 0.375026 0.237081 0.5
97 1 0.400014 0.189711 0.5
98 1 0.425018 0.237082 0.5
99 1 0.450009 0.189712 0.5
100 1 0.475011 0.237082 0.5
101 1 0.500004 0.189711 0.5
102 1 0.525004 0.237079 0.5
103 1 0.549999 0.189709 0.5
104 1 0.574998 0.237076 0.5
105 1 0.599996 0.189707 0.5
106 1 0.624994 0.237071 0.5
107 1 0.649994 0.189704 0.5
108 1 0.674992 0.237066 0.5
109 1 0.699993 0.189701 0.5
110 1 0.724992 0.237061 0.5
111 1 0.749994 0.189698 0.5
112 1 0.774994 0.237056 0.5
113 1 0.799997 0.189696 0.5
114 1 0.824999 0.237052 0.5
115 1 0.850001 0.189694 0.5
116 1 0.875005 0.237049 0.5
117 1 0.900005 0.189692 0.5
118 1 0.925012 0.237047 0.5
119 1 0.95001 0.189692 0.5
120 1 0.97502 0.237047 0.5
121 1 3.23704e-05 0.284402 0.5
122 1 0.0250479 0.331757 0.5
123 1 0.0500407 0.284406 0.5
124 1 0.0750571 0.331765 0.5
125 1 0.100047 0.284413 0.5
126 1 0.125064 0.331775 0.5
127 1 0.150052 0.284421 0.5
128 1 0.175068 0.331788 0.5
129 1 0.200053 0.28443 0.5
130 1 0.225068 0.3318 0.5
131 1 0.250052 0.284439 0.5
132 1 0.275065 0.331812 0.5
133 1 0.300047 0.284446 0.5
134 1 0.325059 0.331822 0.5
135 1 0.350041 0.284452 0.5
136 1 0.37505 0.331828 0.5
137 1 0.400032 0.284455 0.5
138 1 0.425038 0.331831 0.5
139 1 0.450022 0.284455 0.5
140 1 0.475025 0.33183 0.5
141 1 0.500012 0.284453 0.5
142 1 0.525013 0.331825 0.5
143 1 0.550003 0.284448 0.5
144 1 0.575003 0.331818 0.5
145 1 0.599996 0.284442 0.5
146 1 0.624995 0.331807 0.5
147 1 0.649992 0.284435 0.5
148 1 0.674991 0.331796 0.5
149 1 0.699991 0.284426 0.5
150 1 0.724991 0.331784 0.5
151 1 0.749992 0.284418 0.5
152 1 0.774995 0.331772 0.5
153 1 0.799997 0.284411 0.5
154 1 0.825003 0.331762 0.5
155 1 0.850004 0.284405 0.5
156 1 0.875013 0.331755 0.5
157 1 0.900013 0.284401 0.5
158 1 0.925025 0.331752 0.5
159 1 0.950023 0.2844 0.5
160 1 0.975037 0.331752 0.5
161 1 5.43193e-05 0.379104 0.5
162 1 0.0250749 0.426457 0.5
163 1 0.0500662 0.379112 0.5
164 1 0.075087 0.426471 0.5
165 1 0.100076 0.379125 0.5
166 1 0.125097 0.426489 0.5
167 1 0.150082 0.379141 0.5
168 1 0.175103 0.42651 0.5
169 1 0.200086 0.379158 0.5
170 1 0.225106 0.426533 0.5
171 1 0.250085 0.379175 0.5
172 1 0.275104 0.426554 0.5
173 1 0.30008 0.37919 0.5
174 1 0.325097 0.426573 0.5
175 1 0.350071 0.379202 0.5
176 1 0.375085 0.426586 0.5
177 1 0.400059 0.379209 0.5
178 1 0.425069 0.426593 0.5
179 1 0.450044 0.37921 0.5
180 1 0.475051 0.426593 0.5
181 1 0.500029 0.379207 0.5
182 1 0.525032 0.426585 0.5
183 1 0.550014 0.379198 0.5
184 1 0.575015 0.426571 0.5
185 1 0.600002 0.379186 0.5
186 1 0.625002 0.426551 0.5
187 1 0.649994 0.37917 0.5
188 1 0.674995 0.426529 0.5
189 1 0.699992 0.379154 0.5
190 1 0.724995 0.426506 0.5
191 1 0.749994 0.379137 0.5
192 1 0.775002 0.426484 0.5
193 1 0.800002 0.379122 0.5
194 1 0.825014 0.426466 0.5
195 1 0.850013 0.37911 0.5
196 1 0.875029 0.426453 0.5
197 1 0.900027 0.379102 0.5
198 1 0.925045 0.426447 0.5
199 1 0.950041 0.3791 0.5
200 1 0.975061 0.426449 0.5
201 1 8.35968e-05 0.473798 0.5
202 1 0.0251086 0.521149 0.5
203 1 0.0500978 0.473812 0.5
204 1 0.0751219 0.52117 0.5
205 1 0.10011 0.473832 0.5
206 1 0.125133 0.521198 0.5
207 1 0.150119 0.473857 0.5
208 1 0.175143 0.521229 0.5
209 1 0.200125 0.473885 0.5
210 1 0.22515 0.521264 0.5
211 1 0.250128 0.473913 0.5
212 1 0.275152 0.521299 0.5
213 1 0.300125 0.47394 0.5
214 1 0.325148 0.521332 0.5
215 1 0.350116 0.473962 0.5
216 1 0.375136 0.521357 0.5
217 1 0.4001 0.473977 0.5
218 1 0.425117 0.521372 0.5
219 1 0.45008 0.473982 0.5
220 1 0.475091 0.521374 0.5
221 1 0.500057 0.473977 0.5
222 1 0.525063 0.521362 0.5
223 1 0.550034 0.473963 0.5
224 1 0.575037 0.521337 0.5
225 1 0.600015 0.473941 0.5
226 1 0.625017 0.521303 0.5
227 1 0.650003 0.473913 0.5
228 1 0.675008 0.521264 0.5
229 1 0.699999 0.473882 0.5
230 1 0.72501 0.521223 0.5
231 1 0.750004 0.473851 0.5
232 1 0.775021 0.521185 0.5
233 1 0.800016 0.473824 0.5
234 1 0.825038 0.521156 0.5
235 1 0.850032 0.473804 0.5
236 1 0.875057 0.521138 0.5
237 1 0.90005 0.473793 0.5
238 1 0.925076 0.521132 0.5
239 1 0.950067 0.473791 0.5
240 1 0.975093 0.521136 0.5
241 1 0.000120668 0.568484 0.5
242 1 0.0251469 0.615836 0.5
243 1 0.050134 0.568505 0.5
244 1 0.0751578 0.615865 0.5
245 1 0.100146 0.568533 0.5
246 1 0.125169 0.6159 0.5
247 1 0.150158 0.568568 0.5
248 1 0.175182 0.615942 0.5
249 1 0.200168 0.568607 0.5
250 1 0.225194 0.615989 0.5
251 1 0.250176 0.568649 0.5
252 1 0.275204 0.616041 0.5
253 1 0.300179 0.568692 0.5
254 1 0.325208 0.616092 0.5
255 1 0.350174 0.568731 0.5
256 1 0.375202 0.616136 0.5
257 1 0.400159 0.568759 0.5
258 1 0.425181 0.616165 0.5
259 1 0.450133 0.568772 0.5
260 1 0.475149 0.616173 0.5
261 1 0.500101 0.568767 0.5
262 1 0.52511 0.616156 0.5
263 1 0.550068 0.568744 0.5
264 1 0.575073 0.616115 0.5
265 1 0.60004 0.568705 0.5
266 1 0.625048 0.616055 0.5
267 1 0.650023 0.568656 0.5
268 1 0.675041 0.615984 0.5
269 1 0.700021 0.568602 0.5
270 1 0.725052 0.615915 0.5
271 1 0.750032 0.56855 0.5
272 1 0.775072 0.61586 0.5
273 1 0.80005 0.568509 0.5
274 1 0.825091 0.615826 0.5
275 1 0.85007 0.568483 0.5
276 1 0.875108 0.615809 0.5