ITEM: TIMESTEP
0
ITEM: NUMBER OF ATOMS
21
ITEM: BOX BOUNDS pp ss pp
0.0000000000000000e+00 2.2653923264628304e+01
2.1917670042342338e-01 2.0312268024904707e+01
-2.8317404080785380e-01 2.8317404080785380e-01
ITEM: ATOMS id type xs ys zs
379 3 0.45041 0.859521 0.5
380 3 0.475477 0.907455 0.5
381 3 0.50046 0.859773 0.5
382 3 0.525593 0.907916 0.5
383 3 0.550425 0.859902 0.5
384 3 0.575456 0.908202 0.5
385 3 0.600264 0.85967 0.5
386 3 0.625738 0.906939 0.5
387 3 0.650397 0.859083 0.5
388 3 0.675692 0.906588 0.5
389 3 0.700432 0.858836 0.5
390 3 0.725591 0.906457 0.5
391 3 0.750412 0.858739 0.5
392 3 0.77549 0.90642 0.5
410 3 0.450346 0.955113 0.5
411 3 0.500774 0.955832 0.5
412 3 0.59795 0.999902 0.5
413 3 0.601707 0.955252 0.5
414 3 0.651218 0.954665 0.5
415 3 0.700887 0.954441 0.5
416 3 0.75066 0.954363 0.5
ITEM: TIMESTEP
10
ITEM: NUMBER OF ATOMS
21
ITEM: BOX BOUNDS pp ss pp
0.0000000000000000e+00 2.2653923264628304e+01
2.1917670042342338e-01 2.0312268024904707e+01
-2.8317404080785380e-01 2.8317404080785380e-01
ITEM: ATOMS id type xs ys zs
379 3 0.450402 0.859523 0.5
380 3 0.475333 0.90735 0.5
381 3 0.500364 0.85968 0.5
382 3 0.52539 0.907615 0.5
383 3 0.55019 0.859416 0.5
384 3 0.575308 0.906634 0.5
385 3 0.600378 0.859137 0.5
386 3 0.626367 0.905761 0.5
387 3 0.650731 0.858643 0.5
388 3 0.675871 0.906534 0.5
389 3 0.700555 0.858793 0.5
390 3 0.725657 0.906487 0.5
391 3 0.750439 0.858749 0.5
392 3 0.775509 0.906432 0.5
410 3 0.450196 0.955153 0.5
411 3 0.500057 0.955503 0.5
412 3 0.595494 1.00666 0.5
413 3 0.601735 0.95271 0.5
414 3 0.651068 0.954586 0.5
415 3 0.70087 0.954497 0.5
416 3 0.750673 0.954388 0.5
ITEM: TIMESTEP
20
ITEM: NUMBER OF ATOMS
21
ITEM: BOX BOUNDS pp ss pp
0.0000000000000000e+00 2.2653923264628304e+01
2.1917670042342338e-01 2.0459024741675208e+01
-2.8317404080785380e-01 2.8317404080785380e-01
ITEM: ATOMS id type xs ys zs
379 3 0.450274 0.853145 0.5
380 3 0.475154 0.90053 0.5
381 3 0.500325 0.853278 0.5
382 3 0.525398 0.900827 0.5
383 3 0.550284 0.853033 0.5
384 3 0.575519 0.900138 0.5
385 3 0.600463 0.85272 0.5
386 3 0.626 0.899604 0.5
387 3 0.650676 0.852441 0.5
388 3 0.675774 0.899915 0.5
389 3 0.700583 0.852531 0.5
390 3 0.725644 0.89991 0.5
391 3 0.750494 0.852522 0.5
392 3 0.77553 0.899888 0.5
410 3 0.44994 0.948088 0.5
411 3 0.499739 0.948211 0.5
412 3 0.595073 1.00087 0.5
413 3 0.601386 0.946646 0.5
414 3 0.650871 0.947586 0.5
415 3 0.700762 0.94751 0.5
416 3 0.750643 0.947491 0.5
ITEM: TIMESTEP
30
ITEM: NUMBER OF ATOMS
21
ITEM: BOX BOUNDS pp ss pp
0.0000000000000000e+00 2.2653923264628304e+01
2.1917670042342338e-01 2.0459024741675208e+01
-2.8317404080785380e-01 2.8317404080785380e-01
ITEM: ATOMS id type xs ys zs
379 3 0.450197 0.853006 0.5
380 3 0.475053 0.900355 0.5
381 3 0.500291 0.853151 0.5
382 3 0.525315 0.900714 0.5
383 3 0.550293 0.853009 0.5
384 3 0.575455 0.900281 0.5
385 3 0.600415 0.852778 0.5
386 3 0.625827 0.899817 0.5
387 3 0.650573 0.852523 0.5
388 3 0.67565 0.899979 0.5
389 3 0.700509 0.852565 0.5
390 3 0.725569 0.899917 0.5
391 3 0.750465 0.852536 0.5
392 3 0.775497 0.899893 0.5
410 3 0.449826 0.947916 0.5
411 3 0.4996 0.94803 0.5
412 3 0.595153 1.00144 0.5
413 3 0.60121 0.947017 0.5
414 3 0.650748 0.947702 0.5
415 3 0.70067 0.947514 0.5
416 3 0.75058 0.94748 0.5
ITEM: TIMESTEP
40
ITEM: NUMBER OF ATOMS
21
ITEM: BOX BOUNDS pp ss pp
0.0000000000000000e+00 2.2653923264628304e+01
2.1917670042342338e-01 2.0459024741675208e+01
-2.8317404080785380e-01 2.8317404080785380e-01
ITEM: ATOMS id type xs ys zs
379 3 0.450155 0.85293 0.5
380 3 0.474995 0.900277 0.5
381 3 0.500255 0.853091 0.5
382 3 0.525256 0.900665 0.5
383 3 0.550266 0.85301 0.5
384 3 0.575388 0.900313 0.5
385 3 0.600379 0.852829 0.5
386 3 0.625764 0.899857 0.5
387 3 0.650512 0.852602 0.5
388 3 0.675579 0.90002 0.5
389 3 0.700467 0.852599 0.5
390 3 0.725524 0.899938 0.5
391 3 0.75043 0.852553 0.5
392 3 0.775466 0.899905 0.5
410 3 0.449764 0.947832 0.5
411 3 0.499525 0.947963 0.5
412 3 0.595379 1.0016 0.5
413 3 0.60112 0.947128 0.5
414 3 0.650682 0.947772 0.5
415 3 0.700619 0.947547 0.5
416 3 0.750543 0.947489 0.5
ITEM: TIMESTEP
50
ITEM: NUMBER OF ATOMS
21
ITEM: BOX BOUNDS pp ss pp
0.0000000000000000e+00 2.2653923264628304e+01
2.1917670042342338e-01 2.0459024741675208e+01
-2.8317404080785380e-01 2.8317404080785380e-01
ITEM: ATOMS id type xs ys zs
379 3 0.450126 0.852886 0.5
380 3 0.474957 0.900234 0.5
381 3 0.500228 0.853058 0.5
382 3 0.525213 0.900639 0.5
383 3 0.550241 0.852996 0.5
384 3 0.575349 0.900326 0.5
385 3 0.600348 0.852835 0.5
386 3 0.625718 0.899897 0.5
387 3 0.650484 0.852613 0.5
388 3 0.675543 0.90005 0.5
389 3 0.700436 0.852622 0.5
390 3 0.725492 0.899957 0.5
391 3 0.750408 0.85257 0.5
392 3 0.775444 0.899915 0.5
410 3 0.449723 0.947785 0.5
411 3 0.499478 0.947926 0.5
412 3 0.595598 1.00166 0.5
413 3 0.601066 0.947147 0.5
414 3 0.650632 0.947804 0.5
415 3 0.700584 0.947567 0.5
416 3 0.750518 0.947501 0.5
ITEM: TIMESTEP
60
ITEM: NUMBER OF ATOMS
21
ITEM: BOX BOUNDS pp ss pp
0.0000000000000000e+00 2.2653923264628304e+01
2.1917670042342338e-01 2.0459024741675208e+01
-2.8317404080785380e-01 2.8317404080785380e-01
ITEM: ATOMS id type xs ys zs
379 3 0.450101 0.852849 0.5
380 3 0.474924 0.9002 0.5
381 3 0.500202 0.85303 0.5
382 3 0.525177 0.900616 0.5
383 3 0.550216 0.852984 0.5
384 3 0.575311 0.900323 0.5
385 3 0.600323 0.852841 0.5
386 3 0.625683 0.89991 0.5
387 3 0.650457 0.85263 0.5
388 3 0.675509 0.90007 0.5
389 3 0.700411 0.85264 0.5
390 3 0.725465 0.899974 0.5
391 3 0.750387 0.852585 0.5
392 3 0.775423 0.899927 0.5
410 3 0.449688 0.947747 0.5
411 3 0.499437 0.947897 0.5
412 3 0.595839 1.0017 0.5
413 3 0.601016 0.947155 0.5
414 3 0.650588 0.947829 0.5
415 3 0.700551 0.947585 0.5
416 3 0.750493 0.947513 0.5
ITEM: TIMESTEP
70
ITEM: NUMBER OF ATOMS
21
ITEM: BOX BOUNDS pp ss pp
0.0000000000000000e+00 2.2653923264628304e+01
2.1917670042342338e-01 2.0459024741675208e+01
-2.8317404080785380e-01 2.8317404080785380e-01
ITEM: ATOMS id type xs ys zs
379 3 0.450071 0.85281 0.5
380 3 0.474887 0.900163 0.5
381 3 0.500171 0.852998 0.5
382 3 0.525137 0.900589 0.5
383 3 0.550185 0.852965 0.5
384 3 0.575268 0.900309 0.5
385 3 0.600293 0.852839 0.5
386 3 0.625643 0.899916 0.5
387 3 0.650427 0.852643 0.5
388 3 0.67547 0.900089 0.5
389 3 0.700382 0.852658 0.5
390 3 0.725432 0.899992 0.5
391 3 0.750362 0.852603 0.5
392 3 0.775397 0.899942 0.5
410 3 0.449648 0.947707 0.5
411 3 0.499392 0.947865 0.5
412 3 0.596174 1.00173 0.5
413 3 0.600957 0.947148 0.5
414 3 0.650533 0.94785 0.5
415 3 0.70051 0.947603 0.5
416 3 0.750462 0.947528 0.5
ITEM: TIMESTEP
80
ITEM: NUMBER OF ATOMS
21
ITEM: BOX BOUNDS pp ss pp
0.0000000000000000e+00 2.2653923264628304e+01
2.1917670042342338e-01 2.0459024741675208e+01
-2.8317404080785380e-01 2.8317404080785380e-01
ITEM: ATOMS id type xs ys zs
379 3 0.450051 0.852784 0.5
380 3 0.474863 0.900139 0.5
381 3 0.50015 0.852977 0.5
382 3 0.52511 0.900571 0.5
383 3 0.550163 0.852949 0.5
384 3 0.575239 0.900295 0.5
385 3 0.600273 0.852832 0.5
386 3 0.625616 0.899917 0.5
387 3 0.650408 0.852645 0.5
388 3 0.675444 0.9001 0.5
389 3 0.700362 0.852668 0.5
390 3 0.725409 0.900003 0.5
391 3 0.750344 0.852613 0.5
392 3 0.775378 0.899952 0.5
410 3 0.449622 0.947681 0.5
411 3 0.499364 0.947843 0.5
412 3 0.596432 1.00175 0.5
413 3 0.600916 0.947134 0.5
414 3 0.650495 0.947861 0.5
415 3 0.70048 0.947613 0.5
416 3 0.75044 0.947538 0.5
ITEM: TIMESTEP
90
ITEM: NUMBER OF ATOMS
21
ITEM: BOX BOUNDS pp ss pp
0.0000000000000000e+00 2.2653923264628304e+01
2.1917670042342338e-01 2.0459024741675208e+01
-2.8317404080785380e-01 2.8317404080785380e-01
ITEM: ATOMS id type xs ys zs
379 3 0.450032 0.85276 0.5
380 3 0.47484 0.900116 0.5
381 3 0.500129 0.852956 0.5
382 3 0.525085 0.900551 0.5
383 3 0.550141 0.852933 0.5
384 3 0.575211 0.900277 0.5
385 3 0.600254 0.852826 0.5
386 3 0.625591 0.899911 0.5
387 3 0.650388 0.852649 0.5
388 3 0.675416 0.900107 0.5
389 3 0.700343 0.852677 0.5
390 3 0.725386 0.900012 0.5
391 3 0.750326 0.852623 0.5
392 3 0.775359 0.899962 0.5
410 3 0.449598 0.947658 0.5
411 3 0.499338 0.947823 0.5
412 3 0.596708 1.00175 0.5
413 3 0.600875 0.947119 0.5
414 3 0.650456 0.947871 0.5
415 3 0.70045 0.947621 0.5
416 3 0.750416 0.947546 0.5
ITEM: TIMESTEP
100
ITEM: NUMBER OF ATOMS
21
ITEM: BOX BOUNDS pp ss pp
0.0000000000000000e+00 2.2653923264628304e+01
2.1917670042342338e-01 2.0459024741675208e+01
-2.8317404080785380e-01 2.8317404080785380e-01
ITEM: ATOMS id type xs ys zs
379 3 0.450018 0.852744 0.5
380 3 0.474824 0.900101 0.5
381 3 0.500115 0.852942 0.5
382 3 0.525068 0.900538 0.5
383 3 0.550126 0.85292 0.5
384 3 0.575192 0.900264 0.5
385 3 0.60024 0.852817 0.5
386 3 0.625573 0.899909 0.5
387 3 0.650375 0.852647 0.5
388 3 0.675398 0.900112 0.5
389 3 0.700329 0.852681 0.5
390 3 0.72537 0.900018 0.5
391 3 0.750314 0.85263 0.5
392 3 0.775345 0.899968 0.5
410 3 0.449582 0.947642 0.5
411 3 0.499321 0.947808 0.5
412 3 0.59691 1.00175 0.5
413 3 0.600847 0.947105 0.5
414 3 0.650428 0.947876 0.5
415 3 0.700429 0.947625 0.5
416 3 0.750399 0.947552 0.5
ITEM: TIMESTEP
110
ITEM: NUMBER OF ATOMS
21
ITEM: BOX BOUNDS pp ss pp
0.0000000000000000e+00 2.2653923264628304e+01
2.1917670042342338e-01 2.0459024741675208e+01
-2.8317404080785380e-01 2.8317404080785380e-01
ITEM: ATOMS id type xs ys zs
379 3 0.450004 0.852727 0.5
380 3 0.474808 0.900085 0.5
381 3 0.5001 0.852926 0.5
382 3 0.52505 0.900523 0.5
383 3 0.55011 0.852905 0.5
384 3 0.575172 0.900249 0.5
385 3 0.600225 0.852808 0.5
386 3 0.625554 0.899906 0.5
387 3 0.650361 0.852644 0.5
388 3 0.675378 0.900117 0.5
389 3 0.700314 0.852685 0.5
390 3 0.725352 0.900024 0.5
391 3 0.7503 0.852635 0.5
392 3 0.77533 0.899974 0.5
410 3 0.449566 0.947625 0.5
411 3 0.499303 0.947793 0.5
412 3 0.597133 1.00175 0.5
413 3 0.600816 0.947088 0.5
414 3 0.650398 0.947881 0.5
415 3 0.700406 0.947629 0.5
416 3 0.75038 0.947557 0.5
ITEM: TIMESTEP
120
ITEM: NUMBER OF ATOMS
21
ITEM: BOX BOUNDS pp ss pp
0.0000000000000000e+00 2.2653923264628304e+01
2.1917670042342338e-01 2.0459024741675208e+01
-2.8317404080785380e-01 2.8317404080785380e-01
ITEM: ATOMS id type xs ys zs
379 3 0.449993 0.852713 0.5
380 3 0.474795 0.900072 0.5
381 3 0.500088 0.852913 0.5
382 3 0.525035 0.900511 0.5
383 3 0.550097 0.852893 0.5
384 3 0.575155 0.900235 0.5
385 3 0.600213 0.852801 0.5
386 3 0.625538 0.899901 0.5
387 3 0.650349 0.852642 0.5
388 3 0.675361 0.90012 0.5
389 3 0.700301 0.852688 0.5
390 3 0.725337 0.900028 0.5
391 3 0.750288 0.85264 0.5
392 3 0.775317 0.899979 0.5
410 3 0.449553 0.947611 0.5
411 3 0.49929 0.947781 0.5
412 3 0.597322 1.00175 0.5
413 3 0.60079 0.947074 0.5
414 3 0.650373 0.947885 0.5
415 3 0.700386 0.947633 0.5
416 3 0.750364 0.947561 0.5
ITEM: TIMESTEP
125
ITEM: NUMBER OF ATOMS
21
ITEM: BOX BOUNDS pp ss pp
0.0000000000000000e+00 2.2653923264628304e+01
2.1917670042342338e-01 2.0459024741675208e+01
-2.8317404080785380e-01 2.8317404080785380e-01
ITEM: ATOMS id type xs ys zs
379 3 0.449988 0.852707 0.5
380 3 0.474789 0.900066 0.5
381 3 0.500082 0.852908 0.5
382 3 0.525029 0.900505 0.5
383 3 0.550091 0.852888 0.5
384 3 0.575147 0.900228 0.5
385 3 0.600208 0.852798 0.5
386 3 0.625531 0.899897 0.5
387 3 0.650343 0.852643 0.5
388 3 0.675353 0.900121 0.5
389 3 0.700295 0.85269 0.5
390 3 0.72533 0.90003 0.5
391 3 0.750282 0.852642 0.5
392 3 0.775311 0.899981 0.5
410 3 0.449547 0.947605 0.5
411 3 0.499283 0.947775 0.5
412 3 0.597412 1.00175 0.5
413 3 0.600778 0.947068 0.5
414 3 0.650361 0.947887 0.5
415 3 0.700377 0.947634 0.5
416 3 0.750357 0.947562 0.5
ITEM: TIMESTEP
130
ITEM: NUMBER OF ATOMS
21
ITEM: BOX BOUNDS pp ss pp
0.0000000000000000e+00 2.2653923264628304e+01
2.1917670042342338e-01 2.0496358541970974e+01
-2.8317404080785380e-01 2.8317404080785380e-01
ITEM: ATOMS id type xs ys zs
379 3 0.449983 0.851132 0.5
380 3 0.474784 0.898403 0.5
381 3 0.500077 0.851332 0.5
382 3 0.525023 0.898842 0.5
383 3 0.550085 0.851312 0.5
384 3 0.57514 0.898564 0.5
385 3 0.600203 0.851224 0.5
386 3 0.625525 0.898239 0.5
387 3 0.650338 0.851071 0.5
388 3 0.675346 0.898465 0.5
389 3 0.70029 0.85112 0.5
390 3 0.725324 0.898374 0.5
391 3 0.750277 0.851074 0.5
392 3 0.775305 0.898326 0.5
410 3 0.449542 0.945855 0.5
411 3 0.499278 0.946025 0.5
412 3 0.597481 0.999898 0.5
413 3 0.600768 0.945317 0.5
414 3 0.650351 0.946143 0.5
415 3 0.700369 0.94589 0.5
416 3 0.75035 0.945819 0.5
ITEM: TIMESTEP
140
ITEM: NUMBER OF ATOMS
21
ITEM: BOX BOUNDS pp ss pp
0.0000000000000000e+00 2.2653923264628304e+01
2.1917670042342338e-01 2.0496358541970974e+01
-2.8317404080785380e-01 2.8317404080785380e-01
ITEM: ATOMS id type xs ys zs
379 3 0.449968 0.851115 0.5
380 3 0.474767 0.898386 0.5
381 3 0.500061 0.851316 0.5
382 3 0.525005 0.898825 0.5
383 3 0.550068 0.851297 0.5
384 3 0.575119 0.898544 0.5
385 3 0.600188 0.851215 0.5
386 3 0.625506 0.898228 0.5
387 3 0.650323 0.851071 0.5
388 3 0.675324 0.898465 0.5
389 3 0.700274 0.851125 0.5
390 3 0.725304 0.898377 0.5
391 3 0.750262 0.85108 0.5
392 3 0.775288 0.89833 0.5
410 3 0.449525 0.945838 0.5
411 3 0.49926 0.946009 0.5
412 3 0.597718 0.999894 0.5
413 3 0.600735 0.9453 0.5
414 3 0.650319 0.946147 0.5
415 3 0.700344 0.945893 0.5
416 3 0.750329 0.945823 0.5
ITEM: TIMESTEP
150
ITEM: NUMBER OF ATOMS
21
ITEM: BOX BOUNDS pp ss pp
0.0000000000000000e+00 2.2653923264628304e+01
2.1917670042342338e-01 2.0496358541970974e+01
-2.8317404080785380e-01 2.8317404080785380e-01
ITEM: ATOMS id type xs ys zs
379 3 0.449959 0.851104 0.5
380 3 0.474757 0.898376 0.5
381 3 0.500051 0.851306 0.5
382 3 0.524994 0.898815 0.5
383 3 0.550058 0.851287 0.5
384 3 0.575106 0.898534 0.5
385 3 0.600178 0.851207 0.5
386 3 0.625493 0.898226 0.5
387 3 0.650313 0.851067 0.5
388 3 0.67531 0.898467 0.5
389 3 0.700263 0.851125 0.5
390 3 0.725292 0.898379 0.5
391 3 0.750252 0.851082 0.5
392 3 0.775277 0.898333 0.5
410 3 0.449515 0.945828 0.5
411 3 0.49925 0.945999 0.5
412 3 0.597888 0.999895 0.5
413 3 0.600714 0.94529 0.5
414 3 0.650299 0.94615 0.5
415 3 0.700328 0.945894 0.5
416 3 0.750316 0.945825 0.5
ITEM: TIMESTEP
160
ITEM: NUMBER OF ATOMS
21
ITEM: BOX BOUNDS pp ss pp
0.0000000000000000e+00 2.2653923264628304e+01
2.1917670042342338e-01 2.0496358541970974e+01
-2.8317404080785380e-01 2.8317404080785380e-01
ITEM: ATOMS id type xs ys zs
379 3 0.449951 0.851094 0.5
380 3 0.474748 0.898367 0.5
381 3 0.500043 0.851296 0.5
382 3 0.524984 0.898806 0.5
383 3 0.550048 0.851277 0.5
384 3 0.575094 0.898524 0.5
385 3 0.600169 0.8512 0.5
386 3 0.62548 0.898224 0.5
387 3 0.650304 0.851064 0.5
388 3 0.675297 0.89847 0.5
389 3 0.700253 0.851126 0.5
390 3 0.72528 0.898381 0.5
391 3 0.750243 0.851083 0.5
392 3 0.775267 0.898335 0.5
410 3 0.449507 0.945819 0.5
411 3 0.49924 0.945989 0.5
412 3 0.598058 0.999896 0.5
413 3 0.600694 0.945282 0.5
414 3 0.65028 0.946153 0.5
415 3 0.700313 0.945895 0.5
416 3 0.750304 0.945826 0.5
ITEM: TIMESTEP
170
ITEM: NUMBER OF ATOMS
21
ITEM: BOX BOUNDS pp ss pp
0.0000000000000000e+00 2.2653923264628304e+01
2.1917670042342338e-01 2.0496358541970974e+01
-2.8317404080785380e-01 2.8317404080785380e-01
ITEM: ATOMS id type xs ys zs
379 3 0.449943 0.851085 0.5
380 3 0.474739 0.898358 0.5
381 3 0.500034 0.851287 0.5
382 3 0.524974 0.898798 0.5
383 3 0.550039 0.851268 0.5
384 3 0.575082 0.898515 0.5
385 3 0.600161 0.851195 0.5
386 3 0.625468 0.898222 0.5
387 3 0.650294 0.851063 0.5
388 3 0.675284 0.898472 0.5
389 3 0.700243 0.851127 0.5
390 3 0.725269 0.898384 0.5
391 3 0.750233 0.851085 0.5
392 3 0.775257 0.898337 0.5
410 3 0.449498 0.94581 0.5
411 3 0.499231 0.945981 0.5
412 3 0.598239 0.999896 0.5
413 3 0.600674 0.945273 0.5
414 3 0.650261 0.946158 0.5
415 3 0.700299 0.945896 0.5
416 3 0.750292 0.945828 0.5
ITEM: TIMESTEP
180
ITEM: NUMBER OF ATOMS
21
ITEM: BOX BOUNDS pp ss pp
0.0000000000000000e+00 2.2653923264628304e+01
2.1917670042342338e-01 2.0496358541970974e+01
-2.8317404080785380e-01 2.8317404080785380e-01
ITEM: ATOMS id type xs ys zs
379 3 0.449934 0.851075 0.5
380 3 0.474729 0.898348 0.5
381 3 0.500024 0.851277 0.5
382 3 0.524962 0.898788 0.5
383 3 0.550028 0.851258 0.5
384 3 0.575069 0.898504 0.5
385 3 0.600151 0.851188 0.5
386 3 0.625455 0.89822 0.5
387 3 0.650284 0.851061 0.5
388 3 0.675269 0.898475 0.5
389 3 0.700232 0.851128 0.5
390 3 0.725255 0.898386 0.5
391 3 0.750222 0.851086 0.5
392 3 0.775245 0.89834 0.5
410 3 0.449488 0.9458 0.5
411 3 0.499221 0.945971 0.5
412 3 0.598457 0.999895 0.5
413 3 0.600651 0.945263 0.5
414 3 0.650238 0.946164 0.5
415 3 0.700282 0.945898 0.5
416 3 0.750278 0.945829 0.5
ITEM: TIMESTEP
190
ITEM: NUMBER OF ATOMS
21
ITEM: BOX BOUNDS pp ss pp
0.0000000000000000e+00 2.2653923264628304e+01
2.1917670042342338e-01 2.0496358541970974e+01
-2.8317404080785380e-01 2.8317404080785380e-01
ITEM: ATOMS id type xs ys zs
379 3 0.449925 0.851065 0.5
380 3 0.474715 0.898334 0.5
381 3 0.500017 0.85127 0.5
382 3 0.524952 0.898782 0.5
383 3 0.55002 0.851253 0.5
384 3 0.575059 0.898497 0.5
385 3 0.600144 0.851185 0.5
386 3 0.625445 0.898219 0.5
387 3 0.650276 0.851061 0.5
388 3 0.675258 0.898477 0.5
389 3 0.700223 0.85113 0.5
390 3 0.725246 0.898387 0.5
391 3 0.750214 0.851088 0.5
392 3 0.775236 0.898341 0.5
410 3 0.44947 0.94579 0.5
411 3 0.499188 0.945953 0.5
412 3 0.598631 0.999901 0.5
413 3 0.600635 0.94526 0.5
414 3 0.650223 0.946168 0.5
415 3 0.70027 0.9459 0.5
416 3 0.750268 0.94583 0.5
ITEM: TIMESTEP
200
ITEM: NUMBER OF ATOMS
21
ITEM: BOX BOUNDS pp ss pp
0.0000000000000000e+00 2.2653923264628304e+01
2.1917670042342338e-01 2.0496358541970974e+01
-2.8317404080785380e-01 2.8317404080785380e-01
ITEM: ATOMS id type xs ys zs
379 3 0.449913 0.851053 0.5
380 3 0.474701 0.898323 0.5
381 3 0.500006 0.851261 0.5
382 3 0.524937 0.898775 0.5
383 3 0.550009 0.851246 0.5
384 3 0.575045 0.89849 0.5
385 3 0.600134 0.851181 0.5
386 3 0.625432 0.898219 0.5
387 3 0.650265 0.851061 0.5
388 3 0.675244 0.898481 0.5
389 3 0.700212 0.851132 0.5
390 3 0.725234 0.898389 0.5
391 3 0.750204 0.85109 0.5
392 3 0.775226 0.898343 0.5
410 3 0.449454 0.945778 0.5
411 3 0.499169 0.945942 0.5
412 3 0.59886 0.999901 0.5
413 3 0.600613 0.945253 0.5
414 3 0.650202 0.946176 0.5
415 3 0.700255 0.945902 0.5
416 3 0.750256 0.945832 0.5
ITEM: TIMESTEP
210
ITEM: NUMBER OF ATOMS
21
ITEM: BOX BOUNDS pp ss pp
0.0000000000000000e+00 2.2653923264628304e+01
2.1917670042342338e-01 2.0496358541970974e+01
-2.8317404080785380e-01 2.8317404080785380e-01
ITEM: ATOMS id type xs ys zs
379 3 0.449903 0.851044 0.5
380 3 0.474689 0.898314 0.5
381 3 0.499995 0.851253 0.5
382 3 0.524925 0.898767 0.5
383 3 0.549998 0.851238 0.5
384 3 0.575031 0.898481 0.5
385 3 0.600124 0.851177 0.5
386 3 0.62542 0.898218 0.5
387 3 0.650255 0.851061 0.5
388 3 0.67523 0.898485 0.5
389 3 0.700202 0.851134 0.5
390 3 0.725221 0.898392 0.5
391 3 0.750194 0.851092 0.5
392 3 0.775215 0.898344 0.5
410 3 0.449442 0.945769 0.5
411 3 0.499156 0.945934 0.5
412 3 0.599086 0.999897 0.5
413 3 0.600591 0.945245 0.5
414 3 0.650181 0.946184 0.5
415 3 0.70024 0.945904 0.5
416 3 0.750244 0.945833 0.5
ITEM: TIMESTEP
220
ITEM: NUMBER OF ATOMS
21
ITEM: BOX BOUNDS pp ss pp
0.0000000000000000e+00 2.2653923264628304e+01
2.1917670042342338e-01 2.0496358541970974e+01
-2.8317404080785380e-01 2.8317404080785380e-01
ITEM: ATOMS id type xs ys zs
379 3 0.449893 0.851035 0.5
380 3 0.474677 0.898305 0.5
381 3 0.499984 0.851244 0.5
382 3 0.524912 0.898759 0.5
383 3 0.549986 0.85123 0.5
384 3 0.575016 0.89847 0.5
385 3 0.600114 0.851172 0.5
386 3 0.625406 0.898217 0.5
387 3 0.650244 0.851061 0.5
388 3 0.675214 0.898489 0.5
389 3 0.700189 0.851137 0.5
390 3 0.725208 0.898395 0.5
391 3 0.750182 0.851094 0.5
392 3 0.775203 0.898346 0.5
410 3 0.44943 0.94576 0.5
411 3 0.499144 0.945926 0.5
412 3 0.599342 0.999888 0.5
413 3 0.600566 0.945234 0.5
414 3 0.650156 0.946193 0.5
415 3 0.700222 0.945907 0.5
416 3 0.75023 0.945835 0.5
ITEM: TIMESTEP
230
ITEM: NUMBER OF ATOMS
21
ITEM: BOX BOUNDS pp ss pp
0.0000000000000000e+00 2.2653923264628304e+01
2.1917670042342338e-01 2.0496358541970974e+01
-2.8317404080785380e-01 2.8317404080785380e-01
ITEM: ATOMS id type xs ys zs
379 3 0.449885 0.851029 0.5
380 3 0.474669 0.898299 0.5
381 3 0.499976 0.851238 0.5
382 3 0.524903 0.898753 0.5
383 3 0.549978 0.851223 0.5
384 3 0.575005 0.898462 0.5
385 3 0.600106 0.851169 0.5
386 3 0.625396 0.898216 0.5
387 3 0.650236 0.851061 0.5
388 3 0.675202 0.898493 0.5
389 3 0.70018 0.851139 0.5
390 3 0.725197 0.898397 0.5
391 3 0.750174 0.851096 0.5
392 3 0.775194 0.898348 0.5
410 3 0.449422 0.945754 0.5
411 3 0.499136 0.94592 0.5
412 3 0.599534 0.99988 0.5
413 3 0.600547 0.945226 0.5
414 3 0.650138 0.9462 0.5
415 3 0.700209 0.94591 0.5
416 3 0.75022 0.945836 0.5
ITEM: TIMESTEP
240
ITEM: NUMBER OF ATOMS
21
ITEM: BOX BOUNDS pp ss pp
0.0000000000000000e+00 2.2653923264628304e+01
2.1917670042342338e-01 2.0496358541970974e+01
-2.8317404080785380e-01 2.8317404080785380e-01
ITEM: ATOMS id type xs ys zs
379 3 0.449878 0.851022 0.5
380 3 0.474661 0.898293 0.5
381 3 0.499968 0.851232 0.5
382 3 0.524895 0.898746 0.5
383 3 0.549969 0.851216 0.5
384 3 0.574994 0.898453 0.5
385 3 0.600098 0.851164 0.5
386 3 0.625385 0.898215 0.5
387 3 0.650228 0.851061 0.5
388 3 0.67519 0.898497 0.5
389 3 0.700171 0.851141 0.5
390 3 0.725187 0.898399 0.5
391 3 0.750165 0.851098 0.5
392 3 0.775185 0.89835 0.5
410 3 0.449414 0.945748 0.5
411 3 0.499128 0.945914 0.5
412 3 0.599731 0.99987 0.5
413 3 0.600528 0.945217 0.5
414 3 0.650119 0.946207 0.5
415 3 0.700196 0.945912 0.5
416 3 0.750209 0.945838 0.5
ITEM: TIMESTEP
250
ITEM: NUMBER OF ATOMS
21
ITEM: BOX BOUNDS pp ss pp
0.0000000000000000e+00 2.2653923264628304e+01
2.1917670042342338e-01 2.0496358541970974e+01
-2.8317404080785380e-01 2.8317404080785380e-01
ITEM: ATOMS id type xs ys zs
379 3 0.449871 0.851017 0.5
380 3 0.474654 0.898288 0.5
381 3 0.499961 0.851226 0.5
382 3 0.524886 0.898741 0.5
383 3 0.549961 0.85121 0.5
384 3 0.574984 0.898444 0.5
385 3 0.600091 0.85116 0.5
386 3 0.625376 0.898213 0.5
387 3 0.65022 0.851061 0.5
388 3 0.675179 0.898501 0.5
389 3 0.700162 0.851143 0.5
390 3 0.725177 0.898401 0.5
391 3 0.750157 0.8511 0.5
392 3 0.775176 0.898351 0.5
410 3 0.449407 0.945742 0.5
411 3 0.499121 0.945909 0.5
412 3 0.599918 0.99986 0.5
413 3 0.600509 0.945208 0.5
414 3 0.650101 0.946214 0.5
415 3 0.700183 0.945915 0.5
416 3 0.750199 0.945839 0.5
ITEM: TIMESTEP
260
ITEM: NUMBER OF ATOMS
21
ITEM: BOX BOUNDS pp ss pp
0.0000000000000000e+00 2.2653923264628304e+01
2.1917670042342338e-01 2.0496358541970974e+01
-2.8317404080785380e-01 2.8317404080785380e-01
ITEM: ATOMS id type xs ys zs
379 3 0.449861 0.851009 0.5
380 3 0.474644 0.898281 0.5
381 3 0.49995 0.851218 0.5
382 3 0.524875 0.898733 0.5
383 3 0.549949 0.851201 0.5
384 3 0.574969 0.898432 0.5
385 3 0.600081 0.851155 0.5
386 3 0.625362 0.898212 0.5
387 3 0.650209 0.85106 0.5
388 3 0.675162 0.898506 0.5
389 3 0.70015 0.851146 0.5
390 3 0.725162 0.898405 0.5
391 3 0.750145 0.851102 0.5
392 3 0.775164 0.898353 0.5
410 3 0.449397 0.945735 0.5
411 3 0.499111 0.945902 0.5
412 3 0.600187 0.999842 0.5
413 3 0.600483 0.945195 0.5
414 3 0.650075 0.946225 0.5
415 3 0.700165 0.945918 0.5
416 3 0.750185 0.945841 0.5
ITEM: TIMESTEP
270
ITEM: NUMBER OF ATOMS
21
ITEM: BOX BOUNDS pp ss pp
0.0000000000000000e+00 2.2653923264628304e+01
2.1917670042342338e-01 2.0496358541970974e+01
-2.8317404080785380e-01 2.8317404080785380e-01
ITEM: ATOMS id type xs ys zs
379 3 0.449855 0.851005 0.5
380 3 0.474637 0.898276 0.5
381 3 0.499943 0.851213 0.5
382 3 0.524867 0.898727 0.5
383 3 0.549941 0.851195 0.5
384 3 0.574959 0.898423 0.5
385 3 0.600075 0.851151 0.5
386 3 0.625353 0.89821 0.5
387 3 0.650202 0.85106 0.5
388 3 0.675151 0.898509 0.5
389 3 0.700141 0.851149 0.5
390 3 0.725153 0.898407 0.5
391 3 0.750137 0.851105 0.5
392 3 0.775155 0.898355 0.5
410 3 0.449391 0.94573 0.5
411 3 0.499105 0.945897 0.5
412 3 0.600368 0.999828 0.5
413 3 0.600465 0.945187 0.5
414 3 0.650058 0.946232 0.5
415 3 0.700153 0.945921 0.5
416 3 0.750175 0.945843 0.5
ITEM: TIMESTEP
280
ITEM: NUMBER OF ATOMS
21
ITEM: BOX BOUNDS pp ss pp
0.0000000000000000e+00 2.2653923264628304e+01
2.1917670042342338e-01 2.0496358541970974e+01
-2.8317404080785380e-01 2.8317404080785380e-01
ITEM: ATOMS id type xs ys zs
379 3 0.449848 0.850999 0.5
380 3 0.47463 0.898271 0.5
381 3 0.499936 0.851207 0.5
382 3 0.524859 0.898721 0.5
383 3 0.549933 0.851188 0.5
384 3 0.574949 0.898414 0.5
385 3 0.600067 0.851147 0.5
386 3 0.625343 0.898209 0.5
387 3 0.650194 0.85106 0.5
388 3 0.675139 0.898514 0.5
389 3 0.700132 0.851151 0.5
390 3 0.725142 0.89841 0.5
391 3 0.750128 0.851106 0.5
392 3 0.775146 0.898356 0.5
410 3 0.449384 0.945725 0.5
411 3 0.499098 0.945892 0.5
412 3 0.600561 0.999812 0.5
413 3 0.600445 0.945177 0.5
414 3 0.650039 0.94624 0.5
415 3 0.700139 0.945924 0.5
416 3 0.750165 0.945844 0.5
ITEM: TIMESTEP
282
ITEM: NUMBER OF ATOMS
21
ITEM: BOX BOUNDS pp ss pp
0.0000000000000000e+00 2.2653923264628304e+01
2.1917670042342338e-01 2.0496358541970974e+01
-2.8317404080785380e-01 2.8317404080785380e-01
ITEM: ATOMS id type xs ys zs
379 3 0.449847 0.850999 0.5
380 3 0.474629 0.89827 0.5
381 3 0.499935 0.851207 0.5
382 3 0.524858 0.898721 0.5
383 3 0.549932 0.851187 0.5
384 3 0.574948 0.898413 0.5
385 3 0.600066 0.851146 0.5
386 3 0.625342 0.898209 0.5
387 3 0.650193 0.85106 0.5
388 3 0.675138 0.898514 0.5
389 3 0.700131 0.851151 0.5
390 3 0.725141 0.89841 0.5
391 3 0.750127 0.851107 0.5
392 3 0.775145 0.898357 0.5
410 3 0.449383 0.945725 0.5
411 3 0.499097 0.945891 0.5
412 3 0.600586 0.99981 0.5
413 3 0.600443 0.945176 0.5
414 3 0.650036 0.946241 0.5
415 3 0.700138 0.945924 0.5
416 3 0.750163 0.945844 0.5
