ITEM: TIMESTEP
0
ITEM: NUMBER OF ATOMS
483
ITEM: BOX BOUNDS
0.0 22.653923264628304
0.21917670042342338 19.932861341420704
-0.2831740408078538 0.2831740408078538
ITEM: ATOMS id type x y z 
1 3 10.203553577621234 17.489606408069424 0.0 
2 3 10.77141947209567 18.452757898574628 0.0 
3 3 11.337382437015881 17.49467282502216 0.0 
4 3 11.906743490425784 18.462023330355898 0.0 
5 3 12.469285712933035 17.49725531771013 0.0 
6 3 13.036336066169945 18.467760012586428 0.0 
7 3 13.598334594518844 17.492602888134854 0.0 
8 3 14.175420635761986 18.442388500453465 0.0 
9 3 14.734043729544455 17.48081410471954 0.0 
10 3 15.307074718523227 18.435331001351987 0.0 
11 3 15.867532780090134 17.475846256190007 0.0 
12 3 16.437482835504916 18.43268936761009 0.0 
13 3 16.999775864856254 17.47389460141055 0.0 
14 3 17.567890952486604 18.431959961278377 0.0 
15 3 10.202103726532298 19.41035013001107 0.0 
16 3 11.344495768920975 19.42478054716828 0.0 
17 3 12.637740286328812 19.930889972956603 0.0 
18 3 13.631024205789704 19.413129759545452 0.0 
19 3 14.752642600544714 19.401340976130136 0.0 
20 3 15.877840315175538 19.39684625603199 0.0 
21 3 17.005394037825884 19.39528887494535 0.0 
22 3 10.203553577621234 17.48960519709007 0.0 
23 3 10.77141947209567 18.45275004496281 0.0 
24 3 11.337382437015881 17.49468056102567 0.0 
25 3 11.906743490425784 18.462025023762767 0.0 
26 3 12.469285712933035 17.49726800146343 0.0 
27 3 13.036336066169945 18.467757199501794 0.0 
28 3 13.598334594518844 17.492590705287483 0.0 
29 3 14.175420635761986 18.442380379823803 0.0 
30 3 14.734043729544455 17.480807899601704 0.0 
31 3 15.307074718523227 18.43533458047791 0.0 
32 3 15.867532780090134 17.47583205260602 0.0 
33 3 16.437482835504916 18.432687429876207 0.0 
34 3 16.999775864856254 17.473901423971693 0.0 
35 3 17.567890952486604 18.43197090790883 0.0 
36 3 10.202103726532298 19.410361750976342 0.0 
37 3 11.344495768920975 19.42479170726383 0.0 
38 3 13.091838178168285 20.120594247752415 0.0 
39 3 13.631024205789704 19.413128321905944 0.0 
40 3 14.752642600544714 19.40134551622016 0.0 
41 3 15.877840315175538 19.396847350536063 0.0 
42 3 17.005394037825884 19.395294886273412 0.0 
43 3 10.203553577621234 17.4896106487329 0.0 
44 3 10.77141947209567 18.45275288828059 0.0 
45 3 11.337382437015881 17.494674107746672 0.0 
46 3 11.906743490425784 18.46201580338117 0.0 
47 3 12.469285712933035 17.49726611652753 0.0 
48 3 13.036336066169945 18.467762427499974 0.0 
49 3 13.598334594518844 17.49260451934025 0.0 
50 3 14.175420635761986 18.442384853157154 0.0 
51 3 14.734043729544455 17.480809874732778 0.0 
52 3 15.307074718523227 18.43533217810226 0.0 
53 3 15.867532780090134 17.47584688117563 0.0 
54 3 16.437482835504916 18.432699983138754 0.0 
55 3 16.999775864856254 17.473897851317158 0.0 
56 3 17.567890952486604 18.43195653875975 0.0 
57 3 10.202103726532298 19.410349434622717 0.0 
58 3 11.344495768920975 19.42479636728502 0.0 
59 3 13.545913416084494 20.31029890195491 0.0 
60 3 13.631024205789704 19.41314237431682 0.0 
61 3 14.752642600544714 19.401347729709347 0.0 
62 3 15.877840315175538 19.396846877252663 0.0 
63 3 17.005394037825884 19.395279616129354 0.0 
64 3 10.203553577621234 17.489611268408556 0.0 
65 3 10.77141947209567 18.452760055928835 0.0 
66 3 11.337382437015881 17.494681967075113 0.0 
67 3 11.906743490425784 18.4620292930913 0.0 
68 3 12.469285712933035 17.497257881997726 0.0 
69 3 13.036336066169945 18.46776932398184 0.0 
70 3 13.598334594518844 17.492592839224493 0.0 
71 3 14.175420635761986 18.44237526505973 0.0 
72 3 14.734043729544455 17.480808535523416 0.0 
73 3 15.307074718523227 18.435316852515886 0.0 
74 3 15.867532780090134 17.47583925083019 0.0 
75 3 16.437482835504916 18.43270037200394 0.0 
76 3 16.999775864856254 17.473892102542234 0.0 
77 3 17.567890952486604 18.43197019139596 0.0 
78 3 10.202103726532298 19.41035135771057 0.0 
79 3 11.344495768920975 19.42479270751292 0.0 
80 3 14.000011307923968 20.500003935564084 0.0 
81 3 13.631024205789704 19.413130100579842 0.0 
82 3 14.752642600544714 19.40134579687877 0.0 
83 3 15.877840315175538 19.396863299257532 0.0 
84 3 17.005394037825884 19.395281241273565 0.0 
85 2 0.0 0.22114806691615466 0.0 
86 2 0.5663480816157076 1.1832941614760362 0.0 
87 2 1.1326961632314152 0.22114806691615466 0.0 
88 2 1.6990442448471228 1.1832941614760362 0.0 
89 2 2.2653923264628304 0.22114806691615466 0.0 
90 2 2.831740408078538 1.1832941614760362 0.0 
91 2 3.3980884896942456 0.22114806691615466 0.0 
92 2 3.9644365713099528 1.1832941614760362 0.0 
93 2 4.530784652925661 0.22114806691615466 0.0 
94 2 5.097132734541368 1.1832941614760362 0.0 
95 2 5.663480816157076 0.22114806691615466 0.0 
96 2 6.2298288977727845 1.1832941614760362 0.0 
97 2 6.796176979388491 0.22114806691615466 0.0 
98 2 7.362525061004199 1.1832941614760362 0.0 
99 2 7.9288731426199055 0.22114806691615466 0.0 
100 2 8.495221224235614 1.1832941614760362 0.0 
101 2 9.061569305851322 0.22114806691615466 0.0 
102 2 9.62791738746703 1.1832941614760362 0.0 
103 2 10.194265469082737 0.22114806691615466 0.0 
104 2 10.760613550698444 1.1832941614760362 0.0 
105 2 11.326961632314152 0.22114806691615466 0.0 
106 2 11.89330971392986 1.1832941614760362 0.0 
107 2 12.459657795545569 0.22114806691615466 0.0 
108 2 13.026005877161273 1.1832941614760362 0.0 
109 2 13.592353958776982 0.22114806691615466 0.0 
110 2 14.15870204039269 1.1832941614760362 0.0 
111 2 14.725050122008398 0.22114806691615466 0.0 
112 2 15.291398203624107 1.1832941614760362 0.0 
113 2 15.857746285239811 0.22114806691615466 0.0 
114 2 16.42409436685552 1.1832941614760362 0.0 
115 2 16.990442448471228 0.22114806691615466 0.0 
116 2 17.556790530086936 1.1832941614760362 0.0 
117 2 18.123138611702643 0.22114806691615466 0.0 
118 2 18.68948669331835 1.1832941614760362 0.0 
119 2 19.25583477493406 0.22114806691615466 0.0 
120 2 19.822182856549766 1.1832941614760362 0.0 
121 2 20.388530938165474 0.22114806691615466 0.0 
122 2 20.95487901978118 1.1832941614760362 0.0 
123 2 21.52122710139689 0.22114806691615466 0.0 
124 2 22.087575183012596 1.1832941614760362 0.0 
125 2 5.5197643269662744e-17 2.141493574399422 0.0 
126 1 0.566531578394151 3.1000162917509195 0.0 
127 2 1.1326961632314152 2.141493574399422 0.0 
128 1 1.699270784079769 3.1000360054355602 0.0 
129 2 2.2653923264628304 2.141493574399422 0.0 
130 1 2.831989601234449 3.1000557191202014 0.0 
131 2 3.3980884896942456 2.141493574399422 0.0 
132 1 3.9647084183891286 3.1000754328048425 0.0 
133 2 4.530784652925661 2.141493574399422 0.0 
134 1 5.097404581620544 3.1001148601741244 0.0 
135 2 5.663480816157076 2.141493574399422 0.0 
136 1 6.230078090928695 3.1001345738587656 0.0 
137 2 6.796176979388491 2.141493574399422 0.0 
138 1 7.36272894631358 3.1001542875434067 0.0 
139 2 7.9288731426199055 2.141493574399422 0.0 
140 1 8.495379801698466 3.1001542875434067 0.0 
141 2 9.061569305851322 2.141493574399422 0.0 
142 1 9.628008003160087 3.1001542875434067 0.0 
143 2 10.194265469082737 2.141493574399422 0.0 
144 1 10.760658858544973 3.1001542875434067 0.0 
145 2 11.326961632314152 2.141493574399422 0.0 
146 1 11.893287060006594 3.1001542875434067 0.0 
147 2 12.459657795545569 2.141493574399422 0.0 
148 1 13.025960569314746 3.1001345738587656 0.0 
149 2 13.592353958776982 2.141493574399422 0.0 
150 1 14.15861142469963 3.1001148601741244 0.0 
151 2 14.725050122008398 2.141493574399422 0.0 
152 1 15.291307587931048 3.1000951464894833 0.0 
153 2 15.857746285239811 2.141493574399422 0.0 
154 1 16.424003751162463 3.1000754328048425 0.0 
155 2 16.990442448471228 2.141493574399422 0.0 
156 1 17.55672256831714 3.1000360054355602 0.0 
157 2 18.123138611702643 2.141493574399422 0.0 
158 1 18.68944138547182 3.1000162917509195 0.0 
159 2 19.25583477493406 2.141493574399422 0.0 
160 1 19.82220551047303 3.1000162917509195 0.0 
161 2 20.388530938165474 2.141493574399422 0.0 
162 1 20.954946981550975 3.099996578066279 0.0 
163 2 21.52122710139689 2.141493574399422 0.0 
164 1 22.087711106552185 3.1000162917509195 0.0 
165 1 0.0003105694302117688 4.058495638996208 0.0 
166 1 0.5668940411663852 5.016994699926136 0.0 
167 1 1.1331016684578519 4.05853506636549 0.0 
168 1 1.6997102701911029 5.01705384098006 0.0 
169 1 2.2658680588513875 4.058574493734771 0.0 
170 1 2.832487987546271 5.017152409403264 0.0 
171 1 3.398609529929332 4.058653348473335 0.0 
172 1 3.965229458624215 5.01727069151111 0.0 
173 1 4.531305693160747 4.058712489527259 0.0 
174 1 5.097925621855631 5.017388973618956 0.0 
175 1 5.663979202468898 4.058771630581181 0.0 
176 1 6.230553823317251 5.017487542042161 0.0 
177 1 6.796630057853784 4.0588110579504635 0.0 
178 1 7.363159370855608 5.017566396780725 0.0 
179 1 7.92923560539214 4.058850485319746 0.0 
180 1 8.495719610547436 5.017605824150007 0.0 
181 1 9.061818499007233 4.058870199004387 0.0 
182 1 9.628257196315998 5.017625537834649 0.0 
183 1 10.194424046545588 4.058870199004387 0.0 
184 1 10.760794782084561 5.017605824150007 0.0 
185 1 11.32700694016068 4.058850485319746 0.0 
186 1 11.893332367853125 5.017566396780725 0.0 
187 1 12.459612487699038 4.058830771635105 0.0 
188 1 13.025915261468215 5.017487542042161 0.0 
189 1 13.592240689160658 4.058771630581181 0.0 
190 1 14.158520809006573 5.017408687303597 0.0 
191 1 14.724891544545546 4.0587322032119 0.0 
192 1 15.291171664391458 5.017310118880392 0.0 
193 1 15.85758770777696 4.058673062157976 0.0 
194 1 16.423890481546138 5.017211550457187 0.0 
195 1 16.99030652493164 4.058613921104054 0.0 
196 1 17.556631952624084 5.017112982033982 0.0 
197 1 18.123047996009586 4.058554780050131 0.0 
198 1 18.68944138547182 5.017034127295418 0.0 
199 1 19.25583477493406 4.058515352680849 0.0 
200 1 19.822273472242824 5.016974986241495 0.0 
201 1 20.38862155385853 4.058495638996208 0.0 
202 1 20.955128212937094 5.0169355588722135 0.0 
203 1 21.52143098670627 4.058495638996208 0.0 
204 1 22.08798295363136 5.0169355588722135 0.0 
205 1 0.0006569388553586298 5.97539519243286 0.0 
206 1 0.567328996493066 6.9338351123088655 0.0 
207 1 1.1335298276075536 5.975474047171424 0.0 
208 1 1.7002177180722307 6.933992821785994 0.0 
209 1 2.2663664451632095 5.975612042963911 0.0 
210 1 2.8330543356278866 6.934209672317044 0.0 
211 1 3.3991532240876836 5.975769752441039 0.0 
212 1 3.9658184606290954 6.934446236532736 0.0 
213 1 4.531872041242363 5.9759471756028075 0.0 
214 1 5.098537277783776 6.934702514433069 0.0 
215 1 5.664522896627249 5.976124598764577 0.0 
216 1 6.231165479245397 6.934919364964121 0.0 
217 1 6.7971284441656055 5.976262594557063 0.0 
218 1 7.36370306501396 6.93511650181053 0.0 
219 1 7.929666029934168 5.976361162980269 0.0 
220 1 8.496195342935993 6.935234783918376 0.0 
221 1 9.062180961779466 5.976420304034192 0.0 
222 1 9.628642313011499 6.935293924972299 0.0 
223 1 10.1946732397015 5.976420304034192 0.0 
224 1 10.761066629163738 6.935254497603018 0.0 
225 1 11.327165517623534 5.976380876664909 0.0 
226 1 11.89351359923924 6.935175642864453 0.0 
227 1 12.459657795545569 5.976282308241705 0.0 
228 1 13.025983223238011 6.935017933387325 0.0 
229 1 13.592218035237396 5.976164026133859 0.0 
230 1 14.158520809006573 6.934801082856275 0.0 
231 1 14.72482358277575 5.976006316656731 0.0 
232 1 15.291149010468192 6.934584232325223 0.0 
233 1 15.857497092083902 5.975848607179603 0.0 
234 1 16.423845173699608 6.934347668109532 0.0 
235 1 16.990238563161846 5.975690897702474 0.0 
236 1 17.556631952624084 6.93413081757848 0.0 
237 1 18.12302534208632 5.975552901909988 0.0 
238 1 18.689509347241614 6.93393368073207 0.0 
239 1 19.25588008278059 5.975434619802142 0.0 
240 1 19.822432049705675 6.933795684939583 0.0 
241 1 20.388780131321386 5.975375478748219 0.0 
242 1 20.955377406093003 6.933736543885661 0.0 
243 1 21.52168017986218 5.975355765063577 0.0 
244 1 22.08832276248033 6.933756257570302 0.0 
245 1 0.001115182415155531 7.892137036392384 0.0 
246 1 0.5678998753593346 8.850557242583749 0.0 
247 1 1.1340621948042724 7.892314459554153 0.0 
248 1 1.7008497625313137 8.850833234168723 0.0 
249 1 2.26695544716809 7.892570737454486 0.0 
250 1 2.8337339533258254 8.8512077941769 0.0 
251 1 3.3997875339390924 7.8928664427241015 0.0 
252 1 3.9665660400968283 8.851621781554362 0.0 
253 1 4.532551658940302 7.8932015753629985 0.0 
254 1 5.099307511174772 8.852055482616464 0.0 
255 1 5.665225168248452 7.893536708001895 0.0 
256 1 6.231981020482923 8.852469469993926 0.0 
257 1 6.797808061863544 7.89383241327151 0.0 
258 1 7.364518606251486 8.852844030002105 0.0 
259 1 7.930322993708843 7.894049263802562 0.0 
260 1 8.496965576326991 8.853100307902437 0.0 
261 1 9.062747309861082 7.894187259595048 0.0 
262 1 9.629299276786172 8.853218590010282 0.0 
263 1 10.195126318166793 7.8942069732796885 0.0 
264 1 10.761610323322088 8.853218590010282 0.0 
265 1 11.327482672549237 7.894147832225766 0.0 
266 1 11.893876062011474 8.853041166848515 0.0 
267 1 12.459861680854948 7.893970409063997 0.0 
268 1 13.026209762470657 8.85276517526354 0.0 
269 1 13.592308650930454 7.893714131163664 0.0 
270 1 14.158656732546161 8.852390615255361 0.0 
271 1 14.724846236699015 7.8934184258940485 0.0 
272 1 15.291194318314723 8.851956914193261 0.0 
273 1 15.857497092083902 7.8930832932551525 0.0 
274 1 16.4239131354694 8.851503499446517 0.0 
275 1 16.99026121708511 7.8927481606162555 0.0 
276 1 17.556767876163672 8.851069798384415 0.0 
277 1 18.12311595777938 7.892472169031281 0.0 
278 1 18.689713232550996 8.850714952060876 0.0 
279 1 19.256061314166704 7.892235604815589 0.0 
280 1 19.822749204631382 8.850458674160544 0.0 
281 1 20.38905197840056 7.892097609023103 0.0 
282 1 20.955785176711764 8.850360105737339 0.0 
283 1 21.52206529655768 7.8920581816538204 0.0 
284 1 22.08882114879215 8.85037981942198 0.0 
285 1 0.0017402902429350315 9.808740884559422 0.0 
286 1 0.5686248009038027 10.767121663381504 0.0 
287 1 1.1347350163252319 9.809016876144396 0.0 
288 1 1.7016018727836992 10.767555364443606 0.0 
289 1 2.2676803727125576 9.809430863521856 0.0 
290 1 2.834549494563352 10.768087633928912 0.0 
291 1 3.4005804212533546 9.809923705637882 0.0 
292 1 3.967426889180884 10.768718471837426 0.0 
293 1 4.533389854101093 9.810455975123189 0.0 
294 1 5.100281629875152 10.769388737115218 0.0 
295 1 5.666131325179037 9.811007958293137 0.0 
296 1 6.233023100953097 10.770078716077654 0.0 
297 1 6.798782180563924 9.811540227778444 0.0 
298 1 7.365651302414717 10.770729267670808 0.0 
299 1 7.931274458485956 9.811973928840544 0.0 
300 1 8.498098272490221 10.771241823471474 0.0 
301 1 9.063653466791667 9.812249920425518 0.0 
302 1 9.630386665102874 10.771557242425729 0.0 
303 1 10.19589655155779 9.812368202533365 0.0 
304 1 10.762516480252673 10.771616383479651 0.0 
305 1 11.328094328477384 9.81226963411016 0.0 
306 1 11.894578333632678 10.771399532948601 0.0 
307 1 12.460292105396976 9.811993642525186 0.0 
308 1 13.026708148782477 10.770926404517217 0.0 
309 1 13.59258049800963 9.811540227778444 0.0 
310 1 14.158951233548601 10.770256139239423 0.0 
311 1 14.725004814161867 9.810988244608495 0.0 
312 1 15.291443511470634 10.76944787816914 0.0 
313 1 15.85763301562349 9.810377120384624 0.0 
314 1 16.424162328625314 10.76861990341422 0.0 
315 1 16.990442448471228 9.809765996160753 0.0 
316 1 17.55710768501264 10.767870783397862 0.0 
317 1 18.123387804858556 9.809233726675446 0.0 
318 1 18.69021161886282 10.767259659173991 0.0 
319 1 19.2564464308622 9.808839452982626 0.0 
320 1 19.82333820663626 10.766885099165812 0.0 
321 1 20.38955036471238 9.808622602451575 0.0 
322 1 20.956464794409705 10.766766817057967 0.0 
323 1 21.522631644639294 9.808583175082294 0.0 
324 1 22.089523420413354 10.766845671796531 0.0 
325 1 0.0025440808904642876 11.725167309564691 0.0 
326 1 0.569458465279941 12.683587515756054 0.0 
327 1 1.1355188420701878 11.725601010626793 0.0 
328 1 1.702383433136329 12.684159212610643 0.0 
329 1 2.26847326002682 11.72617270748138 0.0 
330 1 2.835319727954349 12.684868905257721 0.0 
331 1 3.401418616414146 11.726842972759176 0.0 
332 1 3.96828773826494 12.685696880012642 0.0 
333 1 4.534341318878208 11.727611806460175 0.0 
334 1 5.1012557485755305 12.686623423190769 0.0 
335 1 5.66721871349574 11.728459494899736 0.0 
336 1 6.234201104962858 12.687628821107458 0.0 
337 1 6.799982838496948 11.7293071833393 0.0 
338 1 7.3670558456571245 12.688673646393433 0.0 
339 1 7.93261103995857 11.73009573072494 0.0 
340 1 8.499684047118746 12.689659330625483 0.0 
341 1 9.065012702187545 11.73070685494881 0.0 
342 1 9.632017747577926 12.69040845064184 0.0 
343 1 10.197187825183875 11.731041987587709 0.0 
344 1 10.764034293111402 12.690723869596097 0.0 
345 1 11.329159062870822 11.730982846533784 0.0 
346 1 11.895801645488968 12.690507019065047 0.0 
347 1 12.461084992711237 11.730568859156325 0.0 
348 1 13.02754634394327 12.689738185364046 0.0 
349 1 13.593101538244715 11.729819739139966 0.0 
350 1 14.159562889476746 12.688555364285586 0.0 
351 1 14.725389930857368 11.728814341223275 0.0 
352 1 15.291987205628987 12.687116265306793 0.0 
353 1 15.857995478395726 11.727710374883378 0.0 
354 1 16.424841946323255 12.685618025274078 0.0 
355 1 16.990918180859786 11.726645835912764 0.0 
356 1 17.55799118801996 12.684336635772414 0.0 
357 1 18.124044768633226 11.72575872010392 0.0 
358 1 18.691231045409726 12.683469233648209 0.0 
359 1 19.2572166642532 11.725167309564691 0.0 
360 1 19.8244029410297 12.683035532586107 0.0 
361 1 20.39036590594991 11.724911031664357 0.0 
362 1 20.95746156703335 12.682976391532184 0.0 
363 1 21.523447185876822 11.724930745348999 0.0 
364 1 22.090452231267204 12.683173528378594 0.0 
365 1 0.003459933700206681 13.641554307200677 0.0 
366 1 0.5702672103404883 14.600073081815246 0.0 
367 1 1.136302667815144 13.642126004055266 0.0 
368 1 1.7030313353416975 14.60074334709304 0.0 
369 1 2.2691755316480235 13.642815983017702 0.0 
370 1 2.8358860760359645 14.601531894478681 0.0 
371 1 3.4021208880353497 13.643643957772623 0.0 
372 1 3.96887674026982 14.602478151341447 0.0 
373 1 4.5351342061924695 13.644609928320031 0.0 
374 1 5.101980674119999 14.603582117681345 0.0 
375 1 5.668215486119384 13.645713894659927 0.0 
376 1 6.235152569739971 14.60488322086765 0.0 
377 1 6.801251458199768 13.64693614310767 0.0 
378 1 7.368369773206473 14.606401174585008 0.0 
379 1 7.934219468510358 13.648256959978616 0.0 
380 1 8.501473707056652 14.60805712409485 0.0 
381 1 9.06689297781851 13.649498922110999 0.0 
382 1 9.634260485981125 14.609693359920053 0.0 
383 1 10.199158716507897 13.650405751604485 0.0 
384 1 10.76641295505419 14.610836753629231 0.0 
385 1 11.330926068885462 13.650662029504819 0.0 
386 1 11.897840498582784 14.610935322052436 0.0 
387 1 12.462421574183852 13.650129760019512 0.0 
388 1 13.02901884895547 14.609752500973977 0.0 
389 1 13.59405300302183 13.648808943148564 0.0 
390 1 14.160650277793449 14.607524854609544 0.0 
391 1 14.726160164248364 13.64697557047695 0.0 
392 1 15.293165209638746 14.604745225075161 0.0 
393 1 15.858901635326308 13.644945060958928 0.0 
394 1 16.4265409905681 14.602024736594705 0.0 
395 1 16.992141492716076 13.643091974602674 0.0 
396 1 17.559962079343986 14.600230791292375 0.0 
397 1 18.125449311875634 13.641830298785651 0.0 
398 1 18.693111321040693 14.59932396179889 0.0 
399 1 19.258621207495608 13.641179747192497 0.0 
400 1 19.826034023504754 14.599047970213913 0.0 
401 1 20.391634525652726 13.64100232403073 0.0 
402 1 20.958798148505963 14.599166252321762 0.0 
403 1 21.524534574193524 13.641160033507855 0.0 
404 1 22.091494311737375 14.59954081232994 0.0 
405 1 0.0043165918084586 15.558059586944509 0.0 
406 1 0.5708380892067569 16.51671635735157 0.0 
407 1 1.1369029967816566 15.55869042485302 0.0 
408 1 1.7033484902674023 16.51738662262936 0.0 
409 1 2.269605956190051 15.55943954486938 0.0 
410 1 2.836044653498817 16.518175170015002 0.0 
411 1 3.4024833508075836 15.560306946993583 0.0 
412 1 3.9689220481163496 16.51910171319313 0.0 
413 1 4.535519322887968 15.561351772279556 0.0 
414 1 5.102025981966528 16.52024510690231 0.0 
415 1 5.66873652635447 15.56261344809658 0.0 
416 1 6.235356455049352 16.5216842058811 0.0 
417 1 6.802089653360559 15.564151115498577 0.0 
418 1 7.368890813441559 16.52349786486807 0.0 
419 1 7.935510742136443 15.566023915539473 0.0 
420 1 8.502606403219882 16.525824079655706 0.0 
421 1 9.068863869142533 15.5681529934807 0.0 
422 1 9.636276685151676 16.52862342287473 0.0 
423 1 10.201809225529857 15.570380639845132 0.0 
424 1 10.769584504311236 16.53183675347121 0.0 
425 1 11.333825771063335 15.571898593562489 0.0 
426 1 11.901374510612069 16.533906690358517 0.0 
427 1 12.464732274356844 15.571543747238952 0.0 
428 1 13.031624050130903 16.532270454533315 0.0 
429 1 13.595661431573618 15.569118964028108 0.0 
430 1 14.162666476964 16.527460315480912 0.0 
431 1 14.727723284953623 15.565353650261677 0.0 
432 1 15.296925760900674 16.520777376387613 0.0 
433 1 15.861370912962153 15.561213776487069 0.0 
434 1 16.43059604283247 16.517209199467594 0.0 
435 1 16.994927925277626 15.55869042485302 0.0 
436 1 17.563496091373267 16.515671532065596 0.0 
437 1 18.12800920520454 15.55748789008992 0.0 
438 1 18.695875099678975 16.515218117318852 0.0 
439 1 19.260750676282484 15.5570936163971 0.0 
440 1 19.828050222675305 16.515277258372777 0.0 
441 1 20.39326560812778 15.557172471135665 0.0 
442 1 20.960180037825104 16.515612391011672 0.0 
443 1 21.52573523212655 15.557527317459202 0.0 
444 1 22.09240046866796 16.516105233127696 0.0 
445 1 0.00485294609567194 17.474821144588677 0.0 
446 1 0.5709377664691213 18.4336553381575 0.0 
447 1 1.1371182090526708 17.475432268812547 0.0 
448 1 1.7031717896659382 18.434246748696733 0.0 
449 1 2.2695833022667866 17.47612224777498 0.0 
450 1 2.835636882880054 18.434917013974527 0.0 
451 1 3.4022794654982023 17.476930508845264 0.0 
452 1 3.9683103921882044 18.435744988729446 0.0 
453 1 4.535179514038999 17.477916193077313 0.0 
454 1 5.1011877868057365 18.43678981401542 0.0 
455 1 5.668328755735706 17.479158155209696 0.0 
456 1 6.234337028502445 18.438150058255648 0.0 
457 1 6.801772498434854 17.480774677350258 0.0 
458 1 7.367803425124857 18.439983430927263 0.0 
459 1 7.9354880882131775 17.482943182660765 0.0 
460 1 8.501677592366033 18.44250678256131 0.0 
461 1 9.069475525070677 17.48582138061835 0.0 
462 1 9.636140761612088 18.44605524579669 0.0 
463 1 18.131543217233823 17.473441186663806 0.0 
464 1 18.698661532240525 18.43203881601694 0.0 
465 1 19.263151992148533 17.47352004140237 0.0 
466 1 19.829726612996886 18.432275380232632 0.0 
467 1 20.394851382756308 17.473835460356625 0.0 
468 1 20.961154156525485 18.43266965392545 0.0 
469 1 21.52670935082693 17.47428887510337 0.0 
470 1 22.09287620105652 18.433123068672195 0.0 
471 1 0.004801295150628587 19.396037994961706 0.0 
472 1 1.1367942579499866 19.396530837077734 0.0 
473 1 2.269016954185171 19.397102533932323 0.0 
474 1 3.4014639242606752 19.397772799210113 0.0 
475 1 4.534092125722296 19.39864020133432 0.0 
476 1 5.666901558570035 19.399763881358854 0.0 
477 1 6.7999375306504195 19.40126212139157 0.0 
478 1 7.933313311579774 19.403312344594234 0.0 
479 1 9.067210132744215 19.406190542551823 0.0 
480 1 18.13462415079781 19.394993169675736 0.0 
481 1 19.264828382470114 19.395052310729657 0.0 
482 1 20.395689577917096 19.39528887494535 0.0 
483 1 21.527026505752634 19.395624007584246 0.0 
ITEM: TIMESTEP
10
ITEM: NUMBER OF ATOMS
483
ITEM: BOX BOUNDS
0.0 22.653923264628304
0.21917670042342338 19.932861341420704
-0.2831740408078538 0.2831740408078538
ITEM: ATOMS id type x y z 
1 3 10.204731581630995 17.490966652309652 0.0 
2 3 10.77341301734296 18.454867262831215 0.0 
3 3 11.338311247869731 17.495993641893108 0.0 
4 3 11.90823864936125 18.4636595661811 0.0 
5 3 12.469829407091385 17.49835928405003 0.0 
6 3 13.03708364563768 18.469317393673066 0.0 
7 3 13.598425210211904 17.493214012358727 0.0 
8 3 14.177482142779066 18.44134367516749 0.0 
9 3 14.734859270781982 17.48041983102672 0.0 
10 3 15.308071491146872 18.435567565567677 0.0 
11 3 15.867895242862366 17.4760828204057 0.0 
12 3 16.437935913970207 18.43304421393363 0.0 
13 3 16.999934442319105 17.474131165626243 0.0 
14 3 17.56811749171925 18.432157098124787 0.0 
15 3 10.204391772782026 19.41186808372843 0.0 
16 3 11.348550821185343 19.42736303985625 0.0 
17 3 12.646144891859986 19.918430924263497 0.0 
18 3 13.637095457224625 19.41036984369571 0.0 
19 3 14.755225147796883 19.401695822453675 0.0 
20 3 15.879018319185299 19.397417952886578 0.0 
21 3 17.00591507806097 19.395604293899606 0.0 
22 3 10.203757462930616 17.48986988658826 0.0 
23 3 10.769493888618179 18.45121862737132 0.0 
24 3 11.336770781087736 17.49404033600288 0.0 
25 3 11.905361601106641 18.458597114797186 0.0 
26 3 12.467518706918394 17.492937572936512 0.0 
27 3 13.040640311590224 18.450196065255234 0.0 
28 3 13.600894487847748 17.484877377433254 0.0 
29 3 14.194857701923038 18.41785503205434 0.0 
30 3 14.74213118014993 17.470721909708622 0.0 
31 3 15.315705863287052 18.43044658124849 0.0 
32 3 15.871791717663882 17.47304773726678 0.0 
33 3 16.441016847534197 18.432010499778972 0.0 
34 3 17.00102183063581 17.47374949558174 0.0 
35 3 17.568842417263717 18.431990449541402 0.0 
36 3 10.199453217510337 19.411163851524456 0.0 
37 3 11.33072218357608 19.41940449916585 0.0 
38 3 13.027931460638767 20.267449347439157 0.0 
39 3 13.658231567630521 19.373790208693425 0.0 
40 3 14.76852300075322 19.395484565744482 0.0 
41 3 15.885519995162248 19.397088584750108 0.0 
42 3 17.008452317466606 19.395785319308036 0.0 
43 3 10.203372346235119 17.48965083491555 0.0 
44 3 10.768157307145566 18.450643113691516 0.0 
45 3 11.335207660382478 17.492805450253492 0.0 
46 3 11.902144744003065 18.455967782892504 0.0 
47 3 12.463962040965846 17.48750087414383 0.0 
48 3 13.03298328552678 18.436256460303188 0.0 
49 3 13.600917141771012 17.4818949016643 0.0 
50 3 14.189669953495438 18.418715191576915 0.0 
51 3 14.74161013991484 17.471968914550008 0.0 
52 3 15.311129770787597 18.434247151170737 0.0 
53 3 15.870319212651683 17.474982878248678 0.0 
54 3 16.438977994440382 18.43330277587849 0.0 
55 3 17.0003875207844 17.474098782230403 0.0 
56 3 17.56832137702863 18.432197655855642 0.0 
57 3 10.198705638042604 19.411153158275695 0.0 
58 3 11.328252905940236 19.418185740239263 0.0 
59 3 13.490275380546567 20.446088013125756 0.0 
60 3 13.631658515641114 19.362065736169985 0.0 
61 3 14.74924451205502 19.399760375494715 0.0 
62 3 15.877455198480039 19.397972090366835 0.0 
63 3 17.005688538828323 19.395781943412466 0.0 
64 3 10.20373480900735 17.48969239958722 0.0 
65 3 10.769086117999416 18.450468100131552 0.0 
66 3 11.337382437015881 17.49395178646713 0.0 
67 3 11.905067100104201 18.458418955640713 0.0 
68 3 12.469920022784443 17.49600034872842 0.0 
69 3 13.040209887048198 18.460771759821995 0.0 
70 3 13.600849180001218 17.492795667171155 0.0 
71 3 14.177164987853363 18.449190284067583 0.0 
72 3 14.734089037390984 17.48336416765136 0.0 
73 3 15.303087628028653 18.44280120374772 0.0 
74 3 15.86644539177343 17.478131206627474 0.0 
75 3 16.43646340895801 18.43393762247858 0.0 
76 3 16.99959463347014 17.47439917240889 0.0 
77 3 17.56786829856334 18.432254150521285 0.0 
78 3 10.198660330196073 19.41100040713989 0.0 
79 3 11.32793575101453 19.417693729379742 0.0 
80 3 14.028872406163105 20.448404505933212 0.0 
81 3 13.622415714949144 19.413860281187826 0.0 
82 3 14.74102113790996 19.426496462264886 0.0 
83 3 15.874193033529933 19.399317517412147 0.0 
84 3 17.004714420127943 19.395666614372225 0.0 
85 2 0.0 0.22114806691615466 0.0 
86 2 0.5663480816157076 1.1832941614760362 0.0 
87 2 1.1326961632314152 0.22114806691615466 0.0 
88 2 1.6990442448471228 1.1832941614760362 0.0 
89 2 2.2653923264628304 0.22114806691615466 0.0 
90 2 2.831740408078538 1.1832941614760362 0.0 
91 2 3.3980884896942456 0.22114806691615466 0.0 
92 2 3.9644365713099528 1.1832941614760362 0.0 
93 2 4.530784652925661 0.22114806691615466 0.0 
94 2 5.097132734541368 1.1832941614760362 0.0 
95 2 5.663480816157076 0.22114806691615466 0.0 
96 2 6.2298288977727845 1.1832941614760362 0.0 
97 2 6.796176979388491 0.22114806691615466 0.0 
98 2 7.362525061004199 1.1832941614760362 0.0 
99 2 7.9288731426199055 0.22114806691615466 0.0 
100 2 8.495221224235614 1.1832941614760362 0.0 
101 2 9.061569305851322 0.22114806691615466 0.0 
102 2 9.62791738746703 1.1832941614760362 0.0 
103 2 10.194265469082737 0.22114806691615466 0.0 
104 2 10.760613550698444 1.1832941614760362 0.0 
105 2 11.326961632314152 0.22114806691615466 0.0 
106 2 11.89330971392986 1.1832941614760362 0.0 
107 2 12.459657795545569 0.22114806691615466 0.0 
108 2 13.026005877161273 1.1832941614760362 0.0 
109 2 13.592353958776982 0.22114806691615466 0.0 
110 2 14.15870204039269 1.1832941614760362 0.0 
111 2 14.725050122008398 0.22114806691615466 0.0 
112 2 15.291398203624107 1.1832941614760362 0.0 
113 2 15.857746285239811 0.22114806691615466 0.0 
114 2 16.42409436685552 1.1832941614760362 0.0 
115 2 16.990442448471228 0.22114806691615466 0.0 
116 2 17.556790530086936 1.1832941614760362 0.0 
117 2 18.123138611702643 0.22114806691615466 0.0 
118 2 18.68948669331835 1.1832941614760362 0.0 
119 2 19.25583477493406 0.22114806691615466 0.0 
120 2 19.822182856549766 1.1832941614760362 0.0 
121 2 20.388530938165474 0.22114806691615466 0.0 
122 2 20.95487901978118 1.1832941614760362 0.0 
123 2 21.52122710139689 0.22114806691615466 0.0 
124 2 22.087575183012596 1.1832941614760362 0.0 
125 2 5.5197643269662744e-17 2.141493574399422 0.0 
126 1 0.566531578394151 3.1000162917509195 0.0 
127 2 1.1326961632314152 2.141493574399422 0.0 
128 1 1.699270784079769 3.1000360054355602 0.0 
129 2 2.2653923264628304 2.141493574399422 0.0 
130 1 2.831989601234449 3.1000557191202014 0.0 
131 2 3.3980884896942456 2.141493574399422 0.0 
132 1 3.9647084183891286 3.1000754328048425 0.0 
133 2 4.530784652925661 2.141493574399422 0.0 
134 1 5.097404581620544 3.1001148601741244 0.0 
135 2 5.663480816157076 2.141493574399422 0.0 
136 1 6.230078090928695 3.1001345738587656 0.0 