ITEM: TIMESTEP
0
ITEM: NUMBER OF ATOMS
399
ITEM: BOX BOUNDS pp ss pp
0.0000000000000000e+00 2.2653923264628304e+01
2.1917670042342338e-01 2.0501971366646707e+01
-2.8317404080785380e-01 2.8317404080785380e-01
ITEM: ATOMS id type xs ys zs
1 2 0 9.7194e-05 0.5
2 2 0.025 0.0475337 0.5
3 2 0.05 9.7194e-05 0.5
4 2 0.075 0.0475337 0.5
5 2 0.1 9.7194e-05 0.5
6 2 0.125 0.0475337 0.5
7 2 0.15 9.7194e-05 0.5
8 2 0.175 0.0475337 0.5
9 2 0.2 9.7194e-05 0.5
10 2 0.225 0.0475337 0.5
11 2 0.25 9.7194e-05 0.5
12 2 0.275 0.0475337 0.5
13 2 0.3 9.7194e-05 0.5
14 2 0.325 0.0475337 0.5
15 2 0.35 9.7194e-05 0.5
16 2 0.375 0.0475337 0.5
17 2 0.4 9.7194e-05 0.5
18 2 0.425 0.0475337 0.5
19 2 0.45 9.7194e-05 0.5
20 2 0.475 0.0475337 0.5
21 2 0.5 9.7194e-05 0.5
22 2 0.525 0.0475337 0.5
23 2 0.55 9.7194e-05 0.5
24 2 0.575 0.0475337 0.5
25 2 0.6 9.7194e-05 0.5
26 2 0.625 0.0475337 0.5
27 2 0.65 9.7194e-05 0.5
28 2 0.675 0.0475337 0.5
29 2 0.7 9.7194e-05 0.5
30 2 0.725 0.0475337 0.5
31 2 0.75 9.7194e-05 0.5
32 2 0.775 0.0475337 0.5
33 2 0.8 9.7194e-05 0.5
34 2 0.825 0.0475337 0.5
35 2 0.85 9.7194e-05 0.5
36 2 0.875 0.0475337 0.5
37 2 0.9 9.7194e-05 0.5
38 2 0.925 0.0475337 0.5
39 2 0.95 9.7194e-05 0.5
40 2 0.975 0.0475337 0.5
41 2 2.43656e-18 0.0947758 0.5
42 1 0.0250081 0.142034 0.5
43 2 0.05 0.0947758 0.5
44 1 0.07501 0.142035 0.5
45 2 0.1 0.0947758 0.5
46 1 0.125011 0.142036 0.5
47 2 0.15 0.0947758 0.5
48 1 0.175012 0.142037 0.5
49 2 0.2 0.0947758 0.5
50 1 0.225012 0.142038 0.5
51 2 0.25 0.0947758 0.5
52 1 0.275011 0.142039 0.5
53 2 0.3 0.0947758 0.5
54 1 0.325009 0.14204 0.5
55 2 0.35 0.0947758 0.5
56 1 0.375007 0.142041 0.5
57 2 0.4 0.0947758 0.5
58 1 0.425004 0.142041 0.5
59 2 0.45 0.0947758 0.5
60 1 0.475002 0.142041 0.5
61 2 0.5 0.0947758 0.5
62 1 0.524999 0.14204 0.5
63 2 0.55 0.0947758 0.5
64 1 0.574998 0.142039 0.5
65 2 0.6 0.0947758 0.5
66 1 0.624996 0.142038 0.5
67 2 0.65 0.0947758 0.5
68 1 0.674996 0.142037 0.5
69 2 0.7 0.0947758 0.5
70 1 0.724996 0.142036 0.5
71 2 0.75 0.0947758 0.5
72 1 0.774997 0.142035 0.5
73 2 0.8 0.0947758 0.5
74 1 0.824998 0.142034 0.5
75 2 0.85 0.0947758 0.5
76 1 0.875001 0.142033 0.5
77 2 0.9 0.0947758 0.5
78 1 0.925003 0.142033 0.5
79 2 0.95 0.0947758 0.5
80 1 0.975006 0.142033 0.5
81 1 1.37093e-05 0.18929 0.5
82 1 0.0250241 0.236546 0.5
83 1 0.0500179 0.189291 0.5
84 1 0.0750294 0.236549 0.5
85 1 0.100021 0.189294 0.5
86 1 0.125033 0.236554 0.5
87 1 0.150023 0.189297 0.5
88 1 0.175035 0.23656 0.5
89 1 0.200023 0.1893 0.5
90 1 0.225035 0.236565 0.5
91 1 0.250022 0.189303 0.5
92 1 0.275032 0.23657 0.5
93 1 0.30002 0.189305 0.5
94 1 0.325028 0.236574 0.5
95 1 0.350016 0.189307 0.5
96 1 0.375022 0.236577 0.5
97 1 0.400011 0.189308 0.5
98 1 0.425015 0.236577 0.5
99 1 0.450007 0.189308 0.5
100 1 0.475008 0.236577 0.5
101 1 0.500002 0.189307 0.5
102 1 0.525001 0.236574 0.5
103 1 0.549998 0.189305 0.5
104 1 0.574996 0.236571 0.5
105 1 0.599995 0.189303 0.5
106 1 0.624992 0.236567 0.5
107 1 0.649993 0.189301 0.5
108 1 0.67499 0.236562 0.5
109 1 0.699993 0.189298 0.5
110 1 0.724991 0.236557 0.5
111 1 0.749994 0.189295 0.5
112 1 0.774993 0.236552 0.5
113 1 0.799996 0.189293 0.5
114 1 0.824998 0.236548 0.5
115 1 0.85 0.189291 0.5
116 1 0.875004 0.236545 0.5
117 1 0.900004 0.189289 0.5
118 1 0.925011 0.236543 0.5
119 1 0.950009 0.189289 0.5
120 1 0.975018 0.236544 0.5
121 1 2.89989e-05 0.283798 0.5
122 1 0.0250433 0.331052 0.5
123 1 0.0500368 0.283802 0.5
124 1 0.0750518 0.33106 0.5
125 1 0.100043 0.283809 0.5
126 1 0.125058 0.331071 0.5
127 1 0.150047 0.283817 0.5
128 1 0.175061 0.331082 0.5
129 1 0.200048 0.283825 0.5
130 1 0.225062 0.331095 0.5
131 1 0.250046 0.283834 0.5
132 1 0.275059 0.331106 0.5
133 1 0.300042 0.283841 0.5
134 1 0.325052 0.331115 0.5
135 1 0.350035 0.283846 0.5
136 1 0.375043 0.331121 0.5
137 1 0.400027 0.283849 0.5
138 1 0.425032 0.331124 0.5
139 1 0.450018 0.283849 0.5
140 1 0.47502 0.331122 0.5
141 1 0.500009 0.283847 0.5
142 1 0.525009 0.331118 0.5
143 1 0.55 0.283842 0.5
144 1 0.574999 0.33111 0.5
145 1 0.599994 0.283836 0.5
146 1 0.624992 0.3311 0.5
147 1 0.64999 0.283829 0.5
148 1 0.674989 0.331089 0.5
149 1 0.699989 0.283821 0.5
150 1 0.724989 0.331077 0.5
151 1 0.749991 0.283813 0.5
152 1 0.774993 0.331066 0.5
153 1 0.799995 0.283806 0.5
154 1 0.825001 0.331057 0.5
155 1 0.850002 0.2838 0.5
156 1 0.875011 0.33105 0.5
157 1 0.900011 0.283797 0.5
158 1 0.925022 0.331047 0.5
159 1 0.95002 0.283796 0.5
160 1 0.975033 0.331048 0.5
161 1 4.92269e-05 0.378299 0.5
162 1 0.0250685 0.425552 0.5
163 1 0.0500603 0.378308 0.5
164 1 0.0750797 0.425566 0.5
165 1 0.100069 0.37832 0.5
166 1 0.125088 0.425584 0.5
167 1 0.150075 0.378335 0.5
168 1 0.175094 0.425604 0.5
169 1 0.200078 0.378352 0.5
170 1 0.225096 0.425626 0.5
171 1 0.250077 0.378368 0.5
172 1 0.275095 0.425646 0.5
173 1 0.300072 0.378382 0.5
174 1 0.325088 0.425664 0.5
175 1 0.350064 0.378393 0.5
176 1 0.375077 0.425677 0.5
177 1 0.400052 0.3784 0.5
178 1 0.425061 0.425683 0.5
179 1 0.450038 0.378401 0.5
180 1 0.475044 0.425683 0.5
181 1 0.500023 0.378398 0.5
182 1 0.525025 0.425675 0.5
183 1 0.550009 0.378389 0.5
184 1 0.575009 0.425661 0.5
185 1 0.599998 0.378377 0.5
186 1 0.624998 0.425642 0.5
187 1 0.649991 0.378362 0.5
188 1 0.674991 0.425621 0.5
189 1 0.699989 0.378346 0.5
190 1 0.724992 0.425598 0.5
191 1 0.749992 0.37833 0.5
192 1 0.774999 0.425577 0.5
193 1 0.799999 0.378315 0.5
194 1 0.82501 0.425559 0.5
195 1 0.85001 0.378304 0.5
196 1 0.875025 0.425547 0.5
197 1 0.900023 0.378297 0.5
198 1 0.92504 0.425542 0.5
199 1 0.950037 0.378295 0.5
200 1 0.975055 0.425544 0.5
201 1 7.68207e-05 0.472793 0.5
202 1 0.0251005 0.520044 0.5
203 1 0.05009 0.472807 0.5
204 1 0.0751129 0.520065 0.5
205 1 0.100101 0.472827 0.5
206 1 0.125124 0.520092 0.5
207 1 0.15011 0.472851 0.5
208 1 0.175132 0.520123 0.5
209 1 0.200115 0.472878 0.5
210 1 0.225139 0.520156 0.5
211 1 0.250117 0.472905 0.5
212 1 0.275141 0.52019 0.5
213 1 0.300115 0.472931 0.5
214 1 0.325138 0.520222 0.5
215 1 0.350106 0.472952 0.5
216 1 0.375127 0.520247 0.5
217 1 0.400092 0.472966 0.5
218 1 0.425109 0.520263 0.5
219 1 0.450072 0.472972 0.5
220 1 0.475084 0.520265 0.5
221 1 0.50005 0.472967 0.5
222 1 0.525056 0.520255 0.5
223 1 0.550028 0.472953 0.5
224 1 0.575031 0.520231 0.5
225 1 0.60001 0.472931 0.5
226 1 0.625011 0.520198 0.5
227 1 0.649998 0.472904 0.5
228 1 0.675002 0.520159 0.5
229 1 0.699995 0.472874 0.5
230 1 0.725003 0.520118 0.5
231 1 0.75 0.472844 0.5
232 1 0.775014 0.520081 0.5
233 1 0.800011 0.472818 0.5
234 1 0.825032 0.520051 0.5
235 1 0.850027 0.472798 0.5
236 1 0.875051 0.520032 0.5
237 1 0.900045 0.472787 0.5
238 1 0.92507 0.520026 0.5
239 1 0.950062 0.472786 0.5
240 1 0.975086 0.520031 0.5
241 1 0.000112302 0.567279 0.5
242 1 0.0251373 0.614532 0.5
243 1 0.0501246 0.5673 0.5
244 1 0.0751474 0.61456 0.5
245 1 0.100136 0.567328 0.5
246 1 0.125158 0.614594 0.5
247 1 0.150147 0.567361 0.5
248 1 0.17517 0.614635 0.5
249 1 0.200157 0.567399 0.5
250 1 0.225182 0.614681 0.5
251 1 0.250165 0.56744 0.5
252 1 0.275193 0.614731 0.5
253 1 0.300168 0.567482 0.5
254 1 0.3252 0.614782 0.5
255 1 0.350165 0.567521 0.5
256 1 0.375197 0.614831 0.5
257 1 0.400152 0.567551 0.5
258 1 0.425181 0.614867 0.5
259 1 0.450129 0.567568 0.5
260 1 0.475151 0.614883 0.5
261 1 0.500097 0.567566 0.5
262 1 0.52511 0.614872 0.5
263 1 0.550063 0.567545 0.5
264 1 0.575068 0.614835 0.5
265 1 0.600033 0.567507 0.5
266 1 0.625038 0.614776 0.5
267 1 0.650015 0.567458 0.5
268 1 0.675026 0.614705 0.5
269 1 0.700011 0.567404 0.5
270 1 0.725033 0.614632 0.5
271 1 0.750021 0.567351 0.5
272 1 0.775053 0.614569 0.5
273 1 0.80004 0.567307 0.5
274 1 0.825077 0.614526 0.5
275 1 0.850061 0.567278 0.5
276 1 0.875098 0.614504 0.5
277 1 0.900081 0.567265 0.5
278 1 0.925114 0.614501 0.5
279 1 0.950098 0.567267 0.5
280 1 0.975127 0.614511 0.5
281 1 0.00015273 0.661762 0.5
282 1 0.025173 0.709019 0.5
283 1 0.0501592 0.66179 0.5
284 1 0.075176 0.709053 0.5
285 1 0.100167 0.661824 0.5
286 1 0.125183 0.709092 0.5
287 1 0.150178 0.661865 0.5
288 1 0.175196 0.709138 0.5
289 1 0.200192 0.661912 0.5
290 1 0.225214 0.709193 0.5
291 1 0.250209 0.661967 0.5
292 1 0.275235 0.709257 0.5
293 1 0.300224 0.662027 0.5
294 1 0.325258 0.709331 0.5
295 1 0.350236 0.662092 0.5
296 1 0.375276 0.709413 0.5
297 1 0.400235 0.662153 0.5
298 1 0.42528 0.709493 0.5
299 1 0.450216 0.662198 0.5
300 1 0.475256 0.70955 0.5
301 1 0.500175 0.662211 0.5
302 1 0.5252 0.709555 0.5
303 1 0.550122 0.662184 0.5
304 1 0.575133 0.709497 0.5
305 1 0.600075 0.66212 0.5
306 1 0.625086 0.709387 0.5
307 1 0.650049 0.662029 0.5
308 1 0.675078 0.709249 0.5
309 1 0.700051 0.661928 0.5
310 1 0.725108 0.709116 0.5
311 1 0.750075 0.661837 0.5
312 1 0.77514 0.709027 0.5
313 1 0.800102 0.661775 0.5
314 1 0.82516 0.708983 0.5
315 1 0.850123 0.661743 0.5
316 1 0.87517 0.708969 0.5
317 1 0.900137 0.661735 0.5
318 1 0.925173 0.708974 0.5
319 1 0.950146 0.661743 0.5
320 1 0.975173 0.708993 0.5
321 1 0.000190545 0.756251 0.5
322 1 0.0251982 0.803515 0.5
323 1 0.0501857 0.756282 0.5
324 1 0.07519 0.803549 0.5
325 1 0.100186 0.756319 0.5
326 1 0.12519 0.803587 0.5
327 1 0.150194 0.756362 0.5
328 1 0.175198 0.803633 0.5
329 1 0.200209 0.756413 0.5
330 1 0.225216 0.803689 0.5
331 1 0.250232 0.756475 0.5
332 1 0.275244 0.80376 0.5
333 1 0.300261 0.756551 0.5
334 1 0.325281 0.80385 0.5
335 1 0.350293 0.756643 0.5
336 1 0.375326 0.803964 0.5
337 1 0.400322 0.756749 0.5
338 1 0.425369 0.804103 0.5
339 1 0.450333 0.756859 0.5
340 1 0.475396 0.804261 0.5
341 1 0.500303 0.756933 0.5
342 1 0.525356 0.804363 0.5
343 1 0.550224 0.756915 0.5
344 1 0.575248 0.804282 0.5
345 1 0.600146 0.756796 0.5
346 1 0.625175 0.804045 0.5
347 1 0.650118 0.756611 0.5
348 1 0.675244 0.803716 0.5
349 1 0.70016 0.756407 0.5
350 1 0.725287 0.80354 0.5
351 1 0.750198 0.756283 0.5
352 1 0.775296 0.803464 0.5
353 1 0.800215 0.756223 0.5
354 1 0.825282 0.803441 0.5
355 1 0.850217 0.756204 0.5
356 1 0.875259 0.803445 0.5
357 1 0.900209 0.756208 0.5
358 1 0.925234 0.803461 0.5
359 1 0.950199 0.756225 0.5
360 1 0.975213 0.803486 0.5
361 1 0.000214221 0.850753 0.5
362 1 0.0252026 0.898026 0.5
363 1 0.0501952 0.850783 0.5
364 1 0.0751822 0.898055 0.5
365 1 0.100185 0.850817 0.5
366 1 0.125172 0.898089 0.5
367 1 0.150185 0.850857 0.5
368 1 0.175171 0.898129 0.5
369 1 0.200194 0.850905 0.5
370 1 0.225179 0.89818 0.5
371 1 0.250214 0.850966 0.5
372 1 0.275199 0.898248 0.5
373 1 0.300247 0.851047 0.5
374 1 0.325233 0.898338 0.5
375 1 0.350292 0.851153 0.5
376 1 0.375285 0.898463 0.5
377 1 0.400349 0.851295 0.5
378 1 0.425363 0.898638 0.5
393 1 0.800371 0.850685 0.5
394 1 0.825405 0.897946 0.5
395 1 0.850323 0.850688 0.5
396 1 0.875333 0.897959 0.5
397 1 0.900279 0.850704 0.5
398 1 0.925277 0.897977 0.5
399 1 0.950242 0.850726 0.5
400 1 0.975234 0.898 0.5
401 1 0.000211941 0.945475 0.5
402 1 0.0501809 0.945499 0.5
403 1 0.10016 0.945527 0.5
404 1 0.150149 0.94556 0.5
405 1 0.200146 0.945602 0.5
406 1 0.250151 0.945658 0.5
407 1 0.300166 0.945732 0.5
408 1 0.350196 0.945833 0.5
409 1 0.400249 0.945975 0.5
417 1 0.800507 0.945422 0.5
418 1 0.850397 0.945426 0.5
419 1 0.900316 0.945437 0.5
420 1 0.950256 0.945454 0.5
ITEM: TIMESTEP
10
ITEM: NUMBER OF ATOMS
399
ITEM: BOX BOUNDS pp ss pp
0.0000000000000000e+00 2.2653923264628304e+01
2.1917670042342338e-01 2.0501971366646707e+01
-2.8317404080785380e-01 2.8317404080785380e-01
ITEM: ATOMS id type xs ys zs
1 2 0 9.7194e-05 0.5
2 2 0.025 0.0475337 0.5
3 2 0.05 9.7194e-05 0.5
4 2 0.075 0.0475337 0.5
5 2 0.1 9.7194e-05 0.5
6 2 0.125 0.0475337 0.5
7 2 0.15 9.7194e-05 0.5
8 2 0.175 0.0475337 0.5
9 2 0.2 9.7194e-05 0.5
10 2 0.225 0.0475337 0.5
11 2 0.25 9.7194e-05 0.5
12 2 0.275 0.0475337 0.5
13 2 0.3 9.7194e-05 0.5
14 2 0.325 0.0475337 0.5
15 2 0.35 9.7194e-05 0.5
16 2 0.375 0.0475337 0.5
17 2 0.4 9.7194e-05 0.5
18 2 0.425 0.0475337 0.5
19 2 0.45 9.7194e-05 0.5
20 2 0.475 0.0475337 0.5
21 2 0.5 9.7194e-05 0.5
22 2 0.525 0.0475337 0.5
23 2 0.55 9.7194e-05 0.5
24 2 0.575 0.0475337 0.5
25 2 0.6 9.7194e-05 0.5
26 2 0.625 0.0475337 0.5
27 2 0.65 9.7194e-05 0.5
28 2 0.675 0.0475337 0.5
29 2 0.7 9.7194e-05 0.5
30 2 0.725 0.0475337 0.5
31 2 0.75 9.7194e-05 0.5
32 2 0.775 0.0475337 0.5
33 2 0.8 9.7194e-05 0.5
34 2 0.825 0.0475337 0.5
35 2 0.85 9.7194e-05 0.5
36 2 0.875 0.0475337 0.5
37 2 0.9 9.7194e-05 0.5
38 2 0.925 0.0475337 0.5
39 2 0.95 9.7194e-05 0.5
40 2 0.975 0.0475337 0.5
41 2 2.43656e-18 0.0947758 0.5
42 1 0.0250083 0.142034 0.5
43 2 0.05 0.0947758 0.5
44 1 0.0750104 0.142035 0.5
45 2 0.1 0.0947758 0.5
46 1 0.125012 0.142036 0.5
47 2 0.15 0.0947758 0.5
48 1 0.175012 0.142037 0.5
49 2 0.2 0.0947758 0.5
50 1 0.225012 0.142038 0.5
51 2 0.25 0.0947758 0.5
52 1 0.275011 0.14204 0.5
53 2 0.3 0.0947758 0.5
54 1 0.325009 0.14204 0.5
55 2 0.35 0.0947758 0.5
56 1 0.375007 0.142041 0.5
57 2 0.4 0.0947758 0.5
58 1 0.425005 0.142041 0.5
59 2 0.45 0.0947758 0.5
60 1 0.475002 0.142041 0.5
61 2 0.5 0.0947758 0.5
62 1 0.525 0.14204 0.5
63 2 0.55 0.0947758 0.5
64 1 0.574998 0.14204 0.5
65 2 0.6 0.0947758 0.5
66 1 0.624996 0.142039 0.5
67 2 0.65 0.0947758 0.5
68 1 0.674996 0.142037 0.5
69 2 0.7 0.0947758 0.5
70 1 0.724996 0.142036 0.5
71 2 0.75 0.0947758 0.5
72 1 0.774997 0.142035 0.5
73 2 0.8 0.0947758 0.5
74 1 0.824999 0.142034 0.5
75 2 0.85 0.0947758 0.5
76 1 0.875001 0.142034 0.5
77 2 0.9 0.0947758 0.5
78 1 0.925003 0.142033 0.5
79 2 0.95 0.0947758 0.5
80 1 0.975006 0.142033 0.5
81 1 1.42209e-05 0.18929 0.5
82 1 0.0250249 0.236546 0.5
83 1 0.0500185 0.189292 0.5
84 1 0.0750304 0.23655 0.5
85 1 0.100022 0.189294 0.5
86 1 0.125034 0.236555 0.5
87 1 0.150024 0.189297 0.5
88 1 0.175036 0.23656 0.5
89 1 0.200024 0.1893 0.5
90 1 0.225036 0.236566 0.5
91 1 0.250023 0.189303 0.5
92 1 0.275033 0.236571 0.5
93 1 0.30002 0.189306 0.5
94 1 0.325029 0.236575 0.5
95 1 0.350017 0.189308 0.5
96 1 0.375023 0.236577 0.5
97 1 0.400012 0.189309 0.5
98 1 0.425016 0.236578 0.5
99 1 0.450007 0.189309 0.5
100 1 0.475009 0.236578 0.5
101 1 0.500003 0.189308 0.5
102 1 0.525002 0.236575 0.5
103 1 0.549998 0.189306 0.5
104 1 0.574997 0.236572 0.5
105 1 0.599995 0.189304 0.5
106 1 0.624993 0.236567 0.5
107 1 0.649993 0.189301 0.5
108 1 0.674991 0.236562 0.5
109 1 0.699993 0.189298 0.5
110 1 0.724991 0.236557 0.5
111 1 0.749994 0.189296 0.5
112 1 0.774994 0.236553 0.5
113 1 0.799996 0.189293 0.5
114 1 0.824998 0.236548 0.5
115 1 0.85 0.189291 0.5
116 1 0.875004 0.236545 0.5
117 1 0.900004 0.18929 0.5
118 1 0.925011 0.236544 0.5
119 1 0.950009 0.189289 0.5
120 1 0.975018 0.236544 0.5
121 1 3.00358e-05 0.283798 0.5
122 1 0.0250447 0.331053 0.5
123 1 0.050038 0.283803 0.5
124 1 0.0750534 0.331061 0.5
125 1 0.100044 0.283809 0.5
126 1 0.12506 0.331071 0.5
127 1 0.150048 0.283817 0.5
128 1 0.175063 0.331083 0.5
129 1 0.200049 0.283826 0.5
130 1 0.225064 0.331096 0.5
131 1 0.250048 0.283835 0.5
132 1 0.275061 0.331107 0.5
133 1 0.300044 0.283842 0.5
134 1 0.325054 0.331116 0.5
135 1 0.350037 0.283847 0.5
136 1 0.375045 0.331122 0.5
137 1 0.400029 0.28385 0.5
138 1 0.425034 0.331125 0.5
139 1 0.450019 0.28385 0.5
140 1 0.475022 0.331124 0.5
141 1 0.50001 0.283848 0.5
142 1 0.52501 0.331119 0.5
143 1 0.550001 0.283843 0.5
144 1 0.575 0.331112 0.5
145 1 0.599995 0.283837 0.5
146 1 0.624993 0.331102 0.5
147 1 0.64999 0.28383 0.5
148 1 0.674989 0.33109 0.5
149 1 0.699989 0.283822 0.5
150 1 0.72499 0.331078 0.5
151 1 0.749991 0.283814 0.5
152 1 0.774994 0.331067 0.5
153 1 0.799996 0.283807 0.5
154 1 0.825001 0.331058 0.5
155 1 0.850003 0.283801 0.5
156 1 0.875011 0.331051 0.5
157 1 0.900012 0.283798 0.5
158 1 0.925023 0.331048 0.5
159 1 0.950021 0.283797 0.5
160 1 0.975034 0.331048 0.5
161 1 5.07975e-05 0.3783 0.5
162 1 0.0250704 0.425552 0.5
163 1 0.0500621 0.378308 0.5
164 1 0.075082 0.425566 0.5
165 1 0.100071 0.378321 0.5
166 1 0.125091 0.425584 0.5
167 1 0.150077 0.378336 0.5
168 1 0.175097 0.425605 0.5
169 1 0.20008 0.378353 0.5
170 1 0.225099 0.425627 0.5
171 1 0.25008 0.378369 0.5
172 1 0.275097 0.425648 0.5
173 1 0.300075 0.378384 0.5
174 1 0.325091 0.425666 0.5
175 1 0.350066 0.378395 0.5
176 1 0.375079 0.425679 0.5
177 1 0.400054 0.378402 0.5
178 1 0.425064 0.425686 0.5
179 1 0.45004 0.378403 0.5
180 1 0.475046 0.425685 0.5
181 1 0.500025 0.3784 0.5
182 1 0.525027 0.425677 0.5
183 1 0.550011 0.378391 0.5
184 1 0.575011 0.425663 0.5
185 1 0.599999 0.378379 0.5
186 1 0.624999 0.425644 0.5
187 1 0.649992 0.378364 0.5
188 1 0.674993 0.425623 0.5
189 1 0.69999 0.378347 0.5
190 1 0.724993 0.4256 0.5
191 1 0.749993 0.378331 0.5
192 1 0.775 0.425578 0.5
193 1 0.8 0.378316 0.5
194 1 0.825011 0.42556 0.5
195 1 0.850011 0.378305 0.5
196 1 0.875026 0.425548 0.5
197 1 0.900024 0.378298 0.5
198 1 0.925042 0.425543 0.5
199 1 0.950038 0.378296 0.5
200 1 0.975057 0.425544 0.5
201 1 7.89175e-05 0.472793 0.5
202 1 0.025103 0.520045 0.5
203 1 0.0500924 0.472807 0.5
204 1 0.0751157 0.520066 0.5
205 1 0.100104 0.472827 0.5
206 1 0.125127 0.520093 0.5
207 1 0.150113 0.472852 0.5
208 1 0.175136 0.520124 0.5
209 1 0.200118 0.472879 0.5
210 1 0.225142 0.520158 0.5
211 1 0.250121 0.472906 0.5
212 1 0.275145 0.520192 0.5
213 1 0.300118 0.472933 0.5
214 1 0.325141 0.520224 0.5
215 1 0.350109 0.472954 0.5
216 1 0.375131 0.52025 0.5
217 1 0.400095 0.472969 0.5
218 1 0.425112 0.520266 0.5
219 1 0.450075 0.472974 0.5
220 1 0.475087 0.520269 0.5
221 1 0.500052 0.47297 0.5
222 1 0.525059 0.520258 0.5
223 1 0.55003 0.472956 0.5
224 1 0.575033 0.520235 0.5
225 1 0.600012 0.472934 0.5
226 1 0.625013 0.520201 0.5
227 1 0.65 0.472906 0.5
228 1 0.675003 0.520162 0.5
229 1 0.699996 0.472876 0.5
230 1 0.725005 0.520121 0.5
231 1 0.750001 0.472846 0.5
232 1 0.775016 0.520082 0.5
233 1 0.800012 0.472819 0.5
234 1 0.825033 0.520052 0.5
235 1 0.850028 0.472799 0.5
236 1 0.875053 0.520034 0.5
237 1 0.900046 0.472788 0.5
238 1 0.925072 0.520027 0.5
239 1 0.950063 0.472786 0.5
240 1 0.975088 0.520031 0.5
241 1 0.00011489 0.567279 0.5
242 1 0.0251403 0.614532 0.5
243 1 0.0501275 0.5673 0.5
244 1 0.0751506 0.61456 0.5
245 1 0.100139 0.567328 0.5
246 1 0.125162 0.614595 0.5
247 1 0.15015 0.567362 0.5
248 1 0.175174 0.614636 0.5
249 1 0.20016 0.5674 0.5
250 1 0.225186 0.614682 0.5
251 1 0.250168 0.567442 0.5
252 1 0.275197 0.614733 0.5
253 1 0.300172 0.567484 0.5
254 1 0.325203 0.614785 0.5
255 1 0.350169 0.567524 0.5
256 1 0.375201 0.614834 0.5
257 1 0.400156 0.567555 0.5
258 1 0.425185 0.614871 0.5
259 1 0.450132 0.567571 0.5
260 1 0.475154 0.614887 0.5
261 1 0.500099 0.567569 0.5
262 1 0.525112 0.614876 0.5
263 1 0.550065 0.567548 0.5
264 1 0.575071 0.614839 0.5
265 1 0.600036 0.567511 0.5
266 1 0.62504 0.61478 0.5
267 1 0.650017 0.567462 0.5
268 1 0.675028 0.614708 0.5
269 1 0.700013 0.567407 0.5
270 1 0.725034 0.614635 0.5
271 1 0.750023 0.567353 0.5
272 1 0.775055 0.614571 0.5
273 1 0.800041 0.567309 0.5
274 1 0.825079 0.614527 0.5
275 1 0.850063 0.56728 0.5
276 1 0.8751 0.614505 0.5
277 1 0.900083 0.567266 0.5
278 1 0.925117 0.614501 0.5
279 1 0.9501 0.567267 0.5
280 1 0.97513 0.614511 0.5
281 1 0.000155738 0.661762 0.5
282 1 0.0251763 0.709019 0.5
283 1 0.0501625 0.66179 0.5
284 1 0.0751795 0.709053 0.5
285 1 0.100171 0.661824 0.5
286 1 0.125187 0.709092 0.5
287 1 0.150182 0.661865 0.5
288 1 0.175199 0.709139 0.5
289 1 0.200196 0.661913 0.5
290 1 0.225217 0.709194 0.5
291 1 0.250212 0.661968 0.5
292 1 0.275239 0.709259 0.5
293 1 0.300228 0.66203 0.5
294 1 0.325262 0.709334 0.5
295 1 0.350239 0.662095 0.5
296 1 0.37528 0.709417 0.5
297 1 0.400239 0.662157 0.5
298 1 0.425283 0.709498 0.5
299 1 0.450219 0.662202 0.5
300 1 0.475259 0.709556 0.5
301 1 0.500178 0.662216 0.5
302 1 0.525203 0.70956 0.5
303 1 0.550125 0.662189 0.5
304 1 0.575136 0.709503 0.5
305 1 0.600077 0.662124 0.5
306 1 0.625088 0.709392 0.5
307 1 0.650051 0.662033 0.5
308 1 0.675081 0.709254 0.5
309 1 0.700053 0.661932 0.5
310 1 0.72511 0.70912 0.5
311 1 0.750077 0.66184 0.5
312 1 0.775142 0.70903 0.5
313 1 0.800104 0.661777 0.5
314 1 0.825163 0.708984 0.5
315 1 0.850125 0.661745 0.5
316 1 0.875173 0.708969 0.5
317 1 0.90014 0.661735 0.5
318 1 0.925176 0.708975 0.5
319 1 0.950149 0.661743 0.5
320 1 0.975176 0.708993 0.5
321 1 0.000193874 0.75625 0.5
322 1 0.0252016 0.803515 0.5
323 1 0.0501892 0.756282 0.5
324 1 0.0751935 0.803548 0.5
325 1 0.10019 0.756319 0.5
326 1 0.125193 0.803587 0.5
327 1 0.150198 0.756362 0.5
328 1 0.175202 0.803634 0.5
329 1 0.200213 0.756414 0.5
330 1 0.225219 0.803691 0.5
331 1 0.250235 0.756477 0.5
332 1 0.275247 0.803762 0.5
333 1 0.300264 0.756554 0.5
334 1 0.325284 0.803853 0.5
335 1 0.350297 0.756647 0.5
336 1 0.375331 0.80397 0.5
337 1 0.400327 0.756757 0.5
338 1 0.425378 0.804116 0.5
339 1 0.450336 0.756865 0.5
340 1 0.475395 0.804263 0.5
341 1 0.500304 0.756937 0.5
342 1 0.525358 0.804353 0.5
343 1 0.550228 0.75692 0.5
344 1 0.575267 0.804284 0.5
345 1 0.600151 0.756802 0.5
346 1 0.625198 0.804057 0.5
347 1 0.650123 0.756618 0.5
348 1 0.675242 0.803753 0.5
349 1 0.700161 0.756417 0.5
350 1 0.725278 0.803568 0.5
351 1 0.750198 0.756289 0.5
352 1 0.775296 0.803471 0.5
353 1 0.800218 0.756225 0.5
354 1 0.825284 0.803443 0.5
355 1 0.850219 0.756205 0.5
356 1 0.875262 0.803445 0.5
357 1 0.900212 0.756208 0.5
358 1 0.925238 0.803461 0.5
359 1 0.950202 0.756225 0.5
360 1 0.975217 0.803485 0.5
361 1 0.000217759 0.850752 0.5
362 1 0.0252061 0.898025 0.5
363 1 0.0501987 0.850783 0.5
364 1 0.0751854 0.898055 0.5
365 1 0.100189 0.850817 0.5
366 1 0.125175 0.898089 0.5
367 1 0.150188 0.850857 0.5
368 1 0.175173 0.89813 0.5
369 1 0.200197 0.850906 0.5
370 1 0.225182 0.898182 0.5
371 1 0.250217 0.850969 0.5
372 1 0.275201 0.89825 0.5
373 1 0.300249 0.85105 0.5
374 1 0.325235 0.898342 0.5
375 1 0.350296 0.851157 0.5
376 1 0.375287 0.898466 0.5
377 1 0.400358 0.851303 0.5
378 1 0.425347 0.898642 0.5
393 1 0.800373 0.850689 0.5
394 1 0.825409 0.897948 0.5
395 1 0.850327 0.850689 0.5
396 1 0.875337 0.897959 0.5
397 1 0.900283 0.850704 0.5
398 1 0.925281 0.897977 0.5
399 1 0.950246 0.850726 0.5
400 1 0.975237 0.898 0.5
401 1 0.000215589 0.945474 0.5
402 1 0.0501841 0.945498 0.5
403 1 0.100163 0.945527 0.5
404 1 0.150151 0.945561 0.5
405 1 0.200147 0.945604 0.5
406 1 0.250152 0.94566 0.5
407 1 0.300168 0.945735 0.5
408 1 0.350196 0.945837 0.5
409 1 0.400226 0.945983 0.5
417 1 0.800508 0.945427 0.5
418 1 0.850401 0.945427 0.5
419 1 0.90032 0.945437 0.5
420 1 0.95026 0.945454 0.5
ITEM: TIMESTEP
20
ITEM: NUMBER OF ATOMS
399
ITEM: BOX BOUNDS pp ss pp
0.0000000000000000e+00 2.2653923264628304e+01
2.1917670042342338e-01 2.0392271993279323e+01
-2.8317404080785380e-01 2.8317404080785380e-01
ITEM: ATOMS id type xs ys zs
1 2 0 9.77226e-05 0.5
2 2 0.025 0.0477922 0.5
3 2 0.05 9.77226e-05 0.5
4 2 0.075 0.0477922 0.5
5 2 0.1 9.77226e-05 0.5
6 2 0.125 0.0477922 0.5
7 2 0.15 9.77226e-05 0.5
8 2 0.175 0.0477922 0.5
9 2 0.2 9.77226e-05 0.5
10 2 0.225 0.0477922 0.5
11 2 0.25 9.77226e-05 0.5
12 2 0.275 0.0477922 0.5
13 2 0.3 9.77226e-05 0.5
14 2 0.325 0.0477922 0.5
15 2 0.35 9.77226e-05 0.5
16 2 0.375 0.0477922 0.5
17 2 0.4 9.77226e-05 0.5
18 2 0.425 0.0477922 0.5
19 2 0.45 9.77226e-05 0.5
20 2 0.475 0.0477922 0.5
21 2 0.5 9.77226e-05 0.5
22 2 0.525 0.0477922 0.5
23 2 0.55 9.77226e-05 0.5
24 2 0.575 0.0477922 0.5
25 2 0.6 9.77226e-05 0.5
26 2 0.625 0.0477922 0.5
27 2 0.65 9.77226e-05 0.5
28 2 0.675 0.0477922 0.5
29 2 0.7 9.77226e-05 0.5
30 2 0.725 0.0477922 0.5
31 2 0.75 9.77226e-05 0.5
32 2 0.775 0.0477922 0.5
33 2 0.8 9.77226e-05 0.5
34 2 0.825 0.0477922 0.5
35 2 0.85 9.77226e-05 0.5
36 2 0.875 0.0477922 0.5
37 2 0.9 9.77226e-05 0.5
38 2 0.925 0.0477922 0.5
39 2 0.95 9.77226e-05 0.5
40 2 0.975 0.0477922 0.5
41 2 2.43656e-18 0.0952912 0.5
42 1 0.025009 0.142807 0.5
43 2 0.05 0.0952912 0.5
44 1 0.0750111 0.142808 0.5
45 2 0.1 0.0952912 0.5
46 1 0.125013 0.142809 0.5
47 2 0.15 0.0952912 0.5
48 1 0.175013 0.14281 0.5
49 2 0.2 0.0952912 0.5
50 1 0.225013 0.142811 0.5
51 2 0.25 0.0952912 0.5
52 1 0.275012 0.142812 0.5
53 2 0.3 0.0952912 0.5
54 1 0.32501 0.142813 0.5
55 2 0.35 0.0952912 0.5
56 1 0.375008 0.142814 0.5
57 2 0.4 0.0952912 0.5
58 1 0.425005 0.142814 0.5
59 2 0.45 0.0952912 0.5
60 1 0.475003 0.142814 0.5
61 2 0.5 0.0952912 0.5
62 1 0.525 0.142813 0.5
63 2 0.55 0.0952912 0.5
64 1 0.574998 0.142813 0.5
65 2 0.6 0.0952912 0.5
66 1 0.624997 0.142812 0.5
67 2 0.65 0.0952912 0.5
68 1 0.674996 0.14281 0.5
69 2 0.7 0.0952912 0.5
70 1 0.724996 0.142809 0.5
71 2 0.75 0.0952912 0.5
72 1 0.774997 0.142808 0.5
73 2 0.8 0.0952912 0.5
74 1 0.824999 0.142807 0.5
75 2 0.85 0.0952912 0.5
76 1 0.875001 0.142807 0.5
77 2 0.9 0.0952912 0.5
78 1 0.925004 0.142806 0.5
79 2 0.95 0.0952912 0.5
80 1 0.975006 0.142806 0.5
81 1 1.5375e-05 0.19032 0.5
82 1 0.0250268 0.237834 0.5
83 1 0.0500199 0.190322 0.5
84 1 0.0750326 0.237837 0.5
85 1 0.100023 0.190324 0.5
86 1 0.125037 0.237842 0.5
87 1 0.150025 0.190327 0.5
88 1 0.175039 0.237848 0.5
89 1 0.200026 0.190331 0.5
90 1 0.225039 0.237854 0.5
91 1 0.250025 0.190334 0.5
92 1 0.275036 0.237859 0.5
93 1 0.300022 0.190336 0.5
94 1 0.325032 0.237863 0.5
95 1 0.350019 0.190338 0.5
96 1 0.375026 0.237866 0.5
97 1 0.400014 0.190339 0.5
98 1 0.425018 0.237867 0.5
99 1 0.450009 0.190339 0.5
100 1 0.475011 0.237866 0.5
101 1 0.500004 0.190338 0.5
102 1 0.525004 0.237864 0.5
103 1 0.549999 0.190337 0.5
104 1 0.574998 0.23786 0.5
105 1 0.599996 0.190334 0.5
106 1 0.624994 0.237856 0.5
107 1 0.649994 0.190332 0.5
108 1 0.674992 0.237851 0.5
109 1 0.699993 0.190329 0.5
110 1 0.724992 0.237845 0.5
111 1 0.749994 0.190326 0.5
112 1 0.774994 0.23784 0.5
113 1 0.799997 0.190323 0.5
114 1 0.824999 0.237836 0.5
115 1 0.850001 0.190321 0.5
116 1 0.875005 0.237833 0.5
117 1 0.900005 0.19032 0.5
118 1 0.925012 0.237831 0.5
119 1 0.95001 0.19032 0.5
120 1 0.97502 0.237832 0.5
121 1 3.23704e-05 0.285343 0.5
122 1 0.0250479 0.332854 0.5
123 1 0.0500407 0.285347 0.5
124 1 0.0750571 0.332862 0.5
125 1 0.100047 0.285354 0.5
126 1 0.125064 0.332873 0.5
127 1 0.150052 0.285362 0.5
128 1 0.175068 0.332885 0.5
129 1 0.200053 0.285371 0.5
130 1 0.225068 0.332898 0.5
131 1 0.250052 0.28538 0.5
132 1 0.275065 0.33291 0.5
133 1 0.300047 0.285387 0.5
134 1 0.325059 0.33292 0.5
135 1 0.350041 0.285393 0.5
136 1 0.37505 0.332926 0.5
137 1 0.400032 0.285396 0.5
138 1 0.425038 0.332929 0.5
139 1 0.450022 0.285396 0.5
140 1 0.475025 0.332928 0.5
141 1 0.500012 0.285394 0.5
142 1 0.525013 0.332923 0.5
143 1 0.550003 0.28539 0.5
144 1 0.575003 0.332916 0.5
145 1 0.599996 0.285383 0.5
146 1 0.624995 0.332905 0.5
147 1 0.649992 0.285376 0.5
148 1 0.674991 0.332894 0.5
149 1 0.699991 0.285368 0.5
150 1 0.724991 0.332882 0.5
151 1 0.749992 0.285359 0.5
152 1 0.774995 0.33287 0.5
153 1 0.799997 0.285352 0.5
154 1 0.825003 0.33286 0.5
155 1 0.850004 0.285346 0.5
156 1 0.875013 0.332853 0.5
157 1 0.900013 0.285342 0.5
158 1 0.925025 0.332849 0.5
159 1 0.950023 0.285341 0.5
160 1 0.975037 0.33285 0.5
161 1 5.43199e-05 0.380358 0.5
162 1 0.0250749 0.427868 0.5
163 1 0.0500662 0.380367 0.5
164 1 0.075087 0.427882 0.5
165 1 0.100076 0.38038 0.5
166 1 0.125097 0.4279 0.5
167 1 0.150082 0.380395 0.5
168 1 0.175103 0.427922 0.5
169 1 0.200086 0.380412 0.5
170 1 0.225106 0.427944 0.5
171 1 0.250085 0.380429 0.5
172 1 0.275104 0.427966 0.5
173 1 0.30008 0.380445 0.5
174 1 0.325097 0.427985 0.5
175 1 0.350071 0.380456 0.5
176 1 0.375085 0.427998 0.5
177 1 0.400059 0.380464 0.5
178 1 0.425069 0.428005 0.5
179 1 0.450044 0.380465 0.5
180 1 0.475051 0.428005 0.5
181 1 0.500029 0.380462 0.5
182 1 0.525032 0.427997 0.5
183 1 0.550014 0.380453 0.5
184 1 0.575015 0.427983 0.5
185 1 0.600002 0.380441 0.5
186 1 0.625002 0.427964 0.5
187 1 0.649994 0.380425 0.5
188 1 0.674995 0.427942 0.5
189 1 0.699992 0.380408 0.5
190 1 0.724995 0.427918 0.5
191 1 0.749994 0.380392 0.5
192 1 0.775002 0.427896 0.5
193 1 0.800002 0.380376 0.5
194 1 0.825014 0.427877 0.5
195 1 0.850013 0.380364 0.5
196 1 0.875029 0.427864 0.5
197 1 0.900027 0.380357 0.5
198 1 0.925045 0.427858 0.5
199 1 0.950041 0.380355 0.5
200 1 0.975061 0.42786 0.5
201 1 8.3593e-05 0.475365 0.5
202 1 0.0251086 0.522874 0.5
203 1 0.0500978 0.47538 0.5
204 1 0.0751219 0.522895 0.5
205 1 0.10011 0.4754 0.5
206 1 0.125133 0.522922 0.5
207 1 0.150119 0.475425 0.5
208 1 0.175143 0.522954 0.5
209 1 0.200125 0.475453 0.5
210 1 0.22515 0.522989 0.5
211 1 0.250128 0.475481 0.5
212 1 0.275152 0.523025 0.5
213 1 0.300125 0.475508 0.5
214 1 0.325149 0.523058 0.5
215 1 0.350116 0.475531 0.5
216 1 0.375138 0.523085 0.5
217 1 0.400101 0.475546 0.5
218 1 0.425119 0.523101 0.5
219 1 0.450081 0.475552 0.5
220 1 0.475093 0.523105 0.5
221 1 0.500057 0.475548 0.5
222 1 0.525064 0.523095 0.5
223 1 0.550035 0.475534 0.5
224 1 0.575038 0.523071 0.5
225 1 0.600016 0.475512 0.5
226 1 0.625017 0.523038 0.5
227 1 0.650003 0.475484 0.5
228 1 0.675007 0.522997 0.5
229 1 0.699999 0.475453 0.5
230 1 0.725008 0.522955 0.5
231 1 0.750003 0.475421 0.5
232 1 0.775019 0.522916 0.5
233 1 0.800015 0.475394 0.5
234 1 0.825036 0.522884 0.5
235 1 0.850031 0.475373 0.5
236 1 0.875056 0.522864 0.5
237 1 0.900049 0.475361 0.5
238 1 0.925076 0.522856 0.5
239 1 0.950067 0.475359 0.5
240 1 0.975093 0.52286 0.5
241 1 0.000120601 0.570365 0.5
242 1 0.0251468 0.617874 0.5
243 1 0.050134 0.570386 0.5
244 1 0.0751578 0.617903 0.5
245 1 0.100146 0.570414 0.5
246 1 0.125169 0.617938 0.5
247 1 0.150158 0.570449 0.5
248 1 0.175182 0.61798 0.5
249 1 0.200168 0.570488 0.5
250 1 0.225194 0.618028 0.5
251 1 0.250176 0.570531 0.5
252 1 0.275205 0.61808 0.5
253 1 0.30018 0.570575 0.5
254 1 0.325211 0.618133 0.5
255 1 0.350176 0.570615 0.5
256 1 0.375208 0.618182 0.5
257 1 0.400163 0.570647 0.5
258 1 0.425191 0.61822 0.5
259 1 0.450138 0.570665 0.5
260 1 0.475161 0.618238 0.5
261 1 0.500106 0.570664 0.5
262 1 0.525121 0.618229 0.5
263 1 0.550071 0.570644 0.5
264 1 0.575079 0.618194 0.5
265 1 0.600041 0.570606 0.5
266 1 0.625048 0.618136 0.5
267 1 0.650022 0.570557 0.5
268 1 0.675034 0.618064 0.5
269 1 0.700017 0.570501 0.5
270 1 0.725039 0.61799 0.5
271 1 0.750026 0.570446 0.5
272 1 0.775057 0.617925 0.5
273 1 0.800044 0.570401 0.5
274 1 0.82508 0.617878 0.5
275 1 0.850066 0.570369 0.5
276 1 0.875103 0.617852 0.5
277 1 0.900087 0.570354 0.5
278 1 0.925121 0.617845 0.5