ITEM: TIMESTEP
0
ITEM: NUMBER OF ATOMS
21
ITEM: BOX BOUNDS pp ss pp
0.0000000000000000e+00 2.2653923264628304e+01
2.1917670042342338e-01 2.0122564683162704e+01
-2.8317404080785380e-01 2.8317404080785380e-01
ITEM: ATOMS id type xs ys zs
379 3 0.45041 0.867713 0.5
380 3 0.475477 0.916104 0.5
381 3 0.50046 0.867968 0.5
382 3 0.525593 0.91657 0.5
383 3 0.550425 0.868098 0.5
384 3 0.575456 0.916858 0.5
385 3 0.600264 0.867863 0.5
386 3 0.625738 0.915583 0.5
387 3 0.650397 0.867271 0.5
388 3 0.675692 0.915229 0.5
389 3 0.700432 0.867021 0.5
390 3 0.725591 0.915096 0.5
391 3 0.750412 0.866924 0.5
392 3 0.77549 0.91506 0.5
410 3 0.450346 0.964217 0.5
411 3 0.500774 0.964942 0.5
412 3 0.577906 0.999901 0.5
413 3 0.601707 0.964356 0.5
414 3 0.651218 0.963764 0.5
415 3 0.700887 0.963538 0.5
416 3 0.75066 0.96346 0.5
ITEM: TIMESTEP
10
ITEM: NUMBER OF ATOMS
21
ITEM: BOX BOUNDS pp ss pp
0.0000000000000000e+00 2.2653923264628304e+01
2.1917670042342338e-01 2.0269414270721047e+01
-2.8317404080785380e-01 2.8317404080785380e-01
ITEM: ATOMS id type xs ys zs
379 3 0.450419 0.861371 0.5
380 3 0.475392 0.909318 0.5
381 3 0.500433 0.861579 0.5
382 3 0.525532 0.909686 0.5
383 3 0.550347 0.861524 0.5
384 3 0.575646 0.909267 0.5
385 3 0.600377 0.861122 0.5
386 3 0.626596 0.907654 0.5
387 3 0.650754 0.860416 0.5
388 3 0.676073 0.908282 0.5
389 3 0.70062 0.860532 0.5
390 3 0.725747 0.90836 0.5
391 3 0.750467 0.860567 0.5
392 3 0.775532 0.908359 0.5
410 3 0.450229 0.957195 0.5
411 3 0.500166 0.957606 0.5
412 3 0.575085 0.999902 0.5
413 3 0.602908 0.955331 0.5
414 3 0.651919 0.956413 0.5
415 3 0.701226 0.956493 0.5
416 3 0.750795 0.956428 0.5
ITEM: TIMESTEP
20
ITEM: NUMBER OF ATOMS
21
ITEM: BOX BOUNDS pp ss pp
0.0000000000000000e+00 2.2653923264628304e+01
2.1917670042342338e-01 2.0269414270721047e+01
-2.8317404080785380e-01 2.8317404080785380e-01
ITEM: ATOMS id type xs ys zs
379 3 0.450351 0.861279 0.5
380 3 0.475268 0.909152 0.5
381 3 0.500446 0.861493 0.5
382 3 0.525569 0.909572 0.5
383 3 0.550456 0.861401 0.5
384 3 0.575795 0.909205 0.5
385 3 0.600529 0.860997 0.5
386 3 0.626279 0.90817 0.5
387 3 0.650775 0.860473 0.5
388 3 0.676082 0.908246 0.5
389 3 0.700711 0.860466 0.5
390 3 0.725851 0.908305 0.5
391 3 0.750592 0.860495 0.5
392 3 0.775651 0.908341 0.5
410 3 0.450017 0.957091 0.5
411 3 0.499891 0.957354 0.5
412 3 0.574519 1.00151 0.5
413 3 0.6023 0.956027 0.5
414 3 0.651597 0.956321 0.5
415 3 0.701174 0.956365 0.5
416 3 0.750866 0.956401 0.5
ITEM: TIMESTEP
30
ITEM: NUMBER OF ATOMS
21
ITEM: BOX BOUNDS pp ss pp
0.0000000000000000e+00 2.2653923264628304e+01
2.1917670042342338e-01 2.0269414270721047e+01
-2.8317404080785380e-01 2.8317404080785380e-01
ITEM: ATOMS id type xs ys zs
379 3 0.450305 0.861186 0.5
380 3 0.475195 0.90903 0.5
381 3 0.50043 0.861406 0.5
382 3 0.525503 0.909491 0.5
383 3 0.550466 0.861368 0.5
384 3 0.575716 0.909272 0.5
385 3 0.600509 0.861039 0.5
386 3 0.626096 0.908389 0.5
387 3 0.650707 0.860565 0.5
388 3 0.675968 0.908328 0.5
389 3 0.700669 0.860512 0.5
390 3 0.725804 0.908309 0.5
391 3 0.750604 0.860497 0.5
392 3 0.77566 0.908322 0.5
410 3 0.449927 0.956971 0.5
411 3 0.499781 0.957229 0.5
412 3 0.574366 1.00215 0.5
413 3 0.601991 0.956336 0.5
414 3 0.6514 0.956433 0.5
415 3 0.701071 0.956363 0.5
416 3 0.750827 0.956368 0.5
ITEM: TIMESTEP
40
ITEM: NUMBER OF ATOMS
21
ITEM: BOX BOUNDS pp ss pp
0.0000000000000000e+00 2.2653923264628304e+01
2.1917670042342338e-01 2.0269414270721047e+01
-2.8317404080785380e-01 2.8317404080785380e-01
ITEM: ATOMS id type xs ys zs
379 3 0.450276 0.861132 0.5
380 3 0.475151 0.908975 0.5
381 3 0.500406 0.861361 0.5
382 3 0.525454 0.909453 0.5
383 3 0.550441 0.861365 0.5
384 3 0.575653 0.90929 0.5
385 3 0.600488 0.861088 0.5
386 3 0.626037 0.908408 0.5
387 3 0.650651 0.860661 0.5
388 3 0.675898 0.90837 0.5
389 3 0.700646 0.860545 0.5
390 3 0.725772 0.908329 0.5
391 3 0.750582 0.860512 0.5
392 3 0.775642 0.90833 0.5
410 3 0.449881 0.956912 0.5
411 3 0.499723 0.957181 0.5
412 3 0.574383 1.00237 0.5
413 3 0.601868 0.956443 0.5
414 3 0.651329 0.956497 0.5
415 3 0.701019 0.956394 0.5
416 3 0.750801 0.956371 0.5
ITEM: TIMESTEP
50
ITEM: NUMBER OF ATOMS
21
ITEM: BOX BOUNDS pp ss pp
0.0000000000000000e+00 2.2653923264628304e+01
2.1917670042342338e-01 2.0269414270721047e+01
-2.8317404080785380e-01 2.8317404080785380e-01
ITEM: ATOMS id type xs ys zs
379 3 0.450257 0.8611 0.5
380 3 0.475123 0.908943 0.5
381 3 0.500386 0.861336 0.5
382 3 0.52542 0.909434 0.5
383 3 0.550424 0.861354 0.5
384 3 0.57562 0.9093 0.5
385 3 0.600463 0.861092 0.5
386 3 0.625994 0.908455 0.5
387 3 0.650633 0.860666 0.5
388 3 0.675872 0.908397 0.5
389 3 0.700622 0.860569 0.5
390 3 0.725748 0.908346 0.5
391 3 0.750571 0.860527 0.5
392 3 0.775631 0.908335 0.5
410 3 0.449851 0.956878 0.5
411 3 0.499687 0.957154 0.5
412 3 0.574426 1.00249 0.5
413 3 0.601819 0.956462 0.5
414 3 0.651283 0.956521 0.5
415 3 0.700991 0.956412 0.5
416 3 0.750783 0.95638 0.5
ITEM: TIMESTEP
60
ITEM: NUMBER OF ATOMS
21
ITEM: BOX BOUNDS pp ss pp
0.0000000000000000e+00 2.2653923264628304e+01
2.1917670042342338e-01 2.0269414270721047e+01
-2.8317404080785380e-01 2.8317404080785380e-01
ITEM: ATOMS id type xs ys zs
379 3 0.45024 0.861074 0.5
380 3 0.475099 0.908918 0.5
381 3 0.500369 0.861316 0.5
382 3 0.525393 0.909417 0.5
383 3 0.550407 0.861347 0.5
384 3 0.575592 0.909302 0.5
385 3 0.600446 0.8611 0.5
386 3 0.625966 0.908469 0.5
387 3 0.650615 0.860684 0.5
388 3 0.675848 0.908414 0.5
389 3 0.700607 0.860585 0.5
390 3 0.72573 0.90836 0.5
391 3 0.75056 0.860539 0.5
392 3 0.77562 0.908344 0.5
410 3 0.449825 0.956852 0.5
411 3 0.499656 0.957133 0.5
412 3 0.574485 1.00258 0.5
413 3 0.601778 0.956477 0.5
414 3 0.65125 0.956539 0.5
415 3 0.700968 0.956427 0.5
416 3 0.750769 0.956389 0.5
ITEM: TIMESTEP
70
ITEM: NUMBER OF ATOMS
21
ITEM: BOX BOUNDS pp ss pp
0.0000000000000000e+00 2.2653923264628304e+01
2.1917670042342338e-01 2.0269414270721047e+01
-2.8317404080785380e-01 2.8317404080785380e-01
ITEM: ATOMS id type xs ys zs
379 3 0.450221 0.861046 0.5
380 3 0.475073 0.908892 0.5
381 3 0.500349 0.861295 0.5
382 3 0.525365 0.909399 0.5
383 3 0.550388 0.861338 0.5
384 3 0.575563 0.909298 0.5
385 3 0.600427 0.861104 0.5
386 3 0.625938 0.908477 0.5
387 3 0.650596 0.860698 0.5
388 3 0.675823 0.908428 0.5
389 3 0.700591 0.860601 0.5
390 3 0.725712 0.908374 0.5
391 3 0.750548 0.860553 0.5
392 3 0.775608 0.908355 0.5
410 3 0.449797 0.956823 0.5
411 3 0.499622 0.95711 0.5
412 3 0.574577 1.00269 0.5
413 3 0.601738 0.956484 0.5
414 3 0.651218 0.956552 0.5
415 3 0.700943 0.95644 0.5
416 3 0.750753 0.9564 0.5
ITEM: TIMESTEP
80
ITEM: NUMBER OF ATOMS
21
ITEM: BOX BOUNDS pp ss pp
0.0000000000000000e+00 2.2653923264628304e+01
2.1917670042342338e-01 2.0269414270721047e+01
-2.8317404080785380e-01 2.8317404080785380e-01
ITEM: ATOMS id type xs ys zs
379 3 0.450209 0.861028 0.5
380 3 0.475057 0.908875 0.5
381 3 0.500337 0.861281 0.5
382 3 0.525347 0.909387 0.5
383 3 0.550376 0.861329 0.5
384 3 0.575546 0.909294 0.5
385 3 0.600415 0.861101 0.5
386 3 0.625921 0.908482 0.5
387 3 0.650585 0.8607 0.5
388 3 0.675809 0.908436 0.5
389 3 0.700581 0.860608 0.5
390 3 0.725701 0.908382 0.5
391 3 0.750541 0.860561 0.5
392 3 0.775601 0.908361 0.5
410 3 0.449779 0.956806 0.5
411 3 0.499602 0.957094 0.5
412 3 0.57465 1.00277 0.5
413 3 0.601716 0.956483 0.5
414 3 0.651198 0.956556 0.5
415 3 0.700928 0.956447 0.5
416 3 0.750743 0.956406 0.5
ITEM: TIMESTEP
90
ITEM: NUMBER OF ATOMS
21
ITEM: BOX BOUNDS pp ss pp
0.0000000000000000e+00 2.2653923264628304e+01
2.1917670042342338e-01 2.0269414270721047e+01
-2.8317404080785380e-01 2.8317404080785380e-01
ITEM: ATOMS id type xs ys zs
379 3 0.450198 0.861011 0.5
380 3 0.475042 0.908859 0.5
381 3 0.500325 0.861267 0.5
382 3 0.525332 0.909375 0.5
383 3 0.550364 0.861322 0.5
384 3 0.57553 0.909286 0.5
385 3 0.600405 0.861102 0.5
386 3 0.625908 0.908479 0.5
387 3 0.650575 0.860708 0.5
388 3 0.675796 0.908439 0.5
389 3 0.700573 0.860615 0.5
390 3 0.725691 0.908387 0.5
391 3 0.750534 0.860567 0.5
392 3 0.775593 0.908368 0.5
410 3 0.449763 0.956789 0.5
411 3 0.499583 0.95708 0.5
412 3 0.574731 1.00285 0.5
413 3 0.601694 0.956483 0.5
414 3 0.65118 0.95656 0.5
415 3 0.700914 0.956452 0.5
416 3 0.750733 0.956412 0.5
ITEM: TIMESTEP
100
ITEM: NUMBER OF ATOMS
21
ITEM: BOX BOUNDS pp ss pp
0.0000000000000000e+00 2.2653923264628304e+01
2.1917670042342338e-01 2.0269414270721047e+01
-2.8317404080785380e-01 2.8317404080785380e-01
ITEM: ATOMS id type xs ys zs
379 3 0.450191 0.861 0.5
380 3 0.475033 0.908849 0.5
381 3 0.500318 0.861258 0.5
382 3 0.525322 0.909367 0.5
383 3 0.550357 0.861315 0.5
384 3 0.575521 0.909282 0.5
385 3 0.600398 0.861097 0.5
386 3 0.625897 0.908481 0.5
387 3 0.650569 0.860705 0.5
388 3 0.675788 0.908442 0.5
389 3 0.700567 0.860617 0.5
390 3 0.725684 0.908391 0.5
391 3 0.750529 0.860571 0.5
392 3 0.775588 0.908371 0.5
410 3 0.449753 0.956778 0.5
411 3 0.499571 0.95707 0.5
412 3 0.574792 1.0029 0.5
413 3 0.601681 0.956479 0.5
414 3 0.651168 0.95656 0.5
415 3 0.700904 0.956454 0.5
416 3 0.750725 0.956415 0.5
ITEM: TIMESTEP
110
ITEM: NUMBER OF ATOMS
21
ITEM: BOX BOUNDS pp ss pp
0.0000000000000000e+00 2.2653923264628304e+01
2.1917670042342338e-01 2.0269414270721047e+01
-2.8317404080785380e-01 2.8317404080785380e-01
ITEM: ATOMS id type xs ys zs
379 3 0.450184 0.860989 0.5
380 3 0.475024 0.908837 0.5
381 3 0.50031 0.861248 0.5
382 3 0.525312 0.909358 0.5
383 3 0.55035 0.861307 0.5
384 3 0.575511 0.909276 0.5
385 3 0.600391 0.861092 0.5
386 3 0.625887 0.908482 0.5
387 3 0.650562 0.860703 0.5
388 3 0.67578 0.908445 0.5
389 3 0.700561 0.860618 0.5
390 3 0.725677 0.908395 0.5
391 3 0.750525 0.860575 0.5
392 3 0.775583 0.908375 0.5
410 3 0.449743 0.956766 0.5
411 3 0.499559 0.957059 0.5
412 3 0.57486 1.00296 0.5
413 3 0.601667 0.956475 0.5
414 3 0.651156 0.95656 0.5
415 3 0.700895 0.956456 0.5
416 3 0.750718 0.956417 0.5
ITEM: TIMESTEP
120
ITEM: NUMBER OF ATOMS
21
ITEM: BOX BOUNDS pp ss pp
0.0000000000000000e+00 2.2653923264628304e+01
2.1917670042342338e-01 2.0269414270721047e+01
-2.8317404080785380e-01 2.8317404080785380e-01
ITEM: ATOMS id type xs ys zs
379 3 0.450178 0.860979 0.5
380 3 0.475016 0.908828 0.5
381 3 0.500305 0.86124 0.5
382 3 0.525304 0.909351 0.5
383 3 0.550344 0.861301 0.5
384 3 0.575503 0.909271 0.5
385 3 0.600386 0.861089 0.5
386 3 0.62588 0.90848 0.5
387 3 0.650557 0.860703 0.5
388 3 0.675773 0.908445 0.5
389 3 0.700556 0.86062 0.5
390 3 0.725671 0.908397 0.5
391 3 0.750521 0.860577 0.5
392 3 0.775578 0.908377 0.5
410 3 0.449735 0.956757 0.5
411 3 0.49955 0.957051 0.5
412 3 0.574918 1.00301 0.5
413 3 0.601656 0.956472 0.5
414 3 0.651146 0.95656 0.5
415 3 0.700887 0.956457 0.5
416 3 0.750712 0.956419 0.5
ITEM: TIMESTEP
125
ITEM: NUMBER OF ATOMS
21
ITEM: BOX BOUNDS pp ss pp
0.0000000000000000e+00 2.2653923264628304e+01
2.1917670042342338e-01 2.0269414270721047e+01
-2.8317404080785380e-01 2.8317404080785380e-01
ITEM: ATOMS id type xs ys zs
379 3 0.450176 0.860975 0.5
380 3 0.475013 0.908824 0.5
381 3 0.500302 0.861237 0.5
382 3 0.525301 0.909347 0.5
383 3 0.550341 0.861299 0.5
384 3 0.575499 0.909268 0.5
385 3 0.600383 0.861089 0.5
386 3 0.625877 0.908477 0.5
387 3 0.650555 0.860705 0.5
388 3 0.675769 0.908444 0.5
389 3 0.700554 0.860621 0.5
390 3 0.725668 0.908397 0.5
391 3 0.750519 0.860579 0.5
392 3 0.775576 0.908378 0.5
410 3 0.449732 0.956753 0.5
411 3 0.499546 0.957047 0.5
412 3 0.574946 1.00303 0.5
413 3 0.601651 0.956471 0.5
414 3 0.651142 0.95656 0.5
415 3 0.700883 0.956457 0.5
416 3 0.750709 0.95642 0.5
ITEM: TIMESTEP
130
ITEM: NUMBER OF ATOMS
21
ITEM: BOX BOUNDS pp ss pp
0.0000000000000000e+00 2.2653923264628304e+01
2.1917670042342338e-01 2.0332156993999032e+01
-2.8317404080785380e-01 2.8317404080785380e-01
ITEM: ATOMS id type xs ys zs
379 3 0.450171 0.858283 0.5
380 3 0.475007 0.905981 0.5
381 3 0.500297 0.858543 0.5
382 3 0.525293 0.906502 0.5
383 3 0.550335 0.858604 0.5
384 3 0.57549 0.906418 0.5
385 3 0.600379 0.858397 0.5
386 3 0.625872 0.905635 0.5
387 3 0.650551 0.858018 0.5
388 3 0.675761 0.905613 0.5
389 3 0.700549 0.857938 0.5
390 3 0.725661 0.905566 0.5
391 3 0.750515 0.857896 0.5
392 3 0.775571 0.905547 0.5
410 3 0.449726 0.953762 0.5
411 3 0.499537 0.954052 0.5
412 3 0.57532 1.0001 0.5
413 3 0.601645 0.953458 0.5
414 3 0.651129 0.953578 0.5
415 3 0.700873 0.953476 0.5
416 3 0.750702 0.953438 0.5
ITEM: TIMESTEP
140
ITEM: NUMBER OF ATOMS
21
ITEM: BOX BOUNDS pp ss pp
0.0000000000000000e+00 2.2653923264628304e+01
2.1917670042342338e-01 2.0332156993999032e+01
-2.8317404080785380e-01 2.8317404080785380e-01
ITEM: ATOMS id type xs ys zs
379 3 0.450157 0.858264 0.5
380 3 0.474987 0.905957 0.5
381 3 0.500281 0.858522 0.5
382 3 0.525274 0.906475 0.5
383 3 0.550318 0.858577 0.5
384 3 0.575472 0.90637 0.5
385 3 0.60037 0.858373 0.5
386 3 0.625861 0.905606 0.5
387 3 0.650545 0.858007 0.5
388 3 0.675746 0.905607 0.5
389 3 0.700541 0.857941 0.5
390 3 0.725647 0.905568 0.5
391 3 0.750506 0.857902 0.5
392 3 0.77556 0.905551 0.5
410 3 0.449707 0.953743 0.5
411 3 0.499508 0.954022 0.5
412 3 0.576407 1.00083 0.5
413 3 0.601609 0.953409 0.5
414 3 0.651098 0.953569 0.5
415 3 0.70085 0.953477 0.5
416 3 0.750685 0.953442 0.5
ITEM: TIMESTEP
150
ITEM: NUMBER OF ATOMS
21
ITEM: BOX BOUNDS pp ss pp
0.0000000000000000e+00 2.2653923264628304e+01
2.1917670042342338e-01 2.0332156993999032e+01
-2.8317404080785380e-01 2.8317404080785380e-01
ITEM: ATOMS id type xs ys zs
379 3 0.450149 0.85825 0.5
380 3 0.474977 0.905942 0.5
381 3 0.500273 0.858507 0.5
382 3 0.525264 0.906459 0.5
383 3 0.55031 0.858561 0.5
384 3 0.575462 0.906349 0.5
385 3 0.600364 0.858359 0.5
386 3 0.625848 0.905601 0.5
387 3 0.650539 0.858001 0.5
388 3 0.675735 0.905606 0.5
389 3 0.700535 0.857939 0.5
390 3 0.725638 0.905568 0.5
391 3 0.750501 0.857903 0.5
392 3 0.775553 0.905552 0.5
410 3 0.449696 0.95373 0.5
411 3 0.499492 0.954003 0.5
412 3 0.577035 1.00127 0.5
413 3 0.601579 0.9534 0.5
414 3 0.651075 0.953565 0.5
415 3 0.700835 0.953475 0.5
416 3 0.750675 0.953442 0.5
ITEM: TIMESTEP
160
ITEM: NUMBER OF ATOMS
21
ITEM: BOX BOUNDS pp ss pp
0.0000000000000000e+00 2.2653923264628304e+01
2.1917670042342338e-01 2.0332156993999032e+01
-2.8317404080785380e-01 2.8317404080785380e-01
ITEM: ATOMS id type xs ys zs
379 3 0.450142 0.858238 0.5
380 3 0.474967 0.905928 0.5
381 3 0.500265 0.858495 0.5
382 3 0.525254 0.906445 0.5
383 3 0.550303 0.858547 0.5
384 3 0.575452 0.906333 0.5
385 3 0.600359 0.858349 0.5
386 3 0.625835 0.9056 0.5
387 3 0.650532 0.857997 0.5
388 3 0.675723 0.905607 0.5
389 3 0.700529 0.857938 0.5
390 3 0.72563 0.905569 0.5
391 3 0.750496 0.857903 0.5
392 3 0.775547 0.905554 0.5
410 3 0.449687 0.953718 0.5
411 3 0.499478 0.953987 0.5
412 3 0.577584 1.00165 0.5
413 3 0.601552 0.953395 0.5
414 3 0.651055 0.953565 0.5
415 3 0.700821 0.953473 0.5
416 3 0.750665 0.953442 0.5
ITEM: TIMESTEP
170
ITEM: NUMBER OF ATOMS
21
ITEM: BOX BOUNDS pp ss pp
0.0000000000000000e+00 2.2653923264628304e+01
2.1917670042342338e-01 2.0332156993999032e+01
-2.8317404080785380e-01 2.8317404080785380e-01
ITEM: ATOMS id type xs ys zs
379 3 0.450134 0.858226 0.5
380 3 0.474958 0.905914 0.5
381 3 0.500258 0.858482 0.5
382 3 0.525245 0.906432 0.5
383 3 0.550295 0.858535 0.5
384 3 0.575442 0.906319 0.5
385 3 0.600353 0.858341 0.5
386 3 0.625822 0.905599 0.5
387 3 0.650524 0.857995 0.5
388 3 0.675712 0.905608 0.5
389 3 0.700522 0.857937 0.5
390 3 0.725621 0.90557 0.5
391 3 0.75049 0.857904 0.5
392 3 0.77554 0.905555 0.5
410 3 0.449677 0.953706 0.5
411 3 0.499465 0.953972 0.5
412 3 0.578101 1.002 0.5
413 3 0.601526 0.953392 0.5
414 3 0.651035 0.953565 0.5
415 3 0.700807 0.953472 0.5
416 3 0.750656 0.953442 0.5
ITEM: TIMESTEP
180
ITEM: NUMBER OF ATOMS
21
ITEM: BOX BOUNDS pp ss pp
0.0000000000000000e+00 2.2653923264628304e+01
2.1917670042342338e-01 2.0332156993999032e+01
-2.8317404080785380e-01 2.8317404080785380e-01
ITEM: ATOMS id type xs ys zs
379 3 0.450127 0.858213 0.5
380 3 0.474948 0.9059 0.5
381 3 0.50025 0.858469 0.5
382 3 0.525234 0.906418 0.5
383 3 0.550287 0.858522 0.5
384 3 0.57543 0.906306 0.5
385 3 0.600346 0.858333 0.5
386 3 0.625808 0.905598 0.5
387 3 0.650516 0.857993 0.5
388 3 0.675698 0.90561 0.5
389 3 0.700513 0.857937 0.5
390 3 0.72561 0.905572 0.5
391 3 0.750483 0.857904 0.5
392 3 0.775532 0.905557 0.5
410 3 0.449667 0.953693 0.5
411 3 0.499451 0.953956 0.5
412 3 0.578655 1.00235 0.5
413 3 0.601497 0.953389 0.5
414 3 0.651013 0.953567 0.5
415 3 0.700792 0.953472 0.5
416 3 0.750645 0.953442 0.5
ITEM: TIMESTEP
190
ITEM: NUMBER OF ATOMS
21
ITEM: BOX BOUNDS pp ss pp
0.0000000000000000e+00 2.2653923264628304e+01
2.1917670042342338e-01 2.0332156993999032e+01
-2.8317404080785380e-01 2.8317404080785380e-01
ITEM: ATOMS id type xs ys zs
379 3 0.450121 0.858203 0.5
380 3 0.47494 0.905889 0.5
381 3 0.500244 0.85846 0.5
382 3 0.525226 0.906408 0.5
383 3 0.550281 0.858514 0.5
384 3 0.575422 0.906296 0.5
385 3 0.60034 0.858328 0.5
386 3 0.625797 0.905598 0.5
387 3 0.650509 0.857993 0.5
388 3 0.675688 0.90561 0.5
389 3 0.700507 0.857939 0.5
390 3 0.725602 0.905572 0.5
391 3 0.750477 0.857906 0.5
392 3 0.775526 0.905557 0.5
410 3 0.449659 0.953684 0.5
411 3 0.49944 0.953944 0.5
412 3 0.579058 1.00261 0.5
413 3 0.601476 0.953387 0.5
414 3 0.650997 0.953569 0.5
415 3 0.700781 0.953473 0.5
416 3 0.750636 0.953442 0.5
ITEM: TIMESTEP
200
ITEM: NUMBER OF ATOMS
21
ITEM: BOX BOUNDS pp ss pp
0.0000000000000000e+00 2.2653923264628304e+01
2.1917670042342338e-01 2.0332156993999032e+01
-2.8317404080785380e-01 2.8317404080785380e-01
ITEM: ATOMS id type xs ys zs
379 3 0.450114 0.858191 0.5
380 3 0.474931 0.905877 0.5
381 3 0.500237 0.858448 0.5
382 3 0.525216 0.906396 0.5
383 3 0.550273 0.858504 0.5
384 3 0.575411 0.906284 0.5
385 3 0.600334 0.858322 0.5
386 3 0.625784 0.905597 0.5
387 3 0.650501 0.857993 0.5
388 3 0.675676 0.905612 0.5
389 3 0.700498 0.85794 0.5
390 3 0.725593 0.905573 0.5
391 3 0.75047 0.857907 0.5
392 3 0.775518 0.905558 0.5
410 3 0.44965 0.953672 0.5
411 3 0.499428 0.953931 0.5
412 3 0.579535 1.0029 0.5
413 3 0.601452 0.953385 0.5
414 3 0.650977 0.953572 0.5
415 3 0.700767 0.953473 0.5
416 3 0.750626 0.953443 0.5
ITEM: TIMESTEP
210
ITEM: NUMBER OF ATOMS
21
ITEM: BOX BOUNDS pp ss pp
0.0000000000000000e+00 2.2653923264628304e+01
2.1917670042342338e-01 2.0332156993999032e+01
-2.8317404080785380e-01 2.8317404080785380e-01
ITEM: ATOMS id type xs ys zs
379 3 0.450107 0.858181 0.5
380 3 0.474922 0.905866 0.5
381 3 0.50023 0.858438 0.5
382 3 0.525207 0.906386 0.5
383 3 0.550266 0.858495 0.5
384 3 0.575401 0.906275 0.5
385 3 0.600327 0.858316 0.5
386 3 0.625773 0.905597 0.5
387 3 0.650493 0.857992 0.5
388 3 0.675665 0.905614 0.5
389 3 0.700491 0.857941 0.5
390 3 0.725584 0.905574 0.5
391 3 0.750463 0.857908 0.5
392 3 0.775511 0.905559 0.5
410 3 0.449641 0.953662 0.5
411 3 0.499416 0.953919 0.5
412 3 0.579962 1.00315 0.5
413 3 0.60143 0.953383 0.5
414 3 0.65096 0.953574 0.5
415 3 0.700755 0.953474 0.5
416 3 0.750617 0.953443 0.5
ITEM: TIMESTEP
220
ITEM: NUMBER OF ATOMS
21
ITEM: BOX BOUNDS pp ss pp
0.0000000000000000e+00 2.2653923264628304e+01
2.1917670042342338e-01 2.0332156993999032e+01
-2.8317404080785380e-01 2.8317404080785380e-01
ITEM: ATOMS id type xs ys zs
379 3 0.4501 0.85817 0.5
380 3 0.474913 0.905854 0.5
381 3 0.500222 0.858428 0.5
382 3 0.525197 0.906376 0.5
383 3 0.550259 0.858485 0.5
384 3 0.575391 0.906265 0.5
385 3 0.60032 0.858311 0.5
386 3 0.625761 0.905597 0.5
387 3 0.650485 0.857991 0.5
388 3 0.675653 0.905616 0.5
389 3 0.700482 0.857942 0.5
390 3 0.725574 0.905575 0.5
391 3 0.750456 0.857909 0.5
392 3 0.775503 0.90556 0.5
410 3 0.449632 0.953651 0.5
411 3 0.499405 0.953907 0.5
412 3 0.580401 1.0034 0.5
413 3 0.601408 0.95338 0.5
414 3 0.650942 0.953577 0.5
415 3 0.700742 0.953474 0.5
416 3 0.750607 0.953443 0.5
ITEM: TIMESTEP
230
ITEM: NUMBER OF ATOMS
21
ITEM: BOX BOUNDS pp ss pp
0.0000000000000000e+00 2.2653923264628304e+01
2.1917670042342338e-01 2.0332156993999032e+01
-2.8317404080785380e-01 2.8317404080785380e-01
ITEM: ATOMS id type xs ys zs
379 3 0.450095 0.858162 0.5
380 3 0.474907 0.905847 0.5
381 3 0.500217 0.858421 0.5
382 3 0.52519 0.906368 0.5
383 3 0.550253 0.858479 0.5
384 3 0.575383 0.906257 0.5
385 3 0.600315 0.858307 0.5
386 3 0.625752 0.905596 0.5
387 3 0.650479 0.857991 0.5
388 3 0.675645 0.905617 0.5
389 3 0.700476 0.857943 0.5
390 3 0.725567 0.905576 0.5
391 3 0.750451 0.857911 0.5
392 3 0.775497 0.90556 0.5
410 3 0.449626 0.953644 0.5
411 3 0.499396 0.953899 0.5
412 3 0.580704 1.00357 0.5
413 3 0.601393 0.953378 0.5
414 3 0.650929 0.953578 0.5
415 3 0.700733 0.953475 0.5
416 3 0.7506 0.953444 0.5
ITEM: TIMESTEP
240
ITEM: NUMBER OF ATOMS
21
ITEM: BOX BOUNDS pp ss pp
0.0000000000000000e+00 2.2653923264628304e+01
2.1917670042342338e-01 2.0406283980994505e+01
-2.8317404080785380e-01 2.8317404080785380e-01
ITEM: ATOMS id type xs ys zs
379 3 0.45009 0.855004 0.5
380 3 0.474901 0.902513 0.5
381 3 0.500212 0.855262 0.5
382 3 0.525184 0.903033 0.5
383 3 0.550248 0.85532 0.5
384 3 0.575376 0.902923 0.5
385 3 0.60031 0.855152 0.5
386 3 0.625744 0.902271 0.5
387 3 0.650473 0.85484 0.5
388 3 0.675637 0.902293 0.5
389 3 0.700471 0.854793 0.5
390 3 0.72556 0.902252 0.5
391 3 0.750445 0.85476 0.5
392 3 0.775491 0.902236 0.5
410 3 0.449619 0.950135 0.5
411 3 0.499389 0.950388 0.5
412 3 0.580994 1.00004 0.5
413 3 0.601378 0.949874 0.5
414 3 0.650917 0.950078 0.5
415 3 0.700724 0.949974 0.5
416 3 0.750593 0.949943 0.5
ITEM: TIMESTEP
250
ITEM: NUMBER OF ATOMS
21
ITEM: BOX BOUNDS pp ss pp
0.0000000000000000e+00 2.2653923264628304e+01
2.1917670042342338e-01 2.0406283980994505e+01
-2.8317404080785380e-01 2.8317404080785380e-01
ITEM: ATOMS id type xs ys zs
379 3 0.450086 0.854997 0.5
380 3 0.474895 0.902506 0.5
381 3 0.500207 0.855256 0.5
382 3 0.525178 0.903027 0.5
383 3 0.550243 0.855315 0.5
384 3 0.57537 0.902917 0.5
385 3 0.600306 0.855148 0.5
386 3 0.625737 0.90227 0.5
387 3 0.650468 0.854839 0.5
388 3 0.67563 0.902293 0.5
389 3 0.700465 0.854794 0.5
390 3 0.725554 0.902252 0.5
391 3 0.750441 0.854761 0.5
392 3 0.775486 0.902236 0.5
410 3 0.449614 0.950129 0.5
411 3 0.499382 0.950381 0.5
412 3 0.581252 1.00018 0.5
413 3 0.601365 0.949872 0.5
414 3 0.650906 0.95008 0.5
415 3 0.700715 0.949975 0.5
416 3 0.750586 0.949943 0.5
ITEM: TIMESTEP
260
ITEM: NUMBER OF ATOMS
21
ITEM: BOX BOUNDS pp ss pp
0.0000000000000000e+00 2.2653923264628304e+01
2.1917670042342338e-01 2.0406283980994505e+01
-2.8317404080785380e-01 2.8317404080785380e-01
ITEM: ATOMS id type xs ys zs
379 3 0.450079 0.854988 0.5
380 3 0.474888 0.902497 0.5
381 3 0.5002 0.855247 0.5
382 3 0.52517 0.903018 0.5
383 3 0.550236 0.855307 0.5
384 3 0.575361 0.902909 0.5
385 3 0.600299 0.855143 0.5
386 3 0.625727 0.902269 0.5
387 3 0.650461 0.854838 0.5
388 3 0.67562 0.902295 0.5
389 3 0.700458 0.854794 0.5
390 3 0.725545 0.902253 0.5
391 3 0.750434 0.854761 0.5
392 3 0.775479 0.902237 0.5
410 3 0.449606 0.95012 0.5
411 3 0.499372 0.950372 0.5
412 3 0.581598 1.00036 0.5
413 3 0.601348 0.949869 0.5
414 3 0.650891 0.950082 0.5
415 3 0.700704 0.949975 0.5
416 3 0.750578 0.949943 0.5
ITEM: TIMESTEP
270
ITEM: NUMBER OF ATOMS
21
ITEM: BOX BOUNDS pp ss pp
0.0000000000000000e+00 2.2653923264628304e+01
2.1917670042342338e-01 2.0406283980994505e+01
-2.8317404080785380e-01 2.8317404080785380e-01
ITEM: ATOMS id type xs ys zs
379 3 0.450075 0.854983 0.5
380 3 0.474883 0.902491 0.5
381 3 0.500196 0.855242 0.5
382 3 0.525164 0.903013 0.5
383 3 0.550231 0.855303 0.5
384 3 0.575355 0.902903 0.5
385 3 0.600295 0.855141 0.5
386 3 0.62572 0.902268 0.5
387 3 0.650456 0.854838 0.5
388 3 0.675613 0.902295 0.5
389 3 0.700453 0.854795 0.5
390 3 0.72554 0.902253 0.5
391 3 0.750429 0.854763 0.5
392 3 0.775474 0.902237 0.5
410 3 0.449601 0.950115 0.5
411 3 0.499366 0.950366 0.5
412 3 0.581815 1.00047 0.5
413 3 0.601337 0.949866 0.5
414 3 0.650882 0.950083 0.5
415 3 0.700697 0.949975 0.5
416 3 0.750572 0.949943 0.5
ITEM: TIMESTEP
280
ITEM: NUMBER OF ATOMS
21
ITEM: BOX BOUNDS pp ss pp
0.0000000000000000e+00 2.2653923264628304e+01
2.1917670042342338e-01 2.0406283980994505e+01
-2.8317404080785380e-01 2.8317404080785380e-01
ITEM: ATOMS id type xs ys zs
379 3 0.450071 0.854977 0.5
380 3 0.474878 0.902486 0.5
381 3 0.500192 0.855237 0.5
382 3 0.525159 0.903008 0.5
383 3 0.550227 0.855298 0.5
384 3 0.575349 0.902898 0.5
385 3 0.600291 0.855137 0.5
386 3 0.625714 0.902267 0.5
387 3 0.650451 0.854837 0.5
388 3 0.675607 0.902296 0.5
389 3 0.700448 0.854795 0.5
390 3 0.725534 0.902254 0.5
391 3 0.750424 0.854762 0.5
392 3 0.775469 0.902238 0.5
410 3 0.449596 0.950109 0.5
411 3 0.49936 0.95036 0.5
412 3 0.582035 1.00058 0.5
413 3 0.601326 0.949864 0.5
414 3 0.650872 0.950084 0.5
415 3 0.70069 0.949975 0.5
416 3 0.750566 0.949943 0.5
ITEM: TIMESTEP
282
ITEM: NUMBER OF ATOMS
21
ITEM: BOX BOUNDS pp ss pp
0.0000000000000000e+00 2.2653923264628304e+01
2.1917670042342338e-01 2.0406283980994505e+01
-2.8317404080785380e-01 2.8317404080785380e-01
ITEM: ATOMS id type xs ys zs
379 3 0.450071 0.854977 0.5
380 3 0.474877 0.902485 0.5
381 3 0.500191 0.855236 0.5
382 3 0.525158 0.903007 0.5
383 3 0.550226 0.855297 0.5
384 3 0.575348 0.902897 0.5
385 3 0.60029 0.855137 0.5
386 3 0.625713 0.902267 0.5
387 3 0.65045 0.854837 0.5
388 3 0.675606 0.902296 0.5
389 3 0.700447 0.854795 0.5
390 3 0.725533 0.902254 0.5
391 3 0.750424 0.854763 0.5
392 3 0.775468 0.902237 0.5
410 3 0.449595 0.950108 0.5
411 3 0.499359 0.950359 0.5
412 3 0.582062 1.0006 0.5
413 3 0.601324 0.949863 0.5
414 3 0.650871 0.950084 0.5
415 3 0.700689 0.949975 0.5
416 3 0.750565 0.949943 0.5
