ITEM: TIMESTEP
0
ITEM: NUMBER OF ATOMS
21
ITEM: BOX BOUNDS pp ss pp
0.0000000000000000e+00 2.2653923264628304e+01
2.1917670042342338e-01 1.9932861341420704e+01
-2.8317404080785380e-01 2.8317404080785380e-01
ITEM: ATOMS id type xs ys zs
379 3 0.45041 0.876063 0.5
380 3 0.475477 0.92492 0.5
381 3 0.50046 0.87632 0.5
382 3 0.525593 0.92539 0.5
383 3 0.550425 0.876451 0.5
384 3 0.575456 0.925681 0.5
385 3 0.600264 0.876215 0.5
386 3 0.625738 0.924394 0.5
387 3 0.650397 0.875617 0.5
388 3 0.675692 0.924036 0.5
389 3 0.700432 0.875365 0.5
390 3 0.725591 0.923902 0.5
391 3 0.750412 0.875266 0.5
392 3 0.77549 0.923865 0.5
410 3 0.450346 0.973495 0.5
411 3 0.500774 0.974227 0.5
412 3 0.557861 0.9999 0.5
413 3 0.601707 0.973636 0.5
414 3 0.651218 0.973038 0.5
415 3 0.700887 0.97281 0.5
416 3 0.75066 0.972731 0.5
ITEM: TIMESTEP
10
ITEM: NUMBER OF ATOMS
21
ITEM: BOX BOUNDS pp ss pp
0.0000000000000000e+00 2.2653923264628304e+01
2.1917670042342338e-01 1.9932861341420704e+01
-2.8317404080785380e-01 2.8317404080785380e-01
ITEM: ATOMS id type xs ys zs
379 3 0.450462 0.876132 0.5
380 3 0.475565 0.925027 0.5
381 3 0.500501 0.876387 0.5
382 3 0.525659 0.925473 0.5
383 3 0.550449 0.876507 0.5
384 3 0.575489 0.92576 0.5
385 3 0.600268 0.876246 0.5
386 3 0.625829 0.924341 0.5
387 3 0.650433 0.875597 0.5
388 3 0.675736 0.924048 0.5
389 3 0.700448 0.875377 0.5
390 3 0.725611 0.92392 0.5
391 3 0.750419 0.875278 0.5
392 3 0.7755 0.923875 0.5
410 3 0.450447 0.973572 0.5
411 3 0.500953 0.974358 0.5
412 3 0.558232 0.999268 0.5
413 3 0.601975 0.973496 0.5
414 3 0.651332 0.973056 0.5
415 3 0.700939 0.972839 0.5
416 3 0.750683 0.972747 0.5
ITEM: TIMESTEP
20
ITEM: NUMBER OF ATOMS
21
ITEM: BOX BOUNDS pp ss pp
0.0000000000000000e+00 2.2653923264628304e+01
2.1917670042342338e-01 1.9932861341420704e+01
-2.8317404080785380e-01 2.8317404080785380e-01
ITEM: ATOMS id type xs ys zs
379 3 0.450522 0.876206 0.5
380 3 0.47565 0.925112 0.5
381 3 0.500568 0.876467 0.5
382 3 0.525778 0.925552 0.5
383 3 0.550526 0.876567 0.5
384 3 0.575637 0.925817 0.5
385 3 0.600352 0.876259 0.5
386 3 0.625982 0.924309 0.5
387 3 0.650521 0.875577 0.5
388 3 0.675876 0.924005 0.5
389 3 0.700533 0.875346 0.5
390 3 0.725715 0.923908 0.5
391 3 0.750478 0.875266 0.5
392 3 0.775564 0.923878 0.5
410 3 0.450516 0.973657 0.5
411 3 0.501043 0.974429 0.5
412 3 0.558465 0.999039 0.5
413 3 0.60224 0.973508 0.5
414 3 0.651541 0.973009 0.5
415 3 0.701087 0.97283 0.5
416 3 0.750783 0.972764 0.5
ITEM: TIMESTEP
30
ITEM: NUMBER OF ATOMS
21
ITEM: BOX BOUNDS pp ss pp
0.0000000000000000e+00 2.2653923264628304e+01
2.1917670042342338e-01 1.9932861341420704e+01
-2.8317404080785380e-01 2.8317404080785380e-01
ITEM: ATOMS id type xs ys zs
379 3 0.450572 0.876251 0.5
380 3 0.475704 0.925146 0.5
381 3 0.500632 0.876514 0.5
382 3 0.525846 0.925598 0.5
383 3 0.550599 0.876621 0.5
384 3 0.575713 0.925884 0.5
385 3 0.600422 0.876307 0.5
386 3 0.626045 0.924362 0.5
387 3 0.650577 0.875607 0.5
388 3 0.675943 0.924017 0.5
389 3 0.700595 0.875343 0.5
390 3 0.725788 0.923898 0.5
391 3 0.75054 0.875253 0.5
392 3 0.775632 0.92387 0.5
410 3 0.450561 0.973691 0.5
411 3 0.501084 0.974457 0.5
412 3 0.558505 0.999115 0.5
413 3 0.602305 0.973601 0.5
414 3 0.651623 0.973039 0.5
415 3 0.701168 0.972822 0.5
416 3 0.750859 0.972753 0.5
ITEM: TIMESTEP
40
ITEM: NUMBER OF ATOMS
21
ITEM: BOX BOUNDS pp ss pp
0.0000000000000000e+00 2.2653923264628304e+01
2.1917670042342338e-01 1.9932861341420704e+01
-2.8317404080785380e-01 2.8317404080785380e-01
ITEM: ATOMS id type xs ys zs
379 3 0.450596 0.876271 0.5
380 3 0.475724 0.925161 0.5
381 3 0.500658 0.876534 0.5
382 3 0.525863 0.925617 0.5
383 3 0.550626 0.876647 0.5
384 3 0.57573 0.925919 0.5
385 3 0.600444 0.876339 0.5
386 3 0.626054 0.924414 0.5
387 3 0.650598 0.875636 0.5
388 3 0.675961 0.924044 0.5
389 3 0.700613 0.875367 0.5
390 3 0.725809 0.923908 0.5
391 3 0.750565 0.875261 0.5
392 3 0.775661 0.92387 0.5
410 3 0.450581 0.973707 0.5
411 3 0.501099 0.974472 0.5
412 3 0.558508 0.9992 0.5
413 3 0.602307 0.973649 0.5
414 3 0.651632 0.973076 0.5
415 3 0.70119 0.972839 0.5
416 3 0.750887 0.972756 0.5
ITEM: TIMESTEP
50
ITEM: NUMBER OF ATOMS
21
ITEM: BOX BOUNDS pp ss pp
0.0000000000000000e+00 2.2653923264628304e+01
2.1917670042342338e-01 1.9932861341420704e+01
-2.8317404080785380e-01 2.8317404080785380e-01
ITEM: ATOMS id type xs ys zs
379 3 0.450608 0.876282 0.5
380 3 0.475732 0.92517 0.5
381 3 0.500669 0.876545 0.5
382 3 0.525869 0.925627 0.5
383 3 0.550638 0.876663 0.5
384 3 0.575734 0.925937 0.5
385 3 0.600455 0.876361 0.5
386 3 0.626057 0.924437 0.5
387 3 0.650605 0.875661 0.5
388 3 0.675965 0.924067 0.5
389 3 0.700623 0.875382 0.5
390 3 0.725818 0.923922 0.5
391 3 0.750577 0.875271 0.5
392 3 0.775675 0.923876 0.5
410 3 0.450591 0.973717 0.5
411 3 0.501104 0.974481 0.5
412 3 0.558512 0.999259 0.5
413 3 0.6023 0.973677 0.5
414 3 0.651633 0.9731 0.5
415 3 0.701198 0.972855 0.5
416 3 0.750901 0.972763 0.5
ITEM: TIMESTEP
60
ITEM: NUMBER OF ATOMS
21
ITEM: BOX BOUNDS pp ss pp
0.0000000000000000e+00 2.2653923264628304e+01
2.1917670042342338e-01 1.9932861341420704e+01
-2.8317404080785380e-01 2.8317404080785380e-01
ITEM: ATOMS id type xs ys zs
379 3 0.450617 0.876291 0.5
380 3 0.475738 0.925177 0.5
381 3 0.500677 0.876554 0.5
382 3 0.525871 0.925636 0.5
383 3 0.550645 0.876675 0.5
384 3 0.575735 0.925951 0.5
385 3 0.600462 0.876377 0.5
386 3 0.626058 0.924458 0.5
387 3 0.650611 0.87568 0.5
388 3 0.675968 0.924086 0.5
389 3 0.70063 0.875399 0.5
390 3 0.725825 0.923936 0.5
391 3 0.750586 0.875283 0.5
392 3 0.775685 0.923884 0.5
410 3 0.450598 0.973726 0.5
411 3 0.501106 0.974489 0.5
412 3 0.558518 0.999309 0.5
413 3 0.602295 0.973696 0.5
414 3 0.651632 0.97312 0.5
415 3 0.701202 0.972871 0.5
416 3 0.75091 0.972772 0.5
ITEM: TIMESTEP
70
ITEM: NUMBER OF ATOMS
21
ITEM: BOX BOUNDS pp ss pp
0.0000000000000000e+00 2.2653923264628304e+01
2.1917670042342338e-01 1.9932861341420704e+01
-2.8317404080785380e-01 2.8317404080785380e-01
ITEM: ATOMS id type xs ys zs
379 3 0.450626 0.876301 0.5
380 3 0.475742 0.925185 0.5
381 3 0.500684 0.876563 0.5
382 3 0.525873 0.925644 0.5
383 3 0.550652 0.876687 0.5
384 3 0.575736 0.925964 0.5
385 3 0.600468 0.876394 0.5
386 3 0.626058 0.924478 0.5
387 3 0.650618 0.875699 0.5
388 3 0.675971 0.924106 0.5
389 3 0.700637 0.875419 0.5
390 3 0.725831 0.923953 0.5
391 3 0.750596 0.875298 0.5
392 3 0.775696 0.923895 0.5
410 3 0.450605 0.973737 0.5
411 3 0.501107 0.974497 0.5
412 3 0.558528 0.999364 0.5
413 3 0.602289 0.973714 0.5
414 3 0.65163 0.97314 0.5
415 3 0.701205 0.972889 0.5
416 3 0.75092 0.972785 0.5
ITEM: TIMESTEP
80
ITEM: NUMBER OF ATOMS
21
ITEM: BOX BOUNDS pp ss pp
0.0000000000000000e+00 2.2653923264628304e+01
2.1917670042342338e-01 1.9932861341420704e+01
-2.8317404080785380e-01 2.8317404080785380e-01
ITEM: ATOMS id type xs ys zs
379 3 0.450632 0.876307 0.5
380 3 0.475745 0.92519 0.5
381 3 0.500689 0.876569 0.5
382 3 0.525873 0.925649 0.5
383 3 0.550656 0.876695 0.5
384 3 0.575736 0.925971 0.5
385 3 0.600473 0.876404 0.5
386 3 0.626059 0.924488 0.5
387 3 0.650622 0.875712 0.5
388 3 0.675972 0.924118 0.5
389 3 0.700642 0.875431 0.5
390 3 0.725835 0.923964 0.5
391 3 0.750603 0.875309 0.5
392 3 0.775704 0.923904 0.5
410 3 0.45061 0.973743 0.5
411 3 0.501107 0.974501 0.5
412 3 0.558537 0.999398 0.5
413 3 0.602287 0.973723 0.5
414 3 0.651629 0.973151 0.5
415 3 0.701207 0.9729 0.5
416 3 0.750926 0.972794 0.5
ITEM: TIMESTEP
90
ITEM: NUMBER OF ATOMS
21
ITEM: BOX BOUNDS pp ss pp
0.0000000000000000e+00 2.2653923264628304e+01
2.1917670042342338e-01 1.9932861341420704e+01
-2.8317404080785380e-01 2.8317404080785380e-01
ITEM: ATOMS id type xs ys zs
379 3 0.450638 0.876313 0.5
380 3 0.475748 0.925194 0.5
381 3 0.500693 0.876574 0.5
382 3 0.525875 0.925654 0.5
383 3 0.55066 0.876701 0.5
384 3 0.575737 0.925977 0.5
385 3 0.600476 0.876412 0.5
386 3 0.62606 0.924498 0.5
387 3 0.650627 0.875721 0.5
388 3 0.675975 0.924128 0.5
389 3 0.700648 0.875442 0.5
390 3 0.72584 0.923974 0.5
391 3 0.75061 0.87532 0.5
392 3 0.775711 0.923912 0.5
410 3 0.450614 0.973749 0.5
411 3 0.501108 0.974505 0.5
412 3 0.558547 0.999428 0.5
413 3 0.602286 0.973729 0.5
414 3 0.651629 0.97316 0.5
415 3 0.701209 0.972909 0.5
416 3 0.750931 0.972803 0.5
ITEM: TIMESTEP
100
ITEM: NUMBER OF ATOMS
21
ITEM: BOX BOUNDS pp ss pp
0.0000000000000000e+00 2.2653923264628304e+01
2.1917670042342338e-01 1.9932861341420704e+01
-2.8317404080785380e-01 2.8317404080785380e-01
ITEM: ATOMS id type xs ys zs
379 3 0.450642 0.876316 0.5
380 3 0.47575 0.925197 0.5
381 3 0.500696 0.876577 0.5
382 3 0.525876 0.925656 0.5
383 3 0.550663 0.876704 0.5
384 3 0.575738 0.92598 0.5
385 3 0.600479 0.876417 0.5
386 3 0.626061 0.924502 0.5
387 3 0.65063 0.875728 0.5
388 3 0.675976 0.924134 0.5
389 3 0.700652 0.875449 0.5
390 3 0.725843 0.923981 0.5
391 3 0.750616 0.875326 0.5
392 3 0.775716 0.923919 0.5
410 3 0.450617 0.973753 0.5
411 3 0.501109 0.974507 0.5
412 3 0.558555 0.999447 0.5
413 3 0.602285 0.973733 0.5
414 3 0.651629 0.973166 0.5
415 3 0.701211 0.972915 0.5
416 3 0.750935 0.972808 0.5
ITEM: TIMESTEP
110
ITEM: NUMBER OF ATOMS
21
ITEM: BOX BOUNDS pp ss pp
0.0000000000000000e+00 2.2653923264628304e+01
2.1917670042342338e-01 1.9932861341420704e+01
-2.8317404080785380e-01 2.8317404080785380e-01
ITEM: ATOMS id type xs ys zs
379 3 0.450646 0.87632 0.5
380 3 0.475753 0.925199 0.5
381 3 0.5007 0.87658 0.5
382 3 0.525877 0.925658 0.5
383 3 0.550666 0.876708 0.5
384 3 0.575739 0.925983 0.5
385 3 0.600483 0.876422 0.5
386 3 0.626063 0.924506 0.5
387 3 0.650633 0.875734 0.5
388 3 0.675978 0.92414 0.5
389 3 0.700656 0.875455 0.5
390 3 0.725846 0.923987 0.5
391 3 0.750621 0.875333 0.5
392 3 0.775721 0.923925 0.5
410 3 0.450621 0.973756 0.5
411 3 0.50111 0.974509 0.5
412 3 0.558563 0.999466 0.5
413 3 0.602285 0.973736 0.5
414 3 0.651629 0.973171 0.5
415 3 0.701212 0.972921 0.5
416 3 0.750939 0.972814 0.5
ITEM: TIMESTEP
120
ITEM: NUMBER OF ATOMS
21
ITEM: BOX BOUNDS pp ss pp
0.0000000000000000e+00 2.2653923264628304e+01
2.1917670042342338e-01 1.9932861341420704e+01
-2.8317404080785380e-01 2.8317404080785380e-01
ITEM: ATOMS id type xs ys zs
379 3 0.45065 0.876322 0.5
380 3 0.475756 0.925201 0.5
381 3 0.500703 0.876582 0.5
382 3 0.525879 0.925659 0.5
383 3 0.550669 0.87671 0.5
384 3 0.57574 0.925985 0.5
385 3 0.600485 0.876425 0.5
386 3 0.626064 0.92451 0.5
387 3 0.650636 0.875738 0.5
388 3 0.67598 0.924144 0.5
389 3 0.70066 0.87546 0.5
390 3 0.725849 0.923992 0.5
391 3 0.750626 0.875338 0.5
392 3 0.775726 0.92393 0.5
410 3 0.450625 0.973759 0.5
411 3 0.501112 0.974511 0.5
412 3 0.55857 0.999479 0.5
413 3 0.602286 0.973738 0.5
414 3 0.65163 0.973174 0.5
415 3 0.701214 0.972925 0.5
416 3 0.750942 0.972818 0.5
ITEM: TIMESTEP
125
ITEM: NUMBER OF ATOMS
21
ITEM: BOX BOUNDS pp ss pp
0.0000000000000000e+00 2.2653923264628304e+01
2.1917670042342338e-01 1.9932861341420704e+01
-2.8317404080785380e-01 2.8317404080785380e-01
ITEM: ATOMS id type xs ys zs
379 3 0.450651 0.876323 0.5
380 3 0.475757 0.925202 0.5
381 3 0.500704 0.876582 0.5
382 3 0.52588 0.92566 0.5
383 3 0.55067 0.876711 0.5
384 3 0.575741 0.925985 0.5
385 3 0.600487 0.876426 0.5
386 3 0.626065 0.924511 0.5
387 3 0.650638 0.87574 0.5
388 3 0.675981 0.924146 0.5
389 3 0.700662 0.875462 0.5
390 3 0.72585 0.923994 0.5
391 3 0.750628 0.875341 0.5
392 3 0.775728 0.923932 0.5
410 3 0.450627 0.97376 0.5
411 3 0.501112 0.974511 0.5
412 3 0.558573 0.999485 0.5
413 3 0.602286 0.973739 0.5
414 3 0.65163 0.973176 0.5
415 3 0.701215 0.972927 0.5
416 3 0.750943 0.97282 0.5
ITEM: TIMESTEP
130
ITEM: NUMBER OF ATOMS
21
ITEM: BOX BOUNDS pp ss pp
0.0000000000000000e+00 2.2653923264628304e+01
2.1917670042342338e-01 1.9924689566319127e+01
-2.8317404080785380e-01 2.8317404080785380e-01
ITEM: ATOMS id type xs ys zs
379 3 0.450653 0.876688 0.5
380 3 0.475758 0.925586 0.5
381 3 0.500706 0.876947 0.5
382 3 0.525881 0.926045 0.5
383 3 0.550671 0.877075 0.5
384 3 0.575741 0.92637 0.5
385 3 0.600488 0.876791 0.5
386 3 0.626066 0.924896 0.5
387 3 0.650639 0.876105 0.5
388 3 0.675982 0.924531 0.5
389 3 0.700663 0.875828 0.5
390 3 0.725852 0.924379 0.5
391 3 0.75063 0.875706 0.5
392 3 0.77573 0.924317 0.5
410 3 0.450629 0.974165 0.5
411 3 0.501114 0.974916 0.5
412 3 0.558581 0.9999 0.5
413 3 0.602288 0.974142 0.5
414 3 0.651631 0.973581 0.5
415 3 0.701215 0.973332 0.5
416 3 0.750944 0.973225 0.5
ITEM: TIMESTEP
140
ITEM: NUMBER OF ATOMS
21
ITEM: BOX BOUNDS pp ss pp
0.0000000000000000e+00 2.2653923264628304e+01
2.1917670042342338e-01 1.9924689566319127e+01
-2.8317404080785380e-01 2.8317404080785380e-01
ITEM: ATOMS id type xs ys zs
379 3 0.450661 0.876693 0.5
380 3 0.475766 0.925592 0.5
381 3 0.500712 0.876951 0.5
382 3 0.525887 0.926049 0.5
383 3 0.550677 0.877079 0.5
384 3 0.575747 0.926376 0.5
385 3 0.600493 0.876793 0.5
386 3 0.626075 0.924893 0.5
387 3 0.650646 0.876105 0.5
388 3 0.675989 0.924535 0.5
389 3 0.70067 0.875832 0.5
390 3 0.725857 0.924385 0.5
391 3 0.750637 0.875713 0.5
392 3 0.775736 0.924324 0.5
410 3 0.450638 0.974171 0.5
411 3 0.501123 0.974921 0.5
412 3 0.558628 0.999877 0.5
413 3 0.602313 0.974132 0.5
414 3 0.651642 0.973583 0.5
415 3 0.701222 0.973337 0.5
416 3 0.75095 0.973232 0.5
ITEM: TIMESTEP
150
ITEM: NUMBER OF ATOMS
21
ITEM: BOX BOUNDS pp ss pp
0.0000000000000000e+00 2.2653923264628304e+01
2.1917670042342338e-01 1.9924689566319127e+01
-2.8317404080785380e-01 2.8317404080785380e-01
ITEM: ATOMS id type xs ys zs
379 3 0.450667 0.876697 0.5
380 3 0.475772 0.925595 0.5
381 3 0.500717 0.876955 0.5
382 3 0.525893 0.926052 0.5
383 3 0.550682 0.877083 0.5
384 3 0.575753 0.926381 0.5
385 3 0.600497 0.876796 0.5
386 3 0.626084 0.924891 0.5
387 3 0.650652 0.876106 0.5
388 3 0.675996 0.924535 0.5
389 3 0.700676 0.875834 0.5
390 3 0.725863 0.924387 0.5
391 3 0.750643 0.875716 0.5
392 3 0.775742 0.924328 0.5
410 3 0.450645 0.974175 0.5
411 3 0.501129 0.974924 0.5
412 3 0.558658 0.999862 0.5
413 3 0.602332 0.974129 0.5
414 3 0.651654 0.973583 0.5
415 3 0.701229 0.973339 0.5
416 3 0.750955 0.973235 0.5
ITEM: TIMESTEP
160
ITEM: NUMBER OF ATOMS
21
ITEM: BOX BOUNDS pp ss pp
0.0000000000000000e+00 2.2653923264628304e+01
2.1917670042342338e-01 1.9924689566319127e+01
-2.8317404080785380e-01 2.8317404080785380e-01
ITEM: ATOMS id type xs ys zs
379 3 0.450672 0.8767 0.5
380 3 0.475778 0.925599 0.5
381 3 0.500723 0.876958 0.5
382 3 0.525899 0.926055 0.5
383 3 0.550688 0.877087 0.5
384 3 0.57576 0.926386 0.5
385 3 0.600502 0.876799 0.5
386 3 0.626092 0.924889 0.5
387 3 0.650658 0.876107 0.5
388 3 0.676002 0.924535 0.5
389 3 0.700681 0.875836 0.5
390 3 0.725869 0.924389 0.5
391 3 0.750648 0.875718 0.5
392 3 0.775747 0.92433 0.5
410 3 0.450651 0.974179 0.5
411 3 0.501136 0.974927 0.5
412 3 0.558685 0.999848 0.5
413 3 0.60235 0.974127 0.5
414 3 0.651665 0.973584 0.5
415 3 0.701236 0.973341 0.5
416 3 0.750961 0.973237 0.5
ITEM: TIMESTEP
170
ITEM: NUMBER OF ATOMS
21
ITEM: BOX BOUNDS pp ss pp
0.0000000000000000e+00 2.2653923264628304e+01
2.1917670042342338e-01 1.9924689566319127e+01
-2.8317404080785380e-01 2.8317404080785380e-01
ITEM: ATOMS id type xs ys zs
379 3 0.450678 0.876704 0.5
380 3 0.475784 0.925602 0.5
381 3 0.500729 0.876961 0.5
382 3 0.525905 0.926059 0.5
383 3 0.550694 0.877091 0.5
384 3 0.575766 0.926392 0.5
385 3 0.600507 0.876802 0.5
386 3 0.626101 0.924889 0.5
387 3 0.650664 0.876108 0.5
388 3 0.676009 0.924536 0.5
389 3 0.700687 0.875837 0.5
390 3 0.725875 0.92439 0.5
391 3 0.750654 0.875721 0.5
392 3 0.775753 0.924333 0.5
410 3 0.450658 0.974182 0.5
411 3 0.501143 0.97493 0.5
412 3 0.55871 0.999835 0.5
413 3 0.602368 0.974125 0.5
414 3 0.651676 0.973585 0.5
415 3 0.701244 0.973342 0.5
416 3 0.750967 0.973239 0.5
ITEM: TIMESTEP
180
ITEM: NUMBER OF ATOMS
21
ITEM: BOX BOUNDS pp ss pp
0.0000000000000000e+00 2.2653923264628304e+01
2.1917670042342338e-01 1.9924689566319127e+01
-2.8317404080785380e-01 2.8317404080785380e-01
ITEM: ATOMS id type xs ys zs
379 3 0.450686 0.876707 0.5
380 3 0.475792 0.925606 0.5
381 3 0.500736 0.876965 0.5
382 3 0.525913 0.926062 0.5
383 3 0.550701 0.877095 0.5
384 3 0.575774 0.926399 0.5
385 3 0.600513 0.876806 0.5
386 3 0.62611 0.924889 0.5
387 3 0.650671 0.876109 0.5
388 3 0.676017 0.924537 0.5
389 3 0.700694 0.875839 0.5
390 3 0.725881 0.924392 0.5
391 3 0.750661 0.875723 0.5
392 3 0.77576 0.924335 0.5
410 3 0.450666 0.974186 0.5
411 3 0.50115 0.974934 0.5
412 3 0.558738 0.99982 0.5
413 3 0.602387 0.974124 0.5
414 3 0.651688 0.973586 0.5
415 3 0.701252 0.973344 0.5
416 3 0.750974 0.973241 0.5
ITEM: TIMESTEP
190
ITEM: NUMBER OF ATOMS
21
ITEM: BOX BOUNDS pp ss pp
0.0000000000000000e+00 2.2653923264628304e+01
2.1917670042342338e-01 1.9924689566319127e+01
-2.8317404080785380e-01 2.8317404080785380e-01
ITEM: ATOMS id type xs ys zs
379 3 0.450692 0.87671 0.5
380 3 0.475797 0.92561 0.5
381 3 0.500741 0.876968 0.5
382 3 0.525918 0.926066 0.5
383 3 0.550706 0.877099 0.5
384 3 0.57578 0.926405 0.5
385 3 0.600518 0.876809 0.5
386 3 0.626117 0.924889 0.5
387 3 0.650676 0.87611 0.5
388 3 0.676023 0.924538 0.5
389 3 0.700699 0.87584 0.5
390 3 0.725887 0.924394 0.5
391 3 0.750666 0.875725 0.5
392 3 0.775765 0.924337 0.5
410 3 0.450659 0.974186 0.5
411 3 0.501154 0.974937 0.5
412 3 0.558765 0.999801 0.5
413 3 0.602405 0.974123 0.5
414 3 0.651698 0.973588 0.5
415 3 0.701259 0.973345 0.5
416 3 0.75098 0.973243 0.5
ITEM: TIMESTEP
200
ITEM: NUMBER OF ATOMS
21
ITEM: BOX BOUNDS pp ss pp
0.0000000000000000e+00 2.2653923264628304e+01
2.1917670042342338e-01 1.9924689566319127e+01
-2.8317404080785380e-01 2.8317404080785380e-01
ITEM: ATOMS id type xs ys zs
379 3 0.450697 0.876713 0.5
380 3 0.475798 0.925614 0.5
381 3 0.500748 0.876975 0.5
382 3 0.525923 0.926075 0.5
383 3 0.550712 0.877107 0.5
384 3 0.575788 0.926415 0.5
385 3 0.600524 0.876814 0.5
386 3 0.62613 0.924887 0.5
387 3 0.650684 0.87611 0.5
388 3 0.676033 0.924538 0.5
389 3 0.700707 0.875841 0.5
390 3 0.725895 0.924395 0.5
391 3 0.750674 0.875727 0.5
392 3 0.775772 0.924339 0.5
410 3 0.450653 0.974187 0.5
411 3 0.501147 0.97494 0.5
412 3 0.558802 0.999773 0.5
413 3 0.602434 0.97412 0.5
414 3 0.651716 0.973589 0.5
415 3 0.701271 0.973347 0.5
416 3 0.750989 0.973245 0.5
ITEM: TIMESTEP
210
ITEM: NUMBER OF ATOMS
21
ITEM: BOX BOUNDS pp ss pp
0.0000000000000000e+00 2.2653923264628304e+01
2.1917670042342338e-01 1.9924689566319127e+01
-2.8317404080785380e-01 2.8317404080785380e-01
ITEM: ATOMS id type xs ys zs
379 3 0.450702 0.876716 0.5
380 3 0.475802 0.925617 0.5
381 3 0.500753 0.876979 0.5
382 3 0.525928 0.926081 0.5
383 3 0.550718 0.877114 0.5
384 3 0.575795 0.926424 0.5
385 3 0.600529 0.876818 0.5
386 3 0.62614 0.924887 0.5
387 3 0.650691 0.876111 0.5
388 3 0.676042 0.924538 0.5
389 3 0.700714 0.875842 0.5
390 3 0.725903 0.924396 0.5
391 3 0.750681 0.875728 0.5
392 3 0.77578 0.924341 0.5
410 3 0.450655 0.974189 0.5
411 3 0.501147 0.974943 0.5
412 3 0.558828 0.999756 0.5
413 3 0.602455 0.974119 0.5
414 3 0.651731 0.97359 0.5
415 3 0.701281 0.973348 0.5
416 3 0.750997 0.973246 0.5
ITEM: TIMESTEP
220
ITEM: NUMBER OF ATOMS
21
ITEM: BOX BOUNDS pp ss pp
0.0000000000000000e+00 2.2653923264628304e+01
2.1917670042342338e-01 1.9924689566319127e+01
-2.8317404080785380e-01 2.8317404080785380e-01
ITEM: ATOMS id type xs ys zs
379 3 0.450708 0.876719 0.5
380 3 0.475807 0.92562 0.5
381 3 0.500759 0.876983 0.5
382 3 0.525934 0.926086 0.5
383 3 0.550725 0.877119 0.5
384 3 0.575802 0.926431 0.5
385 3 0.600535 0.876822 0.5
386 3 0.62615 0.924887 0.5
387 3 0.650699 0.876112 0.5
388 3 0.676051 0.924539 0.5
389 3 0.700722 0.875843 0.5
390 3 0.725911 0.924397 0.5
391 3 0.750689 0.87573 0.5
392 3 0.775788 0.924343 0.5
410 3 0.450659 0.974192 0.5
411 3 0.50115 0.974946 0.5
412 3 0.558853 0.999741 0.5
413 3 0.602475 0.974119 0.5
414 3 0.651744 0.973591 0.5
415 3 0.701291 0.97335 0.5
416 3 0.751005 0.973248 0.5
ITEM: TIMESTEP
230
ITEM: NUMBER OF ATOMS
21
ITEM: BOX BOUNDS pp ss pp
0.0000000000000000e+00 2.2653923264628304e+01
2.1917670042342338e-01 1.9924689566319127e+01
-2.8317404080785380e-01 2.8317404080785380e-01
ITEM: ATOMS id type xs ys zs
379 3 0.450712 0.876721 0.5
380 3 0.475811 0.925622 0.5
381 3 0.500764 0.876986 0.5
382 3 0.525938 0.926089 0.5
383 3 0.55073 0.877123 0.5
384 3 0.575808 0.926436 0.5
385 3 0.60054 0.876825 0.5
386 3 0.626157 0.924888 0.5
387 3 0.650704 0.876113 0.5
388 3 0.676057 0.92454 0.5
389 3 0.700727 0.875844 0.5
390 3 0.725916 0.924398 0.5
391 3 0.750694 0.875731 0.5
392 3 0.775793 0.924344 0.5
410 3 0.450663 0.974194 0.5
411 3 0.501153 0.974949 0.5
412 3 0.55887 0.999731 0.5
413 3 0.602488 0.974118 0.5
414 3 0.651753 0.973592 0.5
415 3 0.701298 0.973351 0.5
416 3 0.751011 0.973249 0.5
ITEM: TIMESTEP
240
ITEM: NUMBER OF ATOMS
21
ITEM: BOX BOUNDS pp ss pp
0.0000000000000000e+00 2.2653923264628304e+01
2.1917670042342338e-01 1.9924689566319127e+01
-2.8317404080785380e-01 2.8317404080785380e-01
ITEM: ATOMS id type xs ys zs
379 3 0.450717 0.876723 0.5
380 3 0.475815 0.925624 0.5
381 3 0.500768 0.876989 0.5
382 3 0.525943 0.926092 0.5
383 3 0.550735 0.877126 0.5
384 3 0.575813 0.926441 0.5
385 3 0.600544 0.876828 0.5
386 3 0.626164 0.924888 0.5
387 3 0.650709 0.876114 0.5
388 3 0.676063 0.92454 0.5
389 3 0.700732 0.875845 0.5
390 3 0.725922 0.924399 0.5
391 3 0.750699 0.875733 0.5
392 3 0.775799 0.924345 0.5
410 3 0.450667 0.974196 0.5
411 3 0.501157 0.974951 0.5
412 3 0.558886 0.999721 0.5
413 3 0.602501 0.974118 0.5
414 3 0.651762 0.973593 0.5
415 3 0.701305 0.973352 0.5
416 3 0.751017 0.97325 0.5
ITEM: TIMESTEP
250
ITEM: NUMBER OF ATOMS
21
ITEM: BOX BOUNDS pp ss pp
0.0000000000000000e+00 2.2653923264628304e+01
2.1917670042342338e-01 1.9924689566319127e+01
-2.8317404080785380e-01 2.8317404080785380e-01
ITEM: ATOMS id type xs ys zs
379 3 0.450721 0.876725 0.5
380 3 0.475819 0.925626 0.5
381 3 0.500773 0.876991 0.5
382 3 0.525947 0.926094 0.5
383 3 0.550739 0.877129 0.5
384 3 0.575817 0.926445 0.5
385 3 0.600548 0.87683 0.5
386 3 0.62617 0.924888 0.5
387 3 0.650714 0.876115 0.5
388 3 0.676069 0.924541 0.5
389 3 0.700737 0.875846 0.5
390 3 0.725927 0.9244 0.5
391 3 0.750704 0.875734 0.5
392 3 0.775803 0.924346 0.5
410 3 0.450671 0.974198 0.5
411 3 0.50116 0.974952 0.5
412 3 0.558901 0.999712 0.5
413 3 0.602512 0.974117 0.5
414 3 0.65177 0.973594 0.5
415 3 0.70131 0.973353 0.5
416 3 0.751022 0.973251 0.5
ITEM: TIMESTEP
260
ITEM: NUMBER OF ATOMS
21
ITEM: BOX BOUNDS pp ss pp
0.0000000000000000e+00 2.2653923264628304e+01
2.1917670042342338e-01 1.9924689566319127e+01
-2.8317404080785380e-01 2.8317404080785380e-01
ITEM: ATOMS id type xs ys zs
379 3 0.450727 0.876727 0.5
380 3 0.475825 0.925628 0.5
381 3 0.500779 0.876994 0.5
382 3 0.525953 0.926097 0.5
383 3 0.550745 0.877133 0.5
384 3 0.575824 0.92645 0.5
385 3 0.600554 0.876833 0.5
386 3 0.626178 0.924888 0.5
387 3 0.650721 0.876116 0.5
388 3 0.676076 0.924541 0.5
389 3 0.700744 0.875847 0.5
390 3 0.725934 0.924401 0.5
391 3 0.750711 0.875736 0.5
392 3 0.77581 0.924348 0.5
410 3 0.450677 0.9742 0.5
411 3 0.501166 0.974955 0.5
412 3 0.55892 0.999701 0.5
413 3 0.602528 0.974117 0.5
414 3 0.65178 0.973595 0.5
415 3 0.701318 0.973354 0.5
416 3 0.751029 0.973253 0.5
ITEM: TIMESTEP
270
ITEM: NUMBER OF ATOMS
21
ITEM: BOX BOUNDS pp ss pp
0.0000000000000000e+00 2.2653923264628304e+01
2.1917670042342338e-01 1.9924689566319127e+01
-2.8317404080785380e-01 2.8317404080785380e-01
ITEM: ATOMS id type xs ys zs
379 3 0.450732 0.876729 0.5
380 3 0.475829 0.92563 0.5
381 3 0.500783 0.876995 0.5
382 3 0.525957 0.926099 0.5
383 3 0.550749 0.877135 0.5
384 3 0.575828 0.926453 0.5
385 3 0.600558 0.876835 0.5
386 3 0.626183 0.924888 0.5
387 3 0.650725 0.876116 0.5
388 3 0.676081 0.924542 0.5
389 3 0.700748 0.875847 0.5
390 3 0.725938 0.924402 0.5
391 3 0.750716 0.875736 0.5
392 3 0.775815 0.924349 0.5
410 3 0.450681 0.974202 0.5
411 3 0.501169 0.974956 0.5
412 3 0.558933 0.999693 0.5
413 3 0.602537 0.974116 0.5
414 3 0.651787 0.973595 0.5
415 3 0.701324 0.973355 0.5
416 3 0.751033 0.973254 0.5
ITEM: TIMESTEP
280
ITEM: NUMBER OF ATOMS
21
ITEM: BOX BOUNDS pp ss pp
0.0000000000000000e+00 2.2653923264628304e+01
2.1917670042342338e-01 1.9924689566319127e+01
-2.8317404080785380e-01 2.8317404080785380e-01
ITEM: ATOMS id type xs ys zs
379 3 0.450736 0.87673 0.5
380 3 0.475833 0.925632 0.5
381 3 0.500787 0.876997 0.5
382 3 0.525961 0.926101 0.5
383 3 0.550753 0.877137 0.5
384 3 0.575833 0.926456 0.5
385 3 0.600562 0.876836 0.5
386 3 0.626189 0.924888 0.5
387 3 0.65073 0.876117 0.5
388 3 0.676086 0.924542 0.5
389 3 0.700753 0.875848 0.5
390 3 0.725943 0.924402 0.5
391 3 0.75072 0.875738 0.5
392 3 0.775819 0.92435 0.5
410 3 0.450685 0.974204 0.5
411 3 0.501173 0.974958 0.5
412 3 0.558945 0.999685 0.5
413 3 0.602547 0.974115 0.5
414 3 0.651794 0.973596 0.5
415 3 0.701329 0.973355 0.5
416 3 0.751038 0.973255 0.5
ITEM: TIMESTEP
282
ITEM: NUMBER OF ATOMS
21
ITEM: BOX BOUNDS pp ss pp
0.0000000000000000e+00 2.2653923264628304e+01
2.1917670042342338e-01 1.9924689566319127e+01
-2.8317404080785380e-01 2.8317404080785380e-01
ITEM: ATOMS id type xs ys zs
379 3 0.450737 0.876731 0.5
380 3 0.475833 0.925632 0.5
381 3 0.500788 0.876997 0.5
382 3 0.525962 0.926101 0.5
383 3 0.550754 0.877137 0.5
384 3 0.575833 0.926456 0.5
385 3 0.600562 0.876837 0.5
386 3 0.62619 0.924888 0.5
387 3 0.65073 0.876117 0.5
388 3 0.676086 0.924542 0.5
389 3 0.700753 0.875848 0.5
390 3 0.725943 0.924403 0.5
391 3 0.750721 0.875738 0.5
392 3 0.77582 0.924351 0.5
410 3 0.450686 0.974204 0.5
411 3 0.501173 0.974958 0.5
412 3 0.558947 0.999684 0.5
413 3 0.602549 0.974115 0.5
414 3 0.651795 0.973596 0.5
415 3 0.70133 0.973355 0.5
416 3 0.751039 0.973255 0.5
