ITEM: TIMESTEP
0
ITEM: NUMBER OF ATOMS
399
ITEM: BOX BOUNDS pp ss pp
0.0000000000000000e+00 2.2653923264628304e+01
2.1917670042342338e-01 2.0122564683162704e+01
-2.8317404080785380e-01 2.8317404080785380e-01
ITEM: ATOMS id type xs ys zs
1 2 0 9.90468e-05 0.5
2 2 0.025 0.0484398 0.5
3 2 0.05 9.90468e-05 0.5
4 2 0.075 0.0484398 0.5
5 2 0.1 9.90468e-05 0.5
6 2 0.125 0.0484398 0.5
7 2 0.15 9.90468e-05 0.5
8 2 0.175 0.0484398 0.5
9 2 0.2 9.90468e-05 0.5
10 2 0.225 0.0484398 0.5
11 2 0.25 9.90468e-05 0.5
12 2 0.275 0.0484398 0.5
13 2 0.3 9.90468e-05 0.5
14 2 0.325 0.0484398 0.5
15 2 0.35 9.90468e-05 0.5
16 2 0.375 0.0484398 0.5
17 2 0.4 9.90468e-05 0.5
18 2 0.425 0.0484398 0.5
19 2 0.45 9.90468e-05 0.5
20 2 0.475 0.0484398 0.5
21 2 0.5 9.90468e-05 0.5
22 2 0.525 0.0484398 0.5
23 2 0.55 9.90468e-05 0.5
24 2 0.575 0.0484398 0.5
25 2 0.6 9.90468e-05 0.5
26 2 0.625 0.0484398 0.5
27 2 0.65 9.90468e-05 0.5
28 2 0.675 0.0484398 0.5
29 2 0.7 9.90468e-05 0.5
30 2 0.725 0.0484398 0.5
31 2 0.75 9.90468e-05 0.5
32 2 0.775 0.0484398 0.5
33 2 0.8 9.90468e-05 0.5
34 2 0.825 0.0484398 0.5
35 2 0.85 9.90468e-05 0.5
36 2 0.875 0.0484398 0.5
37 2 0.9 9.90468e-05 0.5
38 2 0.925 0.0484398 0.5
39 2 0.95 9.90468e-05 0.5
40 2 0.975 0.0484398 0.5
41 2 2.43656e-18 0.0965824 0.5
42 1 0.0250081 0.144741 0.5
43 2 0.05 0.0965824 0.5
44 1 0.07501 0.144742 0.5
45 2 0.1 0.0965824 0.5
46 1 0.125011 0.144743 0.5
47 2 0.15 0.0965824 0.5
48 1 0.175012 0.144745 0.5
49 2 0.2 0.0965824 0.5
50 1 0.225012 0.144746 0.5
51 2 0.25 0.0965824 0.5
52 1 0.275011 0.144747 0.5
53 2 0.3 0.0965824 0.5
54 1 0.325009 0.144748 0.5
55 2 0.35 0.0965824 0.5
56 1 0.375007 0.144748 0.5
57 2 0.4 0.0965824 0.5
58 1 0.425004 0.144749 0.5
59 2 0.45 0.0965824 0.5
60 1 0.475002 0.144748 0.5
61 2 0.5 0.0965824 0.5
62 1 0.524999 0.144748 0.5
63 2 0.55 0.0965824 0.5
64 1 0.574998 0.144747 0.5
65 2 0.6 0.0965824 0.5
66 1 0.624996 0.144746 0.5
67 2 0.65 0.0965824 0.5
68 1 0.674996 0.144745 0.5
69 2 0.7 0.0965824 0.5
70 1 0.724996 0.144744 0.5
71 2 0.75 0.0965824 0.5
72 1 0.774997 0.144743 0.5
73 2 0.8 0.0965824 0.5
74 1 0.824998 0.144742 0.5
75 2 0.85 0.0965824 0.5
76 1 0.875001 0.144741 0.5
77 2 0.9 0.0965824 0.5
78 1 0.925003 0.144741 0.5
79 2 0.95 0.0965824 0.5
80 1 0.975006 0.144741 0.5
81 1 1.37093e-05 0.192898 0.5
82 1 0.0250241 0.241055 0.5
83 1 0.0500179 0.1929 0.5
84 1 0.0750294 0.241059 0.5
85 1 0.100021 0.192902 0.5
86 1 0.125033 0.241064 0.5
87 1 0.150023 0.192905 0.5
88 1 0.175035 0.241069 0.5
89 1 0.200023 0.192908 0.5
90 1 0.225035 0.241075 0.5
91 1 0.250022 0.192911 0.5
92 1 0.275032 0.24108 0.5
93 1 0.30002 0.192914 0.5
94 1 0.325028 0.241084 0.5
95 1 0.350016 0.192916 0.5
96 1 0.375022 0.241086 0.5
97 1 0.400011 0.192917 0.5
98 1 0.425015 0.241087 0.5
99 1 0.450007 0.192917 0.5
100 1 0.475008 0.241086 0.5
101 1 0.500002 0.192916 0.5
102 1 0.525001 0.241084 0.5
103 1 0.549998 0.192914 0.5
104 1 0.574996 0.241081 0.5
105 1 0.599995 0.192912 0.5
106 1 0.624992 0.241076 0.5
107 1 0.649993 0.192909 0.5
108 1 0.67499 0.241071 0.5
109 1 0.699993 0.192906 0.5
110 1 0.724991 0.241066 0.5
111 1 0.749994 0.192903 0.5
112 1 0.774993 0.241061 0.5
113 1 0.799996 0.192901 0.5
114 1 0.824998 0.241057 0.5
115 1 0.85 0.192899 0.5
116 1 0.875004 0.241054 0.5
117 1 0.900004 0.192898 0.5
118 1 0.925011 0.241052 0.5
119 1 0.950009 0.192897 0.5
120 1 0.975018 0.241053 0.5
121 1 2.89989e-05 0.289208 0.5
122 1 0.0250433 0.337363 0.5
123 1 0.0500368 0.289212 0.5
124 1 0.0750518 0.337371 0.5
125 1 0.100043 0.289219 0.5
126 1 0.125058 0.337382 0.5
127 1 0.150047 0.289227 0.5
128 1 0.175061 0.337394 0.5
129 1 0.200048 0.289236 0.5
130 1 0.225062 0.337406 0.5
131 1 0.250046 0.289244 0.5
132 1 0.275059 0.337418 0.5
133 1 0.300042 0.289251 0.5
134 1 0.325052 0.337427 0.5
135 1 0.350035 0.289257 0.5
136 1 0.375043 0.337433 0.5
137 1 0.400027 0.28926 0.5
138 1 0.425032 0.337436 0.5
139 1 0.450018 0.28926 0.5
140 1 0.47502 0.337434 0.5
141 1 0.500009 0.289257 0.5
142 1 0.525009 0.337429 0.5
143 1 0.55 0.289253 0.5
144 1 0.574999 0.337422 0.5
145 1 0.599994 0.289247 0.5
146 1 0.624992 0.337412 0.5
147 1 0.64999 0.289239 0.5
148 1 0.674989 0.3374 0.5
149 1 0.699989 0.289231 0.5
150 1 0.724989 0.337388 0.5
151 1 0.749991 0.289223 0.5
152 1 0.774993 0.337377 0.5
153 1 0.799995 0.289216 0.5
154 1 0.825001 0.337367 0.5
155 1 0.850002 0.28921 0.5
156 1 0.875011 0.337361 0.5
157 1 0.900011 0.289207 0.5
158 1 0.925022 0.337357 0.5
159 1 0.95002 0.289206 0.5
160 1 0.975033 0.337358 0.5
161 1 4.92269e-05 0.38551 0.5
162 1 0.0250685 0.433664 0.5
163 1 0.0500603 0.385519 0.5
164 1 0.0750797 0.433678 0.5
165 1 0.100069 0.385532 0.5
166 1 0.125088 0.433696 0.5
167 1 0.150075 0.385547 0.5
168 1 0.175094 0.433717 0.5
169 1 0.200078 0.385564 0.5
170 1 0.225096 0.433739 0.5
171 1 0.250077 0.385581 0.5
172 1 0.275095 0.43376 0.5
173 1 0.300072 0.385595 0.5
174 1 0.325088 0.433778 0.5
175 1 0.350064 0.385607 0.5
176 1 0.375077 0.433791 0.5
177 1 0.400052 0.385613 0.5
178 1 0.425061 0.433798 0.5
179 1 0.450038 0.385615 0.5
180 1 0.475044 0.433797 0.5
181 1 0.500023 0.385611 0.5
182 1 0.525025 0.433789 0.5
183 1 0.550009 0.385602 0.5
184 1 0.575009 0.433775 0.5
185 1 0.599998 0.38559 0.5
186 1 0.624998 0.433756 0.5
187 1 0.649991 0.385574 0.5
188 1 0.674991 0.433734 0.5
189 1 0.699989 0.385558 0.5
190 1 0.724992 0.433711 0.5
191 1 0.749992 0.385541 0.5
192 1 0.774999 0.433689 0.5
193 1 0.799999 0.385527 0.5
194 1 0.82501 0.433671 0.5
195 1 0.85001 0.385515 0.5
196 1 0.875025 0.433659 0.5
197 1 0.900023 0.385508 0.5
198 1 0.92504 0.433654 0.5
199 1 0.950037 0.385507 0.5
200 1 0.975055 0.433655 0.5
201 1 7.68207e-05 0.481805 0.5
202 1 0.0251005 0.529958 0.5
203 1 0.05009 0.48182 0.5
204 1 0.0751129 0.529979 0.5
205 1 0.100101 0.48184 0.5
206 1 0.125124 0.530006 0.5
207 1 0.15011 0.481865 0.5
208 1 0.175132 0.530038 0.5
209 1 0.200115 0.481892 0.5
210 1 0.225139 0.530072 0.5
211 1 0.250117 0.48192 0.5
212 1 0.275141 0.530106 0.5
213 1 0.300115 0.481946 0.5
214 1 0.325138 0.530138 0.5
215 1 0.350106 0.481968 0.5
216 1 0.375127 0.530164 0.5
217 1 0.400092 0.481982 0.5
218 1 0.425109 0.53018 0.5
219 1 0.450072 0.481988 0.5
220 1 0.475084 0.530183 0.5
221 1 0.50005 0.481983 0.5
222 1 0.525056 0.530172 0.5
223 1 0.550028 0.481969 0.5
224 1 0.575031 0.530148 0.5
225 1 0.60001 0.481946 0.5
226 1 0.625011 0.530115 0.5
227 1 0.649998 0.481918 0.5
228 1 0.675002 0.530075 0.5
229 1 0.699995 0.481888 0.5
230 1 0.725003 0.530033 0.5
231 1 0.75 0.481857 0.5
232 1 0.775014 0.529995 0.5
233 1 0.800011 0.481831 0.5
234 1 0.825032 0.529964 0.5
235 1 0.850027 0.481811 0.5
236 1 0.875051 0.529946 0.5
237 1 0.900045 0.4818 0.5
238 1 0.92507 0.529939 0.5
239 1 0.950062 0.481798 0.5
240 1 0.975086 0.529944 0.5
241 1 0.000112302 0.578093 0.5
242 1 0.0251373 0.626246 0.5
243 1 0.0501246 0.578114 0.5
244 1 0.0751474 0.626275 0.5
245 1 0.100136 0.578142 0.5
246 1 0.125158 0.62631 0.5
247 1 0.150147 0.578177 0.5
248 1 0.17517 0.626351 0.5
249 1 0.200157 0.578215 0.5
250 1 0.225182 0.626398 0.5
251 1 0.250165 0.578257 0.5
252 1 0.275193 0.626449 0.5
253 1 0.300168 0.5783 0.5
254 1 0.3252 0.626501 0.5
255 1 0.350165 0.578339 0.5
256 1 0.375197 0.626551 0.5
257 1 0.400152 0.57837 0.5
258 1 0.425181 0.626588 0.5
259 1 0.450129 0.578387 0.5
260 1 0.475151 0.626604 0.5
261 1 0.500097 0.578385 0.5
262 1 0.52511 0.626593 0.5
263 1 0.550063 0.578363 0.5
264 1 0.575068 0.626555 0.5
265 1 0.600033 0.578325 0.5
266 1 0.625038 0.626495 0.5
267 1 0.650015 0.578275 0.5
268 1 0.675026 0.626423 0.5
269 1 0.700011 0.57822 0.5
270 1 0.725033 0.626348 0.5
271 1 0.750021 0.578166 0.5
272 1 0.775053 0.626284 0.5
273 1 0.80004 0.578121 0.5
274 1 0.825077 0.62624 0.5
275 1 0.850061 0.578092 0.5
276 1 0.875098 0.626218 0.5
277 1 0.900081 0.578079 0.5
278 1 0.925114 0.626215 0.5
279 1 0.950098 0.57808 0.5
280 1 0.975127 0.626225 0.5
281 1 0.00015273 0.674377 0.5
282 1 0.025173 0.722535 0.5
283 1 0.0501592 0.674405 0.5
284 1 0.075176 0.722569 0.5
285 1 0.100167 0.67444 0.5
286 1 0.125183 0.722609 0.5
287 1 0.150178 0.674482 0.5
288 1 0.175196 0.722656 0.5
289 1 0.200192 0.67453 0.5
290 1 0.225214 0.722711 0.5
291 1 0.250209 0.674585 0.5
292 1 0.275235 0.722777 0.5
293 1 0.300224 0.674647 0.5
294 1 0.325258 0.722853 0.5
295 1 0.350236 0.674713 0.5
296 1 0.375276 0.722936 0.5
297 1 0.400235 0.674775 0.5
298 1 0.42528 0.723018 0.5
299 1 0.450216 0.674821 0.5
300 1 0.475256 0.723076 0.5
301 1 0.500175 0.674834 0.5
302 1 0.5252 0.723081 0.5
303 1 0.550122 0.674807 0.5
304 1 0.575133 0.723022 0.5
305 1 0.600075 0.674741 0.5
306 1 0.625086 0.72291 0.5
307 1 0.650049 0.674649 0.5
308 1 0.675078 0.722769 0.5
309 1 0.700051 0.674546 0.5
310 1 0.725108 0.722633 0.5
311 1 0.750075 0.674453 0.5
312 1 0.77514 0.722543 0.5
313 1 0.800102 0.67439 0.5
314 1 0.82516 0.722497 0.5
315 1 0.850123 0.674358 0.5
316 1 0.87517 0.722483 0.5
317 1 0.900137 0.674349 0.5
318 1 0.925173 0.722489 0.5
319 1 0.950146 0.674357 0.5
320 1 0.975173 0.722508 0.5
321 1 0.000190545 0.770667 0.5
322 1 0.0251982 0.818832 0.5
323 1 0.0501857 0.770699 0.5
324 1 0.07519 0.818866 0.5
325 1 0.100186 0.770736 0.5
326 1 0.12519 0.818906 0.5
327 1 0.150194 0.77078 0.5
328 1 0.175198 0.818952 0.5
329 1 0.200209 0.770832 0.5
330 1 0.225216 0.81901 0.5
331 1 0.250232 0.770896 0.5
332 1 0.275244 0.819082 0.5
333 1 0.300261 0.770973 0.5
334 1 0.325281 0.819174 0.5
335 1 0.350293 0.771067 0.5
336 1 0.375326 0.81929 0.5
337 1 0.400322 0.771174 0.5
338 1 0.425369 0.819431 0.5
339 1 0.450333 0.771286 0.5
340 1 0.475396 0.819593 0.5
341 1 0.500303 0.771362 0.5
342 1 0.525356 0.819696 0.5
343 1 0.550224 0.771344 0.5
344 1 0.575248 0.819614 0.5
345 1 0.600146 0.771223 0.5
346 1 0.625175 0.819372 0.5
347 1 0.650118 0.771033 0.5
348 1 0.675244 0.819036 0.5
349 1 0.70016 0.770826 0.5
350 1 0.725287 0.818857 0.5
351 1 0.750198 0.770699 0.5
352 1 0.775296 0.81878 0.5
353 1 0.800215 0.770638 0.5
354 1 0.825282 0.818757 0.5
355 1 0.850217 0.770619 0.5
356 1 0.875259 0.81876 0.5
357 1 0.900209 0.770623 0.5
358 1 0.925234 0.818777 0.5
359 1 0.950199 0.770641 0.5
360 1 0.975213 0.818802 0.5
361 1 0.000214221 0.86697 0.5
362 1 0.0252026 0.915145 0.5
363 1 0.0501952 0.867001 0.5
364 1 0.0751822 0.915174 0.5
365 1 0.100185 0.867036 0.5
366 1 0.125172 0.915208 0.5
367 1 0.150185 0.867076 0.5
368 1 0.175171 0.91525 0.5
369 1 0.200194 0.867125 0.5
370 1 0.225179 0.915302 0.5
371 1 0.250214 0.867188 0.5
372 1 0.275199 0.91537 0.5
373 1 0.300247 0.86727 0.5
374 1 0.325233 0.915463 0.5
375 1 0.350292 0.867378 0.5
376 1 0.375285 0.91559 0.5
377 1 0.400349 0.867523 0.5
378 1 0.425363 0.915768 0.5
393 1 0.800371 0.866901 0.5
394 1 0.825405 0.915063 0.5
395 1 0.850323 0.866904 0.5
396 1 0.875333 0.915076 0.5
397 1 0.900279 0.86692 0.5
398 1 0.925277 0.915095 0.5
399 1 0.950242 0.866943 0.5
400 1 0.975234 0.915118 0.5
401 1 0.000211941 0.963498 0.5
402 1 0.0501809 0.963522 0.5
403 1 0.10016 0.963551 0.5
404 1 0.150149 0.963585 0.5
405 1 0.200146 0.963628 0.5
406 1 0.250151 0.963684 0.5
407 1 0.300166 0.96376 0.5
408 1 0.350196 0.963863 0.5
409 1 0.400249 0.964008 0.5
417 1 0.800507 0.963444 0.5
418 1 0.850397 0.963448 0.5
419 1 0.900316 0.96346 0.5
420 1 0.950256 0.963477 0.5
ITEM: TIMESTEP
10
ITEM: NUMBER OF ATOMS
399
ITEM: BOX BOUNDS pp ss pp
0.0000000000000000e+00 2.2653923264628304e+01
2.1917670042342338e-01 2.0269414270721047e+01
-2.8317404080785380e-01 2.8317404080785380e-01
ITEM: ATOMS id type xs ys zs
1 2 0 9.83214e-05 0.5
2 2 0.025 0.0480851 0.5
3 2 0.05 9.83214e-05 0.5
4 2 0.075 0.0480851 0.5
5 2 0.1 9.83214e-05 0.5
6 2 0.125 0.0480851 0.5
7 2 0.15 9.83214e-05 0.5
8 2 0.175 0.0480851 0.5
9 2 0.2 9.83214e-05 0.5
10 2 0.225 0.0480851 0.5
11 2 0.25 9.83214e-05 0.5
12 2 0.275 0.0480851 0.5
13 2 0.3 9.83214e-05 0.5
14 2 0.325 0.0480851 0.5
15 2 0.35 9.83214e-05 0.5
16 2 0.375 0.0480851 0.5
17 2 0.4 9.83214e-05 0.5
18 2 0.425 0.0480851 0.5
19 2 0.45 9.83214e-05 0.5
20 2 0.475 0.0480851 0.5
21 2 0.5 9.83214e-05 0.5
22 2 0.525 0.0480851 0.5
23 2 0.55 9.83214e-05 0.5
24 2 0.575 0.0480851 0.5
25 2 0.6 9.83214e-05 0.5
26 2 0.625 0.0480851 0.5
27 2 0.65 9.83214e-05 0.5
28 2 0.675 0.0480851 0.5
29 2 0.7 9.83214e-05 0.5
30 2 0.725 0.0480851 0.5
31 2 0.75 9.83214e-05 0.5
32 2 0.775 0.0480851 0.5
33 2 0.8 9.83214e-05 0.5
34 2 0.825 0.0480851 0.5
35 2 0.85 9.83214e-05 0.5
36 2 0.875 0.0480851 0.5
37 2 0.9 9.83214e-05 0.5
38 2 0.925 0.0480851 0.5
39 2 0.95 9.83214e-05 0.5
40 2 0.975 0.0480851 0.5
41 2 2.43656e-18 0.0958751 0.5
42 1 0.0250083 0.143681 0.5
43 2 0.05 0.0958751 0.5
44 1 0.0750104 0.143682 0.5
45 2 0.1 0.0958751 0.5
46 1 0.125012 0.143683 0.5
47 2 0.15 0.0958751 0.5
48 1 0.175012 0.143685 0.5
49 2 0.2 0.0958751 0.5
50 1 0.225012 0.143686 0.5
51 2 0.25 0.0958751 0.5
52 1 0.275011 0.143687 0.5
53 2 0.3 0.0958751 0.5
54 1 0.325009 0.143688 0.5
55 2 0.35 0.0958751 0.5
56 1 0.375007 0.143689 0.5
57 2 0.4 0.0958751 0.5
58 1 0.425005 0.143689 0.5
59 2 0.45 0.0958751 0.5
60 1 0.475002 0.143688 0.5
61 2 0.5 0.0958751 0.5
62 1 0.525 0.143688 0.5
63 2 0.55 0.0958751 0.5
64 1 0.574998 0.143687 0.5
65 2 0.6 0.0958751 0.5
66 1 0.624996 0.143686 0.5
67 2 0.65 0.0958751 0.5
68 1 0.674996 0.143685 0.5
69 2 0.7 0.0958751 0.5
70 1 0.724996 0.143684 0.5
71 2 0.75 0.0958751 0.5
72 1 0.774997 0.143683 0.5
73 2 0.8 0.0958751 0.5
74 1 0.824999 0.143682 0.5
75 2 0.85 0.0958751 0.5
76 1 0.875001 0.143681 0.5
77 2 0.9 0.0958751 0.5
78 1 0.925003 0.143681 0.5
79 2 0.95 0.0958751 0.5
80 1 0.975006 0.143681 0.5
81 1 1.42209e-05 0.191486 0.5
82 1 0.0250249 0.23929 0.5
83 1 0.0500185 0.191487 0.5
84 1 0.0750304 0.239294 0.5
85 1 0.100022 0.19149 0.5
86 1 0.125034 0.239298 0.5
87 1 0.150024 0.191493 0.5
88 1 0.175036 0.239304 0.5
89 1 0.200024 0.191496 0.5
90 1 0.225036 0.23931 0.5
91 1 0.250023 0.191499 0.5
92 1 0.275033 0.239315 0.5
93 1 0.30002 0.191502 0.5
94 1 0.325029 0.239319 0.5
95 1 0.350017 0.191503 0.5
96 1 0.375023 0.239321 0.5
97 1 0.400012 0.191504 0.5
98 1 0.425016 0.239322 0.5
99 1 0.450007 0.191504 0.5
100 1 0.475009 0.239322 0.5
101 1 0.500003 0.191503 0.5
102 1 0.525002 0.239319 0.5
103 1 0.549998 0.191502 0.5
104 1 0.574997 0.239316 0.5
105 1 0.599995 0.191499 0.5
106 1 0.624993 0.239311 0.5
107 1 0.649993 0.191497 0.5
108 1 0.674991 0.239306 0.5
109 1 0.699993 0.191494 0.5
110 1 0.724991 0.239301 0.5
111 1 0.749994 0.191491 0.5
112 1 0.774994 0.239296 0.5
113 1 0.799996 0.191489 0.5
114 1 0.824998 0.239292 0.5
115 1 0.85 0.191487 0.5
116 1 0.875004 0.239289 0.5
117 1 0.900004 0.191485 0.5
118 1 0.925011 0.239288 0.5
119 1 0.950009 0.191485 0.5
120 1 0.975018 0.239288 0.5
121 1 3.00358e-05 0.28709 0.5
122 1 0.0250447 0.334893 0.5
123 1 0.050038 0.287095 0.5
124 1 0.0750534 0.334901 0.5
125 1 0.100044 0.287101 0.5
126 1 0.12506 0.334911 0.5
127 1 0.150048 0.287109 0.5
128 1 0.175063 0.334923 0.5
129 1 0.200049 0.287118 0.5
130 1 0.225064 0.334936 0.5
131 1 0.250048 0.287127 0.5
132 1 0.275061 0.334947 0.5
133 1 0.300044 0.287134 0.5
134 1 0.325054 0.334957 0.5
135 1 0.350037 0.287139 0.5
136 1 0.375045 0.334963 0.5
137 1 0.400029 0.287142 0.5
138 1 0.425034 0.334966 0.5
139 1 0.450019 0.287142 0.5
140 1 0.475022 0.334965 0.5
141 1 0.50001 0.28714 0.5
142 1 0.52501 0.33496 0.5
143 1 0.550001 0.287136 0.5
144 1 0.575 0.334952 0.5
145 1 0.599995 0.287129 0.5
146 1 0.624993 0.334942 0.5
147 1 0.64999 0.287122 0.5
148 1 0.674989 0.33493 0.5
149 1 0.699989 0.287114 0.5
150 1 0.72499 0.334918 0.5
151 1 0.749991 0.287106 0.5
152 1 0.774994 0.334907 0.5
153 1 0.799996 0.287099 0.5
154 1 0.825001 0.334898 0.5
155 1 0.850003 0.287093 0.5
156 1 0.875011 0.334891 0.5
157 1 0.900012 0.287089 0.5
158 1 0.925023 0.334887 0.5
159 1 0.950021 0.287088 0.5
160 1 0.975034 0.334888 0.5
161 1 5.07975e-05 0.382688 0.5
162 1 0.0250704 0.430488 0.5
163 1 0.0500621 0.382696 0.5
164 1 0.075082 0.430502 0.5
165 1 0.100071 0.382709 0.5
166 1 0.125091 0.430521 0.5
167 1 0.150077 0.382724 0.5
168 1 0.175097 0.430542 0.5
169 1 0.20008 0.382741 0.5
170 1 0.225099 0.430564 0.5
171 1 0.25008 0.382758 0.5
172 1 0.275097 0.430585 0.5
173 1 0.300075 0.382773 0.5
174 1 0.325091 0.430603 0.5
175 1 0.350066 0.382784 0.5
176 1 0.375079 0.430616 0.5
177 1 0.400054 0.382791 0.5
178 1 0.425064 0.430623 0.5
179 1 0.45004 0.382792 0.5
180 1 0.475046 0.430622 0.5
181 1 0.500025 0.382789 0.5
182 1 0.525027 0.430615 0.5
183 1 0.550011 0.38278 0.5
184 1 0.575011 0.4306 0.5
185 1 0.599999 0.382768 0.5
186 1 0.624999 0.430581 0.5
187 1 0.649992 0.382752 0.5
188 1 0.674993 0.430559 0.5
189 1 0.69999 0.382736 0.5
190 1 0.724993 0.430536 0.5
191 1 0.749993 0.382719 0.5
192 1 0.775 0.430514 0.5
193 1 0.8 0.382704 0.5
194 1 0.825011 0.430496 0.5
195 1 0.850011 0.382693 0.5
196 1 0.875026 0.430484 0.5
197 1 0.900024 0.382686 0.5
198 1 0.925042 0.430478 0.5
199 1 0.950038 0.382684 0.5
200 1 0.975057 0.43048 0.5
201 1 7.89175e-05 0.478277 0.5
202 1 0.025103 0.526077 0.5
203 1 0.0500924 0.478291 0.5
204 1 0.0751157 0.526098 0.5
205 1 0.100104 0.478312 0.5
206 1 0.125127 0.526125 0.5
207 1 0.150113 0.478336 0.5
208 1 0.175136 0.526156 0.5
209 1 0.200118 0.478364 0.5
210 1 0.225142 0.526191 0.5
211 1 0.250121 0.478392 0.5
212 1 0.275145 0.526225 0.5
213 1 0.300118 0.478418 0.5
214 1 0.325141 0.526258 0.5
215 1 0.350109 0.47844 0.5
216 1 0.375131 0.526284 0.5
217 1 0.400095 0.478455 0.5
218 1 0.425112 0.5263 0.5
219 1 0.450075 0.47846 0.5
220 1 0.475087 0.526303 0.5
221 1 0.500052 0.478456 0.5
222 1 0.525059 0.526292 0.5
223 1 0.55003 0.478442 0.5
224 1 0.575033 0.526269 0.5
225 1 0.600012 0.478419 0.5
226 1 0.625013 0.526235 0.5
227 1 0.65 0.478391 0.5
228 1 0.675003 0.526195 0.5
229 1 0.699996 0.478361 0.5
230 1 0.725005 0.526153 0.5
231 1 0.750001 0.47833 0.5
232 1 0.775016 0.526115 0.5
233 1 0.800012 0.478303 0.5
234 1 0.825033 0.526084 0.5
235 1 0.850028 0.478283 0.5
236 1 0.875053 0.526065 0.5
237 1 0.900046 0.478272 0.5
238 1 0.925072 0.526058 0.5
239 1 0.950063 0.47827 0.5
240 1 0.975088 0.526063 0.5
241 1 0.00011489 0.573859 0.5
242 1 0.0251403 0.62166 0.5
243 1 0.0501275 0.57388 0.5
244 1 0.0751506 0.621688 0.5
245 1 0.100139 0.573909 0.5
246 1 0.125162 0.621723 0.5
247 1 0.15015 0.573943 0.5
248 1 0.175174 0.621765 0.5
249 1 0.20016 0.573982 0.5
250 1 0.225186 0.621812 0.5
251 1 0.250168 0.574024 0.5
252 1 0.275197 0.621863 0.5
253 1 0.300172 0.574066 0.5
254 1 0.325203 0.621915 0.5
255 1 0.350169 0.574106 0.5
256 1 0.375201 0.621965 0.5
257 1 0.400156 0.574137 0.5
258 1 0.425185 0.622002 0.5
259 1 0.450132 0.574154 0.5
260 1 0.475154 0.622019 0.5
261 1 0.500099 0.574152 0.5
262 1 0.525112 0.622008 0.5
263 1 0.550065 0.574131 0.5
264 1 0.575071 0.62197 0.5
265 1 0.600036 0.574093 0.5
266 1 0.62504 0.621911 0.5
267 1 0.650017 0.574043 0.5
268 1 0.675028 0.621838 0.5
269 1 0.700013 0.573988 0.5
270 1 0.725034 0.621764 0.5
271 1 0.750023 0.573934 0.5
272 1 0.775055 0.621699 0.5
273 1 0.800041 0.573889 0.5
274 1 0.825079 0.621655 0.5
275 1 0.850063 0.573859 0.5
276 1 0.8751 0.621633 0.5
277 1 0.900083 0.573846 0.5
278 1 0.925117 0.621629 0.5
279 1 0.9501 0.573847 0.5
280 1 0.97513 0.621639 0.5
281 1 0.000155738 0.669438 0.5
282 1 0.0251763 0.717243 0.5
283 1 0.0501625 0.669466 0.5
284 1 0.0751795 0.717277 0.5
285 1 0.100171 0.669501 0.5
286 1 0.125187 0.717317 0.5
287 1 0.150182 0.669542 0.5
288 1 0.175199 0.717364 0.5
289 1 0.200196 0.669591 0.5
290 1 0.225217 0.71742 0.5
291 1 0.250212 0.669646 0.5
292 1 0.275239 0.717486 0.5
293 1 0.300228 0.669708 0.5
294 1 0.325262 0.717562 0.5
295 1 0.350239 0.669774 0.5
296 1 0.37528 0.717646 0.5
297 1 0.400239 0.669837 0.5
298 1 0.425283 0.717728 0.5
299 1 0.450219 0.669883 0.5
300 1 0.475258 0.717785 0.5
301 1 0.500178 0.669897 0.5
302 1 0.525199 0.717782 0.5
303 1 0.550125 0.66987 0.5
304 1 0.57513 0.717712 0.5
305 1 0.600077 0.669805 0.5
306 1 0.625085 0.717593 0.5
307 1 0.650051 0.669713 0.5
308 1 0.67508 0.717454 0.5
309 1 0.700053 0.669611 0.5
310 1 0.725125 0.717316 0.5
311 1 0.750077 0.669517 0.5
312 1 0.775141 0.717255 0.5
313 1 0.800104 0.669453 0.5
314 1 0.825163 0.717208 0.5
315 1 0.850125 0.66942 0.5
316 1 0.875173 0.717193 0.5
317 1 0.90014 0.669411 0.5
318 1 0.925176 0.717198 0.5
319 1 0.950149 0.669418 0.5
320 1 0.975176 0.717216 0.5
321 1 0.000193874 0.765022 0.5
322 1 0.0252016 0.812834 0.5
323 1 0.0501892 0.765054 0.5
324 1 0.0751935 0.812869 0.5
325 1 0.10019 0.765091 0.5
326 1 0.125193 0.812908 0.5
327 1 0.150198 0.765135 0.5
328 1 0.175202 0.812955 0.5
329 1 0.200213 0.765188 0.5
330 1 0.225219 0.813013 0.5
331 1 0.250235 0.765251 0.5
332 1 0.275247 0.813085 0.5
333 1 0.300264 0.765329 0.5
334 1 0.325284 0.813177 0.5
335 1 0.350297 0.765423 0.5
336 1 0.375331 0.813295 0.5
337 1 0.400327 0.765534 0.5
338 1 0.425378 0.813444 0.5
339 1 0.450336 0.765644 0.5
340 1 0.475389 0.81359 0.5
341 1 0.500296 0.765706 0.5
342 1 0.525311 0.813629 0.5
343 1 0.550204 0.765659 0.5
344 1 0.575199 0.81347 0.5
345 1 0.600128 0.765523 0.5
346 1 0.625195 0.813153 0.5
347 1 0.650127 0.765322 0.5
348 1 0.675414 0.812751 0.5
349 1 0.700214 0.7651 0.5
350 1 0.725354 0.8128 0.5
351 1 0.750216 0.765046 0.5
352 1 0.77531 0.812781 0.5
353 1 0.800217 0.764997 0.5
354 1 0.825284 0.812763 0.5
355 1 0.850219 0.764976 0.5
356 1 0.875262 0.812764 0.5
357 1 0.900212 0.764979 0.5
358 1 0.925238 0.812781 0.5
359 1 0.950202 0.764996 0.5
360 1 0.975217 0.812805 0.5
361 1 0.000217759 0.86062 0.5
362 1 0.0252061 0.908441 0.5
363 1 0.0501987 0.860651 0.5
364 1 0.0751854 0.908471 0.5
365 1 0.100189 0.860685 0.5
366 1 0.125175 0.908506 0.5
367 1 0.150188 0.860726 0.5
368 1 0.175173 0.908547 0.5
369 1 0.200197 0.860776 0.5
370 1 0.225182 0.9086 0.5
371 1 0.250217 0.860839 0.5
372 1 0.275201 0.908669 0.5
373 1 0.300249 0.860921 0.5
374 1 0.325236 0.908761 0.5
375 1 0.350296 0.86103 0.5
376 1 0.375288 0.908888 0.5
377 1 0.400359 0.861178 0.5
378 1 0.425352 0.90907 0.5
393 1 0.800382 0.860552 0.5
394 1 0.825413 0.908362 0.5
395 1 0.850326 0.860556 0.5
396 1 0.875337 0.908374 0.5
397 1 0.900283 0.860571 0.5
398 1 0.925281 0.908392 0.5
399 1 0.950246 0.860593 0.5
400 1 0.975237 0.908415 0.5
401 1 0.000215589 0.95644 0.5
402 1 0.0501841 0.956465 0.5
403 1 0.100163 0.956493 0.5
404 1 0.150151 0.956528 0.5
405 1 0.200147 0.956572 0.5
406 1 0.250152 0.956628 0.5
407 1 0.300168 0.956704 0.5
408 1 0.350197 0.956807 0.5
409 1 0.400233 0.956955 0.5
417 1 0.800536 0.956394 0.5
418 1 0.850403 0.956393 0.5
419 1 0.90032 0.956403 0.5
420 1 0.95026 0.95642 0.5
ITEM: TIMESTEP
20
ITEM: NUMBER OF ATOMS
399
ITEM: BOX BOUNDS pp ss pp
0.0000000000000000e+00 2.2653923264628304e+01
2.1917670042342338e-01 2.0269414270721047e+01
-2.8317404080785380e-01 2.8317404080785380e-01
ITEM: ATOMS id type xs ys zs
1 2 0 9.83214e-05 0.5
2 2 0.025 0.0480851 0.5
3 2 0.05 9.83214e-05 0.5
4 2 0.075 0.0480851 0.5
5 2 0.1 9.83214e-05 0.5
6 2 0.125 0.0480851 0.5
7 2 0.15 9.83214e-05 0.5
8 2 0.175 0.0480851 0.5
9 2 0.2 9.83214e-05 0.5
10 2 0.225 0.0480851 0.5
11 2 0.25 9.83214e-05 0.5
12 2 0.275 0.0480851 0.5
13 2 0.3 9.83214e-05 0.5
14 2 0.325 0.0480851 0.5
15 2 0.35 9.83214e-05 0.5
16 2 0.375 0.0480851 0.5
17 2 0.4 9.83214e-05 0.5
18 2 0.425 0.0480851 0.5
19 2 0.45 9.83214e-05 0.5
20 2 0.475 0.0480851 0.5
21 2 0.5 9.83214e-05 0.5
22 2 0.525 0.0480851 0.5
23 2 0.55 9.83214e-05 0.5
24 2 0.575 0.0480851 0.5
25 2 0.6 9.83214e-05 0.5
26 2 0.625 0.0480851 0.5
27 2 0.65 9.83214e-05 0.5
28 2 0.675 0.0480851 0.5
29 2 0.7 9.83214e-05 0.5
30 2 0.725 0.0480851 0.5
31 2 0.75 9.83214e-05 0.5
32 2 0.775 0.0480851 0.5
33 2 0.8 9.83214e-05 0.5
34 2 0.825 0.0480851 0.5
35 2 0.85 9.83214e-05 0.5
36 2 0.875 0.0480851 0.5
37 2 0.9 9.83214e-05 0.5
38 2 0.925 0.0480851 0.5
39 2 0.95 9.83214e-05 0.5
40 2 0.975 0.0480851 0.5
41 2 2.43656e-18 0.0958751 0.5
42 1 0.025009 0.143682 0.5
43 2 0.05 0.0958751 0.5
44 1 0.0750111 0.143683 0.5
45 2 0.1 0.0958751 0.5
46 1 0.125013 0.143684 0.5
47 2 0.15 0.0958751 0.5
48 1 0.175013 0.143685 0.5
49 2 0.2 0.0958751 0.5
50 1 0.225013 0.143686 0.5
51 2 0.25 0.0958751 0.5
52 1 0.275012 0.143688 0.5
53 2 0.3 0.0958751 0.5
54 1 0.32501 0.143688 0.5
55 2 0.35 0.0958751 0.5
56 1 0.375008 0.143689 0.5
57 2 0.4 0.0958751 0.5
58 1 0.425005 0.143689 0.5
59 2 0.45 0.0958751 0.5
60 1 0.475003 0.143689 0.5
61 2 0.5 0.0958751 0.5
62 1 0.525 0.143689 0.5
63 2 0.55 0.0958751 0.5
64 1 0.574998 0.143688 0.5
65 2 0.6 0.0958751 0.5
66 1 0.624997 0.143687 0.5
67 2 0.65 0.0958751 0.5
68 1 0.674996 0.143686 0.5
69 2 0.7 0.0958751 0.5
70 1 0.724996 0.143684 0.5
71 2 0.75 0.0958751 0.5
72 1 0.774997 0.143683 0.5
73 2 0.8 0.0958751 0.5
74 1 0.824999 0.143682 0.5
75 2 0.85 0.0958751 0.5
76 1 0.875001 0.143682 0.5
77 2 0.9 0.0958751 0.5
78 1 0.925004 0.143681 0.5
79 2 0.95 0.0958751 0.5
80 1 0.975006 0.143681 0.5
81 1 1.5375e-05 0.191486 0.5
82 1 0.0250268 0.239291 0.5
83 1 0.0500199 0.191488 0.5
84 1 0.0750326 0.239295 0.5
85 1 0.100023 0.19149 0.5
86 1 0.125037 0.2393 0.5
87 1 0.150025 0.191494 0.5
88 1 0.175039 0.239305 0.5
89 1 0.200026 0.191497 0.5
90 1 0.225039 0.239311 0.5
91 1 0.250025 0.1915 0.5
92 1 0.275036 0.239316 0.5
93 1 0.300022 0.191503 0.5
94 1 0.325032 0.239321 0.5
95 1 0.350019 0.191505 0.5
96 1 0.375026 0.239323 0.5
97 1 0.400014 0.191506 0.5
98 1 0.425018 0.239324 0.5
99 1 0.450009 0.191506 0.5
100 1 0.475011 0.239324 0.5
101 1 0.500004 0.191505 0.5
102 1 0.525004 0.239321 0.5
103 1 0.549999 0.191503 0.5
104 1 0.574998 0.239318 0.5
105 1 0.599996 0.191501 0.5
106 1 0.624994 0.239313 0.5
107 1 0.649994 0.191498 0.5
108 1 0.674992 0.239308 0.5
109 1 0.699993 0.191495 0.5
110 1 0.724992 0.239303 0.5
111 1 0.749994 0.191492 0.5
112 1 0.774994 0.239298 0.5
113 1 0.799997 0.19149 0.5
114 1 0.824999 0.239293 0.5
115 1 0.850001 0.191487 0.5
116 1 0.875005 0.23929 0.5
117 1 0.900005 0.191486 0.5
118 1 0.925012 0.239289 0.5
119 1 0.95001 0.191486 0.5
120 1 0.97502 0.239289 0.5
121 1 3.23704e-05 0.287091 0.5
122 1 0.0250479 0.334894 0.5
123 1 0.0500407 0.287096 0.5
124 1 0.0750571 0.334902 0.5
125 1 0.100047 0.287103 0.5
126 1 0.125064 0.334913 0.5
127 1 0.150052 0.287111 0.5
128 1 0.175068 0.334925 0.5
129 1 0.200053 0.28712 0.5
130 1 0.225068 0.334938 0.5
131 1 0.250052 0.287129 0.5
132 1 0.275065 0.33495 0.5
133 1 0.300047 0.287136 0.5
134 1 0.325059 0.33496 0.5
135 1 0.350041 0.287142 0.5
136 1 0.37505 0.334966 0.5
137 1 0.400032 0.287145 0.5
138 1 0.425038 0.334969 0.5
139 1 0.450022 0.287145 0.5
140 1 0.475025 0.334968 0.5
141 1 0.500012 0.287143 0.5
142 1 0.525013 0.334963 0.5
143 1 0.550003 0.287138 0.5
144 1 0.575003 0.334955 0.5
145 1 0.599996 0.287132 0.5
146 1 0.624995 0.334945 0.5
147 1 0.649992 0.287124 0.5
148 1 0.674991 0.334933 0.5
149 1 0.699991 0.287116 0.5
150 1 0.724991 0.334921 0.5
151 1 0.749992 0.287108 0.5
152 1 0.774995 0.33491 0.5
153 1 0.799997 0.2871 0.5
154 1 0.825003 0.3349 0.5
155 1 0.850004 0.287095 0.5
156 1 0.875013 0.334892 0.5
157 1 0.900013 0.287091 0.5
158 1 0.925025 0.334889 0.5
159 1 0.950023 0.28709 0.5
160 1 0.975037 0.334889 0.5
161 1 5.43182e-05 0.382689 0.5
162 1 0.0250749 0.43049 0.5
163 1 0.0500662 0.382698 0.5
164 1 0.075087 0.430504 0.5
165 1 0.100076 0.38271 0.5
166 1 0.125097 0.430522 0.5
167 1 0.150082 0.382726 0.5
168 1 0.175103 0.430544 0.5
169 1 0.200086 0.382743 0.5
170 1 0.225106 0.430566 0.5
171 1 0.250085 0.38276 0.5
172 1 0.275104 0.430588 0.5
173 1 0.30008 0.382776 0.5
174 1 0.325097 0.430607 0.5
175 1 0.350071 0.382788 0.5
176 1 0.375085 0.430621 0.5
177 1 0.400059 0.382795 0.5
178 1 0.425069 0.430628 0.5
179 1 0.450044 0.382797 0.5
180 1 0.475051 0.430627 0.5
181 1 0.500029 0.382793 0.5
182 1 0.525031 0.430619 0.5
183 1 0.550014 0.382784 0.5
184 1 0.575014 0.430605 0.5
185 1 0.600002 0.382772 0.5
186 1 0.625002 0.430585 0.5
187 1 0.649994 0.382756 0.5
188 1 0.674995 0.430563 0.5
189 1 0.699992 0.382739 0.5
190 1 0.724995 0.430539 0.5
191 1 0.749994 0.382722 0.5
192 1 0.775002 0.430517 0.5
193 1 0.800002 0.382707 0.5
194 1 0.825014 0.430499 0.5
195 1 0.850013 0.382695 0.5
196 1 0.875029 0.430486 0.5
197 1 0.900027 0.382687 0.5
198 1 0.925045 0.43048 0.5
199 1 0.950041 0.382685 0.5
200 1 0.975061 0.430481 0.5
201 1 8.36069e-05 0.478278 0.5
202 1 0.0251086 0.526078 0.5
203 1 0.0500978 0.478293 0.5
204 1 0.0751219 0.526099 0.5
205 1 0.10011 0.478313 0.5
206 1 0.125133 0.526126 0.5
207 1 0.150119 0.478338 0.5
208 1 0.175143 0.526159 0.5
209 1 0.200125 0.478366 0.5
210 1 0.22515 0.526194 0.5
211 1 0.250128 0.478395 0.5
212 1 0.275152 0.526229 0.5
213 1 0.300125 0.478422 0.5
214 1 0.325149 0.526262 0.5
215 1 0.350116 0.478444 0.5
216 1 0.375137 0.526289 0.5
217 1 0.400101 0.478459 0.5
218 1 0.425117 0.526304 0.5
219 1 0.45008 0.478465 0.5
220 1 0.475091 0.526306 0.5
221 1 0.500057 0.47846 0.5
222 1 0.525062 0.526294 0.5
223 1 0.550034 0.478445 0.5
224 1 0.575036 0.526269 0.5
225 1 0.600015 0.478423 0.5
226 1 0.625017 0.526234 0.5
227 1 0.650003 0.478394 0.5
228 1 0.675007 0.526193 0.5
229 1 0.699999 0.478363 0.5
230 1 0.725009 0.526151 0.5
231 1 0.750004 0.478332 0.5
232 1 0.775021 0.526113 0.5
233 1 0.800016 0.478305 0.5
234 1 0.825039 0.526083 0.5
235 1 0.850032 0.478284 0.5
236 1 0.875058 0.526066 0.5
237 1 0.90005 0.478273 0.5
238 1 0.925076 0.526059 0.5
239 1 0.950067 0.478271 0.5
240 1 0.975093 0.526064 0.5
241 1 0.000120751 0.57386 0.5
242 1 0.025147 0.62166 0.5
243 1 0.050134 0.573881 0.5
244 1 0.0751578 0.621689 0.5
245 1 0.100146 0.57391 0.5
246 1 0.125169 0.621725 0.5
247 1 0.150158 0.573944 0.5
248 1 0.175182 0.621767 0.5
249 1 0.200168 0.573984 0.5
250 1 0.225194 0.621815 0.5
251 1 0.250176 0.574027 0.5
252 1 0.275205 0.621867 0.5
253 1 0.30018 0.574071 0.5
254 1 0.32521 0.62192 0.5
255 1 0.350175 0.574111 0.5
256 1 0.375205 0.621968 0.5
257 1 0.40016 0.574141 0.5
258 1 0.425186 0.622002 0.5
259 1 0.450135 0.574155 0.5
260 1 0.475151 0.622012 0.5
261 1 0.500101 0.57415 0.5
262 1 0.525109 0.621994 0.5
263 1 0.550066 0.574126 0.5
264 1 0.575069 0.62195 0.5
265 1 0.600038 0.574086 0.5
266 1 0.625042 0.621885 0.5
267 1 0.650021 0.574034 0.5
268 1 0.675037 0.62181 0.5
269 1 0.70002 0.573978 0.5
270 1 0.72505 0.621736 0.5
271 1 0.750032 0.573924 0.5
272 1 0.775073 0.621677 0.5
273 1 0.800051 0.573882 0.5
274 1 0.825094 0.621644 0.5
275 1 0.850071 0.573857 0.5
276 1 0.87511 0.621629 0.5
277 1 0.900089 0.573846 0.5