ITEM: TIMESTEP
1
ITEM: NUMBER OF ATOMS
420
ITEM: BOX BOUNDS
0.0 22.653923264628304
0.21917670042342338 19.924689566319127
-0.2831740408078538 0.2831740408078538
ITEM: ATOMS id type x y z 
379 3 10.210961410528768 17.49561070085303 0.0 
380 3 10.77948426877788 18.459229985508195 0.0 
381 3 11.34481292384668 17.50085236727536 0.0 
382 3 11.915102788110433 18.4684718710423 0.0 
383 3 12.476738853687095 17.503611139076583 0.0 
384 3 13.04487659524071 18.475467328109694 0.0 
385 3 13.605085463651704 17.497699485216813 0.0 
386 3 14.185660209077598 18.44456908393597 0.0 
387 3 14.741587485991577 17.48351151595337 0.0 
388 3 15.31600036428949 18.43775097648437 0.0 
389 3 15.874804689458077 17.478210732992444 0.0 
390 3 16.445457016494064 18.43501191019601 0.0 
391 3 17.006775927145025 17.476043126577196 0.0 
392 3 17.57536674716393 18.433987223526984 0.0 
410 3 10.209806060442272 19.41636615643048 0.0 
411 3 11.353534684303561 19.431224113131368 0.0 
412 3 12.662342446994195 19.918462624253504 0.0 
413 3 13.65009880917852 19.414612365785416 0.0 
414 3 14.765713914268405 19.40438520460802 0.0 
415 3 15.887876003181768 19.399636176007334 0.0 
416 3 17.01397987474318 19.397665624720748 0.0 
1 2 0.0 0.22114805963604045 0.0 
2 2 0.5663480816157076 1.1832945345540962 0.0 
3 2 1.1326961632314152 0.22114805963604045 0.0 
4 2 1.6990442448471228 1.1832945345540962 0.0 
5 2 2.2653923264628304 0.22114805963604045 0.0 
6 2 2.831740408078538 1.1832945345540962 0.0 
7 2 3.3980884896942456 0.22114805963604045 0.0 
8 2 3.9644365713099528 1.1832945345540962 0.0 
9 2 4.530784652925661 0.22114805963604045 0.0 
10 2 5.097132734541368 1.1832945345540962 0.0 
11 2 5.663480816157076 0.22114805963604045 0.0 
12 2 6.2298288977727845 1.1832945345540962 0.0 
13 2 6.796176979388491 0.22114805963604045 0.0 
14 2 7.362525061004199 1.1832945345540962 0.0 
15 2 7.9288731426199055 0.22114805963604045 0.0 
16 2 8.495221224235614 1.1832945345540962 0.0 
17 2 9.061569305851322 0.22114805963604045 0.0 
18 2 9.62791738746703 1.1832945345540962 0.0 
19 2 10.194265469082737 0.22114805963604045 0.0 
20 2 10.760613550698444 1.1832945345540962 0.0 
21 2 11.326961632314152 0.22114805963604045 0.0 
22 2 11.89330971392986 1.1832945345540962 0.0 
23 2 12.459657795545569 0.22114805963604045 0.0 
24 2 13.026005877161273 1.1832945345540962 0.0 
25 2 13.592353958776982 0.22114805963604045 0.0 
26 2 14.15870204039269 1.1832945345540962 0.0 
27 2 14.725050122008398 0.22114805963604045 0.0 
28 2 15.291398203624107 1.1832945345540962 0.0 
29 2 15.857746285239811 0.22114805963604045 0.0 
30 2 16.42409436685552 1.1832945345540962 0.0 
31 2 16.990442448471228 0.22114805963604045 0.0 
32 2 17.556790530086936 1.1832945345540962 0.0 
33 2 18.123138611702643 0.22114805963604045 0.0 
34 2 18.68948669331835 1.1832945345540962 0.0 
35 2 19.25583477493406 0.22114805963604045 0.0 
36 2 19.822182856549766 1.1832945345540962 0.0 
37 2 20.388530938165474 0.22114805963604045 0.0 
38 2 20.95487901978118 1.1832945345540962 0.0 
39 2 21.52122710139689 0.22114805963604045 0.0 
40 2 22.087575183012596 1.1832945345540962 0.0 
41 2 5.5197643269662744e-17 2.1414948031711405 0.0 
42 1 0.5670594148062169 3.1002409144945706 0.0 
43 2 1.1326961632314152 2.1414948031711405 0.0 
44 1 1.6998348667690584 3.1002606200074365 0.0 
45 2 2.2653923264628304 2.1414948031711405 0.0 
46 1 2.8325786032393294 3.1002803255203024 0.0 
47 2 3.3980884896942456 2.1414948031711405 0.0 
48 1 3.965320074317274 3.100319736546034 0.0 
49 2 4.530784652925661 2.1414948031711405 0.0 
50 1 5.098016237548689 3.100359147571766 0.0 
51 2 5.663480816157076 2.1414948031711405 0.0 
52 1 6.230689746856839 3.100378853084632 0.0 
53 2 6.796176979388491 2.1414948031711405 0.0 
54 1 7.363340602241725 3.1004182641103637 0.0 
55 2 7.9288731426199055 2.1414948031711405 0.0 
56 1 8.495946149780082 3.1004379696232296 0.0 
57 2 9.061569305851322 2.1414948031711405 0.0 
58 1 9.62855169731844 3.1004379696232296 0.0 
59 2 10.194265469082737 2.1414948031711405 0.0 
60 1 10.761157244856795 3.1004379696232296 0.0 
61 2 11.326961632314152 2.1414948031711405 0.0 
62 1 11.893762792395153 3.1004182641103637 0.0 
63 2 12.459657795545569 2.1414948031711405 0.0 
64 1 13.026390993856774 3.100398558597498 0.0 
65 2 13.592353958776982 2.1414948031711405 0.0 
66 1 14.159019195318393 3.100378853084632 0.0 
67 2 14.725050122008398 2.1414948031711405 0.0 
68 1 15.291692704626545 3.1003394420589 0.0 
69 2 15.857746285239811 2.1414948031711405 0.0 
70 1 16.42438886785796 3.100319736546034 0.0 
71 2 16.990442448471228 2.1414948031711405 0.0 
72 1 17.55710768501264 3.1002803255203024 0.0 
73 2 18.123138611702643 2.1414948031711405 0.0 
74 1 18.689849156090585 3.1002606200074365 0.0 
75 2 19.25583477493406 2.1414948031711405 0.0 
76 1 19.822613281091794 3.1002409144945706 0.0 
77 2 20.388530938165474 2.1414948031711405 0.0 
78 1 20.95540006001627 3.1002212089817043 0.0 
79 2 21.52122710139689 2.1414948031711405 0.0 
80 1 22.08818683894074 3.1002212089817043 0.0 
81 1 0.001327775892640109 4.0589141154203965 0.0 
82 1 0.5684684888332768 5.017587316346222 0.0 
83 1 1.1341890567745543 4.058953526446128 0.0 
84 1 1.701379864335706 5.0176661383976855 0.0 
85 1 2.2670234089378836 4.059012642984726 0.0 
86 1 2.834232339637647 5.017804076987748 0.0 
87 1 3.3998101878623572 4.05909146503619 0.0 
88 1 3.9670417724853855 5.017961721090674 0.0 
89 1 4.532529005017038 4.059189992600519 0.0 
90 1 5.099737935716801 5.018119365193601 0.0 
91 1 5.6652025143251885 4.059268814651983 0.0 
92 1 6.232388791101687 5.018257303783662 0.0 
93 1 6.797830715786809 4.059347636703446 0.0 
94 1 7.364926376870249 5.018395242373725 0.0 
95 1 7.930413609401901 4.059406753242044 0.0 
96 1 8.497441308715548 5.018474064425187 0.0 
97 1 9.062951195170465 4.059446164267776 0.0 
98 1 9.629888278791052 5.018513475450919 0.0 
99 1 10.195466127015761 4.059446164267776 0.0 
100 1 10.762335248866556 5.018513475450919 0.0 
101 1 11.328003712784325 4.059446164267776 0.0 
102 1 11.894759565018795 5.018474064425187 0.0 
103 1 12.460518644629623 4.059406753242044 0.0 
104 1 13.02725184294083 5.018375536860859 0.0 
105 1 13.593101538244715 4.059347636703446 0.0 
106 1 14.159766774786128 5.018257303783662 0.0 
107 1 14.725707085783071 4.059268814651983 0.0 
108 1 15.292372322324484 5.018119365193601 0.0 
109 1 15.858357941167958 4.059189992600519 0.0 
110 1 16.425045831632634 5.017961721090674 0.0 
111 1 16.991076758322638 4.05909146503619 0.0 
112 1 17.557809956633843 5.017823782500614 0.0 
113 1 18.123840883323847 4.059032348497592 0.0 
114 1 18.69066469732811 5.017685843910551 0.0 
115 1 19.256650316171584 4.058953526446128 0.0 
116 1 19.823542091945644 5.017587316346222 0.0 
117 1 20.389505056865854 4.0589141154203965 0.0 
118 1 20.956487448332968 5.017528199807624 0.0 
119 1 21.522382451483384 4.058894409907531 0.0 
120 1 22.08945545864356 5.017528199807624 0.0 
121 1 0.002684784407860894 5.976122578681987 0.0 
122 1 0.5699341976684983 6.93471695755635 0.0 
123 1 1.1356842157100198 5.976240811759182 0.0 
124 1 1.7029679043565564 6.934914012685009 0.0 
125 1 2.2686318374896723 5.9764181613749745 0.0 
126 1 2.835931383882494 6.935209595377997 0.0 
127 1 3.40148657818394 5.9766349220165 0.0 
128 1 3.9687861245767615 6.9355445890967165 0.0 
129 1 4.534273357108414 5.97687138817089 0.0 
130 1 5.101527595654707 6.9358992883283035 0.0 
131 1 5.6669468664165645 5.977127559838148 0.0 
132 1 6.234133143193063 6.936234282047024 0.0 
133 1 6.799507106108392 5.977344320479673 0.0 
134 1 7.3666254211150966 6.936529864740011 0.0 
135 1 7.9319993840304255 5.977521670095465 0.0 
136 1 8.499027083344071 6.936746625381536 0.0 
137 1 9.0644010462594 5.977620197659795 0.0 
138 1 9.631338129879989 6.936845152945867 0.0 
139 1 10.19678005456511 5.977659608685527 0.0 
140 1 10.763603868569374 6.936845152945867 0.0 
141 1 11.329136408947557 5.977620197659795 0.0 
142 1 11.895892261182027 6.936746625381536 0.0 
143 1 12.461515417253265 5.9775019645826 0.0 
144 1 13.028203307717943 6.936549570252878 0.0 
145 1 13.593939733405506 5.977344320479673 0.0 
146 1 14.160627623870184 6.9362736930727555 0.0 
147 1 14.726454665250806 5.977127559838148 0.0 
148 1 15.293165209638746 6.935938699354035 0.0 
149 1 15.859082866712425 5.976891093683757 0.0 
150 1 16.425838718946896 6.935584000122448 0.0 
151 1 16.991801683867106 5.976654627529366 0.0 
152 1 17.558648151794635 6.935249006403729 0.0 
153 1 18.12463377063811 5.976437866887841 0.0 
154 1 18.691570854258696 6.93495342371074 0.0 
155 1 19.25755647310217 5.976260517272048 0.0 
156 1 19.82458417241582 6.934736663069215 0.0 
157 1 20.390547137336025 5.976142284194853 0.0 
158 1 20.95766545234273 6.934618429992019 0.0 
159 1 21.52358310941641 5.976102873169121 0.0 
160 1 22.09076938619291 6.934598724479154 0.0 
161 1 0.0041381015470565935 7.893094575789187 0.0 
162 1 0.5715018491584105 8.851610132612086 0.0 
163 1 1.1372563979845849 7.8933113364307115 0.0 
164 1 1.7046329677165066 8.851964831843672 0.0 
165 1 2.2703082278112547 7.893646330149433 0.0 
166 1 2.8376757359738707 8.85245746966532 0.0 
167 1 3.403253584198581 7.8940798514324815 0.0 
168 1 3.970621092361197 8.853048635051296 0.0 
169 1 4.536085670969584 7.894552783741263 0.0 
170 1 5.103407871285671 8.853679211463005 0.0 
171 1 5.668781834200999 7.8950257160500446 0.0 
172 1 6.2360587266705565 8.854309787874714 0.0 
173 1 6.801342073892826 7.895478942845959 0.0 
174 1 7.368528350669326 8.854861542234959 0.0 
175 1 7.9337437361218015 7.895833642077546 0.0 
176 1 8.500839397205242 8.85527535800514 0.0 
177 1 9.066032128734454 7.896070108231937 0.0 
178 1 9.633014520201572 8.855511824159533 0.0 
179 1 10.198229905654047 7.896148930283401 0.0 
180 1 10.76509902750484 8.8555315296724 0.0 
181 1 11.330405028650377 7.896089813744802 0.0 
182 1 11.897183534808113 8.855354180056604 0.0 
183 1 12.462625459493234 7.895873053103278 0.0 
184 1 13.029336003881175 8.854979775312154 0.0 
185 1 13.594913852105886 7.895538059384558 0.0 
186 1 14.161601742570562 8.85446743197764 0.0 
187 1 14.727338168258125 7.895124243614374 0.0 
188 1 15.294071366569332 8.853856561078798 0.0 
189 1 15.859921061873218 7.8946513113055925 0.0 
190 1 16.42672222195422 8.853186573641358 0.0 
191 1 16.99266253295116 7.894158673483945 0.0 
192 1 17.55959961657175 8.852555997229649 0.0 
193 1 18.12556258149196 7.893725152200894 0.0 
194 1 18.692635588652134 8.85202394838227 0.0 
195 1 19.258621207495608 7.893350747456443 0.0 
196 1 19.825807484272108 8.851629838124952 0.0 
197 1 20.39174779526905 7.893114281302053 0.0 
198 1 20.95900203381534 8.851413077483427 0.0 
199 1 21.524897036965758 7.89303545925059 0.0 
200 1 22.09224189120511 8.851413077483427 0.0 
201 1 0.0057208178959398505 9.80981040122913 0.0 
202 1 0.5731623817337077 10.76826684151343 0.0 
203 1 1.138912399775229 9.810165100460715 0.0 
204 1 1.7063297465690273 10.768818595873675 0.0 
205 1 2.2720299259793664 9.810697149308094 0.0 
206 1 2.839442741988512 10.769547699849715 0.0 
207 1 3.405065898059751 9.8113868422584 0.0 
208 1 3.972456060145632 10.770434447928679 0.0 
209 1 4.537988600523812 9.812155357260172 0.0 
210 1 5.105356108686428 10.771419723571974 0.0 
211 1 5.670752725525022 9.812963283287674 0.0 
212 1 6.238097579764373 10.772424704728135 0.0 
213 1 6.803335619140114 9.813731798289444 0.0 
214 1 7.370635165532935 10.773350863832833 0.0 
215 1 7.9357372813690885 9.814401785726883 0.0 
216 1 8.502946212068851 10.774119378834603 0.0 
217 1 9.067935058288683 9.814855012522798 0.0 
218 1 9.635030719372123 10.774592311143383 0.0 
219 1 10.199974257745422 9.815052067651457 0.0 
220 1 10.766933995289277 10.774710544220579 0.0 
221 1 11.33194549543237 9.814973245599994 0.0 
222 1 11.898769309436634 10.774454372553322 0.0 
223 1 12.463939387042583 9.814618546368408 0.0 
224 1 13.030672585353788 10.77384350165448 0.0 
225 1 13.596046548269117 9.814027380982433 0.0 
226 1 14.16275709265706 10.772937048062648 0.0 
227 1 14.728334940881767 9.81325886598066 0.0 
228 1 15.29513610096277 10.771853244855023 0.0 
229 1 15.860872526650333 9.812411528927427 0.0 
230 1 16.427832264194183 10.770710325108801 0.0 
231 1 16.99368195949807 9.81154448636133 0.0 
232 1 17.560822928428042 10.769646227414043 0.0 
233 1 18.12669527765519 9.810775971359558 0.0 
234 1 18.69401747797128 10.768779184847945 0.0 
235 1 19.25988982719843 9.810165100460715 0.0 
236 1 19.82730264320757 10.768188019461967 0.0 
237 1 20.393129684588192 9.809790695716265 0.0 
238 1 20.960587808443865 10.767912142281844 0.0 
239 1 21.526392195901224 9.809692168151935 0.0 
240 1 22.093850319756896 10.767951553307578 0.0 
241 1 0.007407878215379985 11.726289760514682 0.0 
242 1 0.5748115873473727 12.684746200798983 0.0 
243 1 1.1405774631351795 11.726802103849197 0.0 
244 1 1.7079087250205718 12.685475304775021 0.0 
245 1 2.2737063163009488 11.727570618850965 0.0 
246 1 2.8410058626937706 12.68644087490545 0.0 
247 1 3.4067875962278626 11.728516483468528 0.0 
248 1 3.974087142620685 12.687623205677404 0.0 
249 1 4.5398009143849825 11.729639697701884 0.0 
250 1 5.107145768624334 12.688963180552285 0.0 
251 1 5.672723616849045 11.730841733986704 0.0 
252 1 6.24009112501166 12.690421388504362 0.0 
253 1 6.805465087926989 11.73206347578439 0.0 
254 1 7.372877903936134 12.691899301969302 0.0 
255 1 7.9379800197722865 11.73316698450488 0.0 
256 1 8.505392835781432 12.693239276844185 0.0 
257 1 9.07022310453841 11.734053732583845 0.0 
258 1 9.637545304854497 12.69422455248748 0.0 
259 1 10.202149034378827 11.734506959379761 0.0 
260 1 10.769290003308797 12.694638368257662 0.0 
261 1 11.333871078909864 11.734487253866893 0.0 
262 1 11.900785508607186 12.694342785564674 0.0 
263 1 12.46554781559437 11.73393549950665 0.0 
264 1 13.032326321752105 12.693357509921379 0.0 
265 1 13.597383129741731 11.732950223863355 0.0 
266 1 14.16418428982273 12.691800774404975 0.0 
267 1 14.729558252738057 11.73162995450134 0.0 
268 1 15.296517990281911 12.689928750682713 0.0 
269 1 15.862118492429884 11.730152041036396 0.0 
270 1 16.429395384899443 12.687997610421856 0.0 
271 1 16.995041194893947 11.728693833084323 0.0 
272 1 17.56263524228921 12.686283230802523 0.0 
273 1 18.128258398360448 11.727472091286637 0.0 
274 1 18.695965715372033 12.685081194517704 0.0 
275 1 19.261543563596746 11.726605048720536 0.0 
276 1 19.82925088060833 12.684371796054531 0.0 
277 1 20.394851382756308 11.726132116411755 0.0 
278 1 20.962468084074832 12.68413532990014 0.0 
279 1 21.528113894069335 11.726053294360291 0.0 
280 1 22.09561732577154 12.684273268490204 0.0 
281 1 0.009083475649648218 13.64265088672304 0.0 
282 1 0.576261438436309 14.601166443545939 0.0 
283 1 1.1420748874629714 13.64332087416048 0.0 
284 1 1.7091365676615147 14.602053191624902 0.0 
285 1 2.2751108595433562 13.644266738778041 0.0 
286 1 2.8421159049337374 14.60317640585826 0.0 
287 1 3.4081694855470053 13.645449069549997 0.0 
288 1 3.975174530937387 14.604555791758871 0.0 
289 1 4.541296073320448 13.646848160963476 0.0 
290 1 5.108369080480624 14.60619134932674 0.0 
291 1 5.674400007170626 13.648464013018478 0.0 
292 1 6.24160893787039 14.608063373049001 0.0 
293 1 6.807458633174276 13.650198098150678 0.0 
294 1 7.3748487952601565 14.610152157412786 0.0 
295 1 7.9403586817150735 13.651971594308607 0.0 
296 1 8.507907421263806 14.612319763828035 0.0 
297 1 9.072896267483637 13.65358744636361 0.0 
298 1 9.640558276648692 14.61431002062749 0.0 
299 1 10.20495812086364 13.654730366109833 0.0 
300 1 10.772506860412374 14.615649995502372 0.0 
301 1 11.33645362616203 13.655006243289955 0.0 
302 1 11.903662556861793 14.615630289989506 0.0 
303 1 12.467699938304511 13.654237728288185 0.0 
304 1 13.034569060155302 14.614053848960234 0.0 
305 1 13.599127481833106 13.652562759694584 0.0 
306 1 14.166064565453695 14.611235960620412 0.0 
307 1 14.731144027366582 13.650217803663542 0.0 
308 1 15.298602151222257 14.607787495868878 0.0 
309 1 15.863885498444526 13.64763638147811 0.0 
310 1 16.432091201767935 14.604457264194544 0.0 
311 1 16.997215971527353 13.645271719934202 0.0 
312 1 17.56558025231361 14.60221083572783 0.0 
313 1 18.130591752456706 13.643616456853469 0.0 
314 1 18.69877480185685 14.600929977391546 0.0 
315 1 19.263854263769737 13.642631181210174 0.0 
316 1 19.83174281216744 14.600358517518437 0.0 
317 1 20.39698085154318 13.642237070952856 0.0 
318 1 20.964597552861704 14.600279695466973 0.0 
319 1 21.530016823623566 13.642256776465722 0.0 
320 1 22.09738433178618 14.600575278159962 0.0 
321 1 0.010523925360429608 15.55909083498286 0.0 
322 1 0.5772468840983203 16.517783741421553 0.0 
323 1 1.143164541172 15.55985934998463 0.0 
324 1 1.7097527543743127 16.51867048950052 0.0 
325 1 2.275949054704147 15.560884036653658 0.0 
326 1 2.8424557137827073 16.519833114759606 0.0 
327 1 3.4088717571682086 15.562184600502805 0.0 
328 1 3.9753784162467687 16.52125191168595 0.0 
329 1 4.541998344941652 15.563741336019211 0.0 
330 1 5.1085503118667415 16.523005702331016 0.0 
331 1 5.675283510177947 15.565613359741471 0.0 
332 1 6.241971400642624 16.5250944866948 0.0 
333 1 6.808704598953831 15.567800671669586 0.0 
334 1 7.375641682574419 16.527616792341636 0.0 
335 1 7.942193649499508 15.570283566290689 0.0 
336 1 8.50949319589233 16.530612030297252 0.0 
337 1 9.075546776505597 15.572983221553317 0.0 
338 1 9.643276747440447 16.534021084023053 0.0 
339 1 10.208401517199865 15.575544938225883 0.0 
340 1 10.776539258753477 16.537548370826045 0.0 
341 1 11.340236831347223 15.577180495793751 0.0 
342 1 11.90823864936125 16.53967656621556 0.0 
343 1 12.470848833638295 15.57651050835631 0.0 
344 1 13.038080418261321 16.537390726723117 0.0 
345 1 13.601528797699157 15.573416742836367 0.0 
346 1 14.168941613708302 16.531479072863352 0.0 
347 1 14.733567997155896 15.568805652825745 0.0 
348 1 15.303586014340475 16.52351804566553 0.0 
349 1 15.867419510473809 15.563859569096406 0.0 
350 1 16.437278950195534 16.519498121040886 0.0 
351 1 17.001044484559074 15.560864331140792 0.0 
352 1 17.570088383043274 16.517665508344358 0.0 
353 1 18.134125764485987 15.55928789011152 0.0 
354 1 18.702422083502455 16.51683787680399 0.0 
355 1 19.266867235563932 15.55855878613548 0.0 
356 1 19.834551898652254 16.516581705136733 0.0 
357 1 20.399404821332492 15.558361731006823 0.0 
358 1 20.96665905987879 16.51669993821393 0.0 
359 1 21.53189709925453 15.558578491648348 0.0 
360 1 22.098834182875116 16.517113753984113 0.0 
361 1 0.011423308767958615 17.475846071448537 0.0 
362 1 0.5774960772542312 18.434755738528754 0.0 
363 1 1.143590434929375 17.47659488093744 0.0 
364 1 1.7095466036726046 18.435563664556256 0.0 
365 1 2.2759943625506764 17.4775998620936 0.0 
366 1 2.841866711777827 18.436627762251014 0.0 
367 1 3.408645217935562 17.478841309404153 0.0 
368 1 3.974449605392919 18.43794803161303 0.0 
369 1 4.541567920399624 17.480378339407693 0.0 
370 1 5.107349653933716 18.439603294693764 0.0 
371 1 5.674785123866126 17.482289774155685 0.0 
372 1 6.240612165246747 18.441632962518952 0.0 
373 1 6.808364790104862 17.48461502467386 0.0 
374 1 7.374305101101805 18.44419467919152 0.0 
375 1 7.942306919115831 17.487511735065148 0.0 
376 1 8.508541731115216 18.447465794327258 0.0 
377 1 9.07658885697577 17.491117843919607 0.0 
378 1 9.643503286673093 18.451801007157755 0.0 
393 1 18.138520625599327 17.47525490606256 0.0 
394 1 18.706046711224793 18.433652229808263 0.0 
395 1 19.270061438744246 17.47495932336957 0.0 
396 1 19.83693056059504 18.43361281878253 0.0 
397 1 20.401647559735693 17.47501843990817 0.0 
398 1 20.96813156489099 18.433790168398325 0.0 
399 1 21.533392258189995 17.475314022601157 0.0 
400 1 22.099627070189378 18.434164573142777 0.0 
401 1 0.011488031026725659 19.397153281386235 0.0 
402 1 1.143169071956653 19.397783857797943 0.0 
403 1 2.2751335134666206 19.398631194851173 0.0 
404 1 3.407376598232743 19.399754409084533 0.0 
405 1 4.539891530078041 19.40115350049801 0.0 
406 1 5.672723616849045 19.40288758563021 0.0 
407 1 6.8059181663922805 19.405074897558325 0.0 
408 1 7.939611102247341 19.40783366935955 0.0 
409 1 9.074051617570131 19.41142007270114 0.0 
417 1 18.14266629355675 19.39683799318038 0.0 
418 1 19.272508062456826 19.39660152702599 0.0 
419 1 20.403029449054834 19.396562116000258 0.0 
420 1 21.53404922196467 19.396759171128917 0.0 
ITEM: TIMESTEP
2
ITEM: NUMBER OF ATOMS
420
ITEM: BOX BOUNDS
0.0 22.653923264628304
0.21917670042342338 20.406283980994505
-0.2831740408078538 0.2831740408078538
ITEM: ATOMS id type x y z 
379 3 10.195873897634526 17.478689121844244 0.0 
380 3 10.757827118136895 18.437738214529617 0.0 
381 3 11.331288531657696 17.483917582629914 0.0 
382 3 11.896889033805671 18.448275884530073 0.0 
383 3 12.464777582203373 17.48514899617403 0.0 
384 3 13.033889442457365 18.44605530272921 0.0 
385 3 13.598923596523724 17.481919059009137 0.0 
386 3 14.174854287680368 18.433337425142454 0.0 
387 3 14.73524438747748 17.475862926824966 0.0 
388 3 15.305126481122471 18.433922851253588 0.0 
389 3 15.867872588939102 17.47501506831918 0.0 
390 3 16.436168907955565 18.433074992747805 0.0 
391 3 17.00004771193543 17.474369080886206 0.0 
392 3 17.56739256617478 18.432731811924032 0.0 
410 3 10.185090630160563 19.39910882455225 0.0 
411 3 11.312440467501526 19.404175788479677 0.0 
412 3 13.185987883256079 20.418396245362846 0.0 
413 3 13.62234775317935 19.39416298326851 0.0 
414 3 14.744781689171889 19.39862433397752 0.0 
415 3 15.873354838369142 19.396423939283938 0.0 
416 3 17.003241915115744 19.39577795185096 0.0 
1 2 0.0 0.22114805963604045 0.0 
2 2 0.5663480816157076 1.1832945345540962 0.0 
3 2 1.1326961632314152 0.22114805963604045 0.0 
4 2 1.6990442448471228 1.1832945345540962 0.0 
5 2 2.2653923264628304 0.22114805963604045 0.0 
6 2 2.831740408078538 1.1832945345540962 0.0 
7 2 3.3980884896942456 0.22114805963604045 0.0 
8 2 3.9644365713099528 1.1832945345540962 0.0 
9 2 4.530784652925661 0.22114805963604045 0.0 
10 2 5.097132734541368 1.1832945345540962 0.0 
11 2 5.663480816157076 0.22114805963604045 0.0 
12 2 6.2298288977727845 1.1832945345540962 0.0 
13 2 6.796176979388491 0.22114805963604045 0.0 
14 2 7.362525061004199 1.1832945345540962 0.0 
15 2 7.9288731426199055 0.22114805963604045 0.0 
16 2 8.495221224235614 1.1832945345540962 0.0 
17 2 9.061569305851322 0.22114805963604045 0.0 
18 2 9.62791738746703 1.1832945345540962 0.0 
19 2 10.194265469082737 0.22114805963604045 0.0 
20 2 10.760613550698444 1.1832945345540962 0.0 
21 2 11.326961632314152 0.22114805963604045 0.0 
22 2 11.89330971392986 1.1832945345540962 0.0 
23 2 12.459657795545569 0.22114805963604045 0.0 
24 2 13.026005877161273 1.1832945345540962 0.0 
25 2 13.592353958776982 0.22114805963604045 0.0 
26 2 14.15870204039269 1.1832945345540962 0.0 
27 2 14.725050122008398 0.22114805963604045 0.0 
28 2 15.291398203624107 1.1832945345540962 0.0 
29 2 15.857746285239811 0.22114805963604045 0.0 
30 2 16.42409436685552 1.1832945345540962 0.0 
31 2 16.990442448471228 0.22114805963604045 0.0 
32 2 17.556790530086936 1.1832945345540962 0.0 
33 2 18.123138611702643 0.22114805963604045 0.0 
34 2 18.68948669331835 1.1832945345540962 0.0 
35 2 19.25583477493406 0.22114805963604045 0.0 
36 2 19.822182856549766 1.1832945345540962 0.0 
37 2 20.388530938165474 0.22114805963604045 0.0 
38 2 20.95487901978118 1.1832945345540962 0.0 
39 2 21.52122710139689 0.22114805963604045 0.0 
40 2 22.087575183012596 1.1832945345540962 0.0 
41 2 5.5197643269662744e-17 2.1414948031711405 0.0 
42 1 0.5670594148062169 3.1002409144945706 0.0 
43 2 1.1326961632314152 2.1414948031711405 0.0 
44 1 1.6998348667690584 3.1002606200074365 0.0 
45 2 2.2653923264628304 2.1414948031711405 0.0 
46 1 2.8325786032393294 3.1002803255203024 0.0 
47 2 3.3980884896942456 2.1414948031711405 0.0 
48 1 3.965320074317274 3.100319736546034 0.0 
49 2 4.530784652925661 2.1414948031711405 0.0 
50 1 5.098016237548689 3.100359147571766 0.0 
51 2 5.663480816157076 2.1414948031711405 0.0 
52 1 6.230689746856839 3.100378853084632 0.0 
53 2 6.796176979388491 2.1414948031711405 0.0 
54 1 7.363340602241725 3.1004182641103637 0.0 
55 2 7.9288731426199055 2.1414948031711405 0.0 
56 1 8.495946149780082 3.1004379696232296 0.0 
57 2 9.061569305851322 2.1414948031711405 0.0 
58 1 9.62855169731844 3.1004379696232296 0.0 
59 2 10.194265469082737 2.1414948031711405 0.0 
60 1 10.761157244856795 3.1004379696232296 0.0 
61 2 11.326961632314152 2.1414948031711405 0.0 
62 1 11.893762792395153 3.1004182641103637 0.0 
63 2 12.459657795545569 2.1414948031711405 0.0 
64 1 13.026390993856774 3.100398558597498 0.0 
65 2 13.592353958776982 2.1414948031711405 0.0 
66 1 14.159019195318393 3.100378853084632 0.0 
67 2 14.725050122008398 2.1414948031711405 0.0 
68 1 15.291692704626545 3.1003394420589 0.0 
69 2 15.857746285239811 2.1414948031711405 0.0 
70 1 16.42438886785796 3.100319736546034 0.0 
71 2 16.990442448471228 2.1414948031711405 0.0 
72 1 17.55710768501264 3.1002803255203024 0.0 
73 2 18.123138611702643 2.1414948031711405 0.0 
74 1 18.689849156090585 3.1002606200074365 0.0 
75 2 19.25583477493406 2.1414948031711405 0.0 
76 1 19.822613281091794 3.1002409144945706 0.0 
77 2 20.388530938165474 2.1414948031711405 0.0 
78 1 20.95540006001627 3.1002212089817043 0.0 
79 2 21.52122710139689 2.1414948031711405 0.0 
80 1 22.08818683894074 3.1002212089817043 0.0 
81 1 0.001327775892640109 4.0589141154203965 0.0 
82 1 0.5684684888332768 5.017587316346222 0.0 
83 1 1.1341890567745543 4.058953526446128 0.0 
84 1 1.701379864335706 5.0176661383976855 0.0 
85 1 2.2670234089378836 4.059012642984726 0.0 
86 1 2.834232339637647 5.017804076987748 0.0 
87 1 3.3998101878623572 4.05909146503619 0.0 
88 1 3.9670417724853855 5.017961721090674 0.0 
89 1 4.532529005017038 4.059189992600519 0.0 
90 1 5.099737935716801 5.018119365193601 0.0 
91 1 5.6652025143251885 4.059268814651983 0.0 
92 1 6.232388791101687 5.018257303783662 0.0 
93 1 6.797830715786809 4.059347636703446 0.0 
94 1 7.364926376870249 5.018395242373725 0.0 
95 1 7.930413609401901 4.059406753242044 0.0 
96 1 8.497441308715548 5.018474064425187 0.0 
97 1 9.062951195170465 4.059446164267776 0.0 
98 1 9.629888278791052 5.018513475450919 0.0 
99 1 10.195466127015761 4.059446164267776 0.0 
100 1 10.762335248866556 5.018513475450919 0.0 
101 1 11.328003712784325 4.059446164267776 0.0 
102 1 11.894759565018795 5.018474064425187 0.0 
103 1 12.460518644629623 4.059406753242044 0.0 
104 1 13.02725184294083 5.018375536860859 0.0 
105 1 13.593101538244715 4.059347636703446 0.0 
106 1 14.159766774786128 5.018257303783662 0.0 
107 1 14.725707085783071 4.059268814651983 0.0 
108 1 15.292372322324484 5.018119365193601 0.0 
109 1 15.858357941167958 4.059189992600519 0.0 
110 1 16.425045831632634 5.017961721090674 0.0 
111 1 16.991076758322638 4.05909146503619 0.0 
112 1 17.557809956633843 5.017823782500614 0.0 
113 1 18.123840883323847 4.059032348497592 0.0 
114 1 18.69066469732811 5.017685843910551 0.0 
115 1 19.256650316171584 4.058953526446128 0.0 
116 1 19.823542091945644 5.017587316346222 0.0 
117 1 20.389505056865854 4.0589141154203965 0.0 
118 1 20.956487448332968 5.017528199807624 0.0 
119 1 21.522382451483384 4.058894409907531 0.0 
120 1 22.08945545864356 5.017528199807624 0.0 
121 1 0.002684784407860894 5.976122578681987 0.0 
122 1 0.5699341976684983 6.93471695755635 0.0 
123 1 1.1356842157100198 5.976240811759182 0.0 
124 1 1.7029679043565564 6.934914012685009 0.0 
125 1 2.2686318374896723 5.9764181613749745 0.0 
126 1 2.835931383882494 6.935209595377997 0.0 
127 1 3.40148657818394 5.9766349220165 0.0 
128 1 3.9687861245767615 6.9355445890967165 0.0 
129 1 4.534273357108414 5.97687138817089 0.0 
130 1 5.101527595654707 6.9358992883283035 0.0 
131 1 5.6669468664165645 5.977127559838148 0.0 
132 1 6.234133143193063 6.936234282047024 0.0 
133 1 6.799507106108392 5.977344320479673 0.0 
134 1 7.3666254211150966 6.936529864740011 0.0 
135 1 7.9319993840304255 5.977521670095465 0.0 
136 1 8.499027083344071 6.936746625381536 0.0 
137 1 9.0644010462594 5.977620197659795 0.0 
138 1 9.631338129879989 6.936845152945867 0.0 
139 1 10.19678005456511 5.977659608685527 0.0 
140 1 10.763603868569374 6.936845152945867 0.0 
141 1 11.329136408947557 5.977620197659795 0.0 
142 1 11.895892261182027 6.936746625381536 0.0 
143 1 12.461515417253265 5.9775019645826 0.0 
144 1 13.028203307717943 6.936549570252878 0.0 
145 1 13.593939733405506 5.977344320479673 0.0 
146 1 14.160627623870184 6.9362736930727555 0.0 
147 1 14.726454665250806 5.977127559838148 0.0 
148 1 15.293165209638746 6.935938699354035 0.0 
149 1 15.859082866712425 5.976891093683757 0.0 
150 1 16.425838718946896 6.935584000122448 0.0 
151 1 16.991801683867106 5.976654627529366 0.0 
152 1 17.558648151794635 6.935249006403729 0.0 
153 1 18.12463377063811 5.976437866887841 0.0 
154 1 18.691570854258696 6.93495342371074 0.0 
155 1 19.25755647310217 5.976260517272048 0.0 
156 1 19.82458417241582 6.934736663069215 0.0 
157 1 20.390547137336025 5.976142284194853 0.0 
158 1 20.95766545234273 6.934618429992019 0.0 
159 1 21.52358310941641 5.976102873169121 0.0 
160 1 22.09076938619291 6.934598724479154 0.0 
161 1 0.0041381015470565935 7.893094575789187 0.0 
162 1 0.5715018491584105 8.851610132612086 0.0 
163 1 1.1372563979845849 7.8933113364307115 0.0 
164 1 1.7046329677165066 8.851964831843672 0.0 
165 1 2.2703082278112547 7.893646330149433 0.0 
166 1 2.8376757359738707 8.85245746966532 0.0 
167 1 3.403253584198581 7.8940798514324815 0.0 
168 1 3.970621092361197 8.853048635051296 0.0 
169 1 4.536085670969584 7.894552783741263 0.0 
170 1 5.103407871285671 8.853679211463005 0.0 
171 1 5.668781834200999 7.8950257160500446 0.0 
172 1 6.2360587266705565 8.854309787874714 0.0 
173 1 6.801342073892826 7.895478942845959 0.0 
174 1 7.368528350669326 8.854861542234959 0.0 
175 1 7.9337437361218015 7.895833642077546 0.0 
176 1 8.500839397205242 8.85527535800514 0.0 
177 1 9.066032128734454 7.896070108231937 0.0 
178 1 9.633014520201572 8.855511824159533 0.0 
179 1 10.198229905654047 7.896148930283401 0.0 