LAMMPS (29 Aug 2024)
Running on 4 partitions of processors
    Step     MaxReplicaForce  MaxAtomForce      GradV0         GradV1         GradVc          EBF            EBR            RDT            RD1            PE1            RD2            PE2            RD3            PE3            RD4            PE4       
         0   229.26196        21515.76       2.9774577      4.4127369      233.11559      0.023301843    0.0224626      1.4763579      0              -3.048332      0.33333333     -3.0250302     0.66666667     -3.0291888     1              -3.0474928     
       100   0.10962984       0.0072174844   3.0965759      0.023671753    0.3852469      0.0017582549   0.0021868709   1.7710708      0              -3.0483467     0.31200919     -3.0465884     0.6111699      -3.0466149     1              -3.0487753     
       125   0.098943216      0.0058171596   3.0930163      0.016113726    0.37597322     0.0017573874   0.0021909251   1.7713743      0              -3.0483424     0.31407087     -3.046585      0.61703537     -3.0466282     1              -3.0487759     
Climbing replica = 2
    Step     MaxReplicaForce  MaxAtomForce      GradV0         GradV1         GradVc          EBF            EBR            RDT            RD1            PE1            RD2            PE2            RD3            PE3            RD4            PE4       
       125   0.37812499       0.12314987     3.0930163      0.016113726    0.37597322     0.0017573874   0.0021909251   1.7713743      0              -3.0483424     0.31407087     -3.046585      0.61703537     -3.0466282     1              -3.0487759     
       225   0.1518873        0.016985029    3.1210177      0.008599658    0.14640247     0.0018342981   0.0022763118   1.7694511      0              -3.0483351     0.39304844     -3.0465008     0.64164079     -3.0466894     1              -3.0487771     
       282   0.096253727      0.0069996982   3.1412664      0.0068214347   0.092232749    0.0018428511   0.0022865029   1.7684453      0              -3.0483338     0.41341929     -3.046491      0.65590372     -3.0467302     1              -3.0487775     
