LAMMPS (29 Aug 2024)
Processor partition = 1
Lattice spacing in x,y,z = 1.1326962 1.9618873 1.1326962
Reading data file ...
  orthogonal box = (0 0.21918579 -0.28317404) to (22.653923 19.932852 0.28317404)
  1 by 1 by 1 MPI processor grid
  reading atoms ...
  420 atoms
  reading velocities ...
  420 velocities
  read_data CPU = 0.005 seconds
60 atoms in group lower
360 atoms in group mobile
Setting atom values ...
  60 settings made for type
21 atoms in group nebatoms
Setting atom values ...
  21 settings made for type
399 atoms in group nonneb
Switching to 'neigh_modify every 1 delay 0 check yes' setting during minimization
Generated 0 of 3 mixed pair_coeff terms from geometric mixing rule
Neighbor list info ...
  update: every = 1 steps, delay = 0 steps, check = yes
  max neighbors/atom: 2000, page size: 100000
  master list distance cutoff = 2.8
  ghost atom cutoff = 2.8
  binsize = 1.4, bins = 17 15 1
  1 neighbor lists, perpetual/occasional/extra = 1 0 0
  (1) pair lj/cut, perpetual
      attributes: half, newton on
      pair build: half/bin/atomonly/newton
      stencil: half/bin/2d
      bin: standard
Setting up quickmin style minimization ...
  Unit style    : lj
  Current step  : 0
Per MPI rank memory allocation (min/avg/max) = 2.926 | 2.926 | 2.926 Mbytes
   Step          Temp          E_pair         E_mol          TotEng         Press          Volume    
         0   0             -3.0250302      0             -3.0250302     -0.39640413     450.88982    
       100   8.8941926e-08 -3.0465884      0             -3.0465883     -0.54261983     454.21654    
       125   1.0112259e-07 -3.046585       0             -3.0465849     -0.54209442     454.21654    
Loop time of 0.0138928 on 1 procs for 125 steps with 420 atoms

93.6% CPU use with 1 MPI tasks x no OpenMP threads

Minimization stats:
  Stopping criterion = force tolerance
  Energy initial, next-to-last, final = 
     -3.02503017771982  -3.04658506497928  -3.04658498003292
  Force two-norm initial, final = 229.26196 0.05273126
  Force max component initial, final = 146.68251 0.023529806
  Final line search alpha, max atom move = 0 0
  Iterations, force evaluations = 125 125

MPI task timing breakdown:
Section |  min time  |  avg time  |  max time  |%varavg| %total
---------------------------------------------------------------
Pair    | 0.0075214  | 0.0075214  | 0.0075214  |   0.0 | 54.14
Neigh   | 4.8834e-05 | 4.8834e-05 | 4.8834e-05 |   0.0 |  0.35
Comm    | 5.0582e-05 | 5.0582e-05 | 5.0582e-05 |   0.0 |  0.36
Output  | 0.0025023  | 0.0025023  | 0.0025023  |   0.0 | 18.01
Modify  | 0.0021455  | 0.0021455  | 0.0021455  |   0.0 | 15.44
Other   |            | 0.001624   |            |       | 11.69

Nlocal:            420 ave         420 max         420 min
Histogram: 1 0 0 0 0 0 0 0 0 0
Nghost:             95 ave          95 max          95 min
Histogram: 1 0 0 0 0 0 0 0 0 0
Neighs:           3575 ave        3575 max        3575 min
Histogram: 1 0 0 0 0 0 0 0 0 0

Total # of neighbors = 3575
Ave neighs/atom = 8.5119048
Neighbor list builds = 1
Dangerous builds = 0
Switching to 'neigh_modify every 1 delay 0 check yes' setting during minimization
Setting up quickmin style minimization ...
  Unit style    : lj
  Current step  : 125
Per MPI rank memory allocation (min/avg/max) = 4.942 | 4.942 | 4.942 Mbytes
   Step          Temp          E_pair         E_mol          TotEng         Press          Volume    
       125   0             -3.046585       0             -3.046585      -0.54040344     455.63791    
       200   1.4520672e-06 -3.0465102      0             -3.0465087     -0.53812314     455.63791    
       282   1.944658e-07  -3.046491       0             -3.0464908     -0.53479817     457.31718    
Loop time of 0.0177462 on 1 procs for 157 steps with 420 atoms

92.7% CPU use with 1 MPI tasks x no OpenMP threads

Minimization stats:
  Stopping criterion = force tolerance
  Energy initial, next-to-last, final = 
     -3.04658498003292  -3.04649102288703  -3.04649095683455
  Force two-norm initial, final = 0.37812499 0.096253727
  Force max component initial, final = 0.35092716 0.083664199
  Final line search alpha, max atom move = 0 0
  Iterations, force evaluations = 157 157

MPI task timing breakdown:
Section |  min time  |  avg time  |  max time  |%varavg| %total
---------------------------------------------------------------
Pair    | 0.0082293  | 0.0082293  | 0.0082293  |   0.0 | 46.37
Neigh   | 4.5167e-05 | 4.5167e-05 | 4.5167e-05 |   0.0 |  0.25
Comm    | 5.2748e-05 | 5.2748e-05 | 5.2748e-05 |   0.0 |  0.30
Output  | 0.0035545  | 0.0035545  | 0.0035545  |   0.0 | 20.03
Modify  | 0.0034617  | 0.0034617  | 0.0034617  |   0.0 | 19.51
Other   |            | 0.002403   |            |       | 13.54

Nlocal:            420 ave         420 max         420 min
Histogram: 1 0 0 0 0 0 0 0 0 0
Nghost:             95 ave          95 max          95 min
Histogram: 1 0 0 0 0 0 0 0 0 0
Neighs:           3575 ave        3575 max        3575 min
Histogram: 1 0 0 0 0 0 0 0 0 0

Total # of neighbors = 3575
Ave neighs/atom = 8.5119048
Neighbor list builds = 1
Dangerous builds = 0

CITE-CITE-CITE-CITE-CITE-CITE-CITE-CITE-CITE-CITE-CITE-CITE-CITE

Your simulation uses code contributions which should be cited:
- Type Label Framework: https://doi.org/10.1021/acs.jpcb.3c08419
The log file lists these citations in BibTeX format.

CITE-CITE-CITE-CITE-CITE-CITE-CITE-CITE-CITE-CITE-CITE-CITE-CITE

Total wall time: 0:00:00
