ITEM: TIMESTEP
0
ITEM: NUMBER OF ATOMS
7
ITEM: BOX BOUNDS pp pp pp
0.0000000000000000e+00 2.1724000000000000e+01
0.0000000000000000e+00 2.1724000000000000e+01
0.0000000000000000e+00 2.1724000000000000e+01
ITEM: ATOMS id type x y z
174 1 6.99014 9.3143 9.74449
175 1 9.28532 7.02435 9.74579
301 1 6.99233 7.02328 12.036
304 1 8.84806 8.87948 11.5992
306 1 10.6354 8.29887 13.3856
331 1 8.2639 10.6624 13.3847
337 1 10.634 10.6639 11.0164
ITEM: TIMESTEP
77
ITEM: NUMBER OF ATOMS
7
ITEM: BOX BOUNDS pp pp pp
0.0000000000000000e+00 2.1724000000000000e+01
0.0000000000000000e+00 2.1724000000000000e+01
0.0000000000000000e+00 2.1724000000000000e+01
ITEM: ATOMS id type x y z
174 1 7.0068 9.33203 9.75923
175 1 9.30424 7.03468 9.75947
301 1 7.00703 7.03457 12.0567
304 1 8.85539 8.88333 11.6079
306 1 10.6177 8.25172 13.3704
331 1 8.22364 10.6456 13.3702
337 1 10.6176 10.6458 10.9761
ITEM: TIMESTEP
132
ITEM: NUMBER OF ATOMS
7
ITEM: BOX BOUNDS pp pp pp
0.0000000000000000e+00 2.1724000000000000e+01
0.0000000000000000e+00 2.1724000000000000e+01
0.0000000000000000e+00 2.1724000000000000e+01
ITEM: ATOMS id type x y z
174 1 7.01375 9.31739 9.76626
175 1 9.28957 7.04157 9.76631
301 1 7.01379 7.04154 12.0421
304 1 8.8828 8.91063 11.6353
306 1 10.6261 8.23532 13.3787
331 1 8.20748 10.654 13.3787
337 1 10.6261 10.654 10.96
