ITEM: TIMESTEP
0
ITEM: NUMBER OF ATOMS
7
ITEM: BOX BOUNDS pp pp pp
0.0000000000000000e+00 2.1724000000000000e+01
0.0000000000000000e+00 2.1724000000000000e+01
0.0000000000000000e+00 2.1724000000000000e+01
ITEM: ATOMS id type x y z
174 1 6.86775 9.49992 9.62069
175 1 9.46441 6.90709 9.62317
301 1 6.87004 6.90631 12.2171
304 1 8.44266 8.48312 11.1965
306 1 10.5121 8.48457 13.2624
331 1 8.44223 10.5435 13.2633
337 1 10.5124 10.5437 11.1959
ITEM: TIMESTEP
77
ITEM: NUMBER OF ATOMS
7
ITEM: BOX BOUNDS pp pp pp
0.0000000000000000e+00 2.1724000000000000e+01
0.0000000000000000e+00 2.1724000000000000e+01
0.0000000000000000e+00 2.1724000000000000e+01
ITEM: ATOMS id type x y z
174 1 6.86864 9.49166 9.62113
175 1 9.46386 6.89678 9.62138
301 1 6.86889 6.89666 12.2164
304 1 8.44314 8.47126 11.1957
306 1 10.5086 8.47134 13.2612
331 1 8.44311 10.5365 13.261
337 1 10.5085 10.5366 11.1957
ITEM: TIMESTEP
132
ITEM: NUMBER OF ATOMS
7
ITEM: BOX BOUNDS pp pp pp
0.0000000000000000e+00 2.1724000000000000e+01
0.0000000000000000e+00 2.1724000000000000e+01
0.0000000000000000e+00 2.1724000000000000e+01
ITEM: ATOMS id type x y z
174 1 6.86841 9.49147 9.62095
175 1 9.4636 6.89633 9.62099
301 1 6.86846 6.89631 12.2161
304 1 8.44281 8.47073 11.1954
306 1 10.5082 8.47075 13.2608
331 1 8.44281 10.5361 13.2607
337 1 10.5082 10.5361 11.1954
