ITEM: TIMESTEP
0
ITEM: NUMBER OF ATOMS
7
ITEM: BOX BOUNDS pp pp pp
0.0000000000000000e+00 2.1724000000000000e+01
0.0000000000000000e+00 2.1724000000000000e+01
0.0000000000000000e+00 2.1724000000000000e+01
ITEM: ATOMS id type x y z
174 1 6.92895 9.40711 9.68259
175 1 9.37486 6.96572 9.68448
301 1 6.93119 6.96479 12.1266
304 1 8.64536 8.6813 11.3979
306 1 10.5738 8.39172 13.324
331 1 8.35306 10.603 13.324
337 1 10.5732 10.6038 11.1061
ITEM: TIMESTEP
77
ITEM: NUMBER OF ATOMS
7
ITEM: BOX BOUNDS pp pp pp
0.0000000000000000e+00 2.1724000000000000e+01
0.0000000000000000e+00 2.1724000000000000e+01
0.0000000000000000e+00 2.1724000000000000e+01
ITEM: ATOMS id type x y z
174 1 6.94649 9.44296 9.69892
175 1 9.41515 6.9744 9.6992
301 1 6.94676 6.97428 12.1676
304 1 8.65016 8.67813 11.4026
306 1 10.5644 8.3648 13.3171
331 1 8.33669 10.5923 13.3169
337 1 10.5643 10.5924 11.0892
ITEM: TIMESTEP
132
ITEM: NUMBER OF ATOMS
7
ITEM: BOX BOUNDS pp pp pp
0.0000000000000000e+00 2.1724000000000000e+01
0.0000000000000000e+00 2.1724000000000000e+01
0.0000000000000000e+00 2.1724000000000000e+01
ITEM: ATOMS id type x y z
174 1 6.95443 9.43129 9.70694
175 1 9.40347 6.98225 9.70699
301 1 6.95448 6.98222 12.156
304 1 8.67496 8.70279 11.4275
306 1 10.5701 8.34969 13.3227
331 1 8.32184 10.598 13.3226
337 1 10.5701 10.598 11.0744
