ITEM: TIMESTEP
0
ITEM: NUMBER OF ATOMS
7
ITEM: BOX BOUNDS pp pp pp
0.0000000000000000e+00 2.1724000000000000e+01
0.0000000000000000e+00 2.1724000000000000e+01
0.0000000000000000e+00 2.1724000000000000e+01
ITEM: ATOMS id type x y z
174 1 7.05134 9.22149 9.8064
175 1 9.19577 7.08298 9.8071
301 1 7.05348 7.08176 11.9455
304 1 9.05077 9.07766 11.8006
306 1 10.6971 8.20602 13.4472
331 1 8.17473 10.7219 13.4455
337 1 10.6948 10.7239 10.9266
ITEM: TIMESTEP
77
ITEM: NUMBER OF ATOMS
7
ITEM: BOX BOUNDS pp pp pp
0.0000000000000000e+00 2.1724000000000000e+01
0.0000000000000000e+00 2.1724000000000000e+01
0.0000000000000000e+00 2.1724000000000000e+01
ITEM: ATOMS id type x y z
174 1 7.05619 9.21647 9.80863
175 1 9.18872 7.08407 9.80883
301 1 7.05638 7.08397 11.9412
304 1 9.0583 9.0862 11.8108
306 1 10.6834 8.16422 13.436
331 1 8.13611 10.7113 13.4358
337 1 10.6833 10.7114 10.8886
ITEM: TIMESTEP
132
ITEM: NUMBER OF ATOMS
7
ITEM: BOX BOUNDS pp pp pp
0.0000000000000000e+00 2.1724000000000000e+01
0.0000000000000000e+00 2.1724000000000000e+01
0.0000000000000000e+00 2.1724000000000000e+01
ITEM: ATOMS id type x y z
174 1 7.05824 9.2125 9.81075
175 1 9.18469 7.08606 9.81079
301 1 7.05828 7.08604 11.9372
304 1 9.06592 9.09375 11.8185
306 1 10.6858 8.16124 13.4383
331 1 8.13338 10.7136 13.4383
337 1 10.6857 10.7136 10.8859
