ITEM: TIMESTEP
0
ITEM: NUMBER OF ATOMS
560
ITEM: BOX BOUNDS
0.0 21.724
0.0 21.724
0.0 21.724
ITEM: ATOMS id type x y z 
1 1 7.08193 9.17509 9.83735 
2 1 9.15099 7.1123 9.83776 
3 1 7.08405 7.11101 11.9002 
4 1 9.15212 9.17675 11.9013 
5 1 10.7279 8.1596 13.478 
6 1 8.13015 10.7516 13.4758 
7 1 10.7252 10.754 10.8817 
8 1 7.05134 9.22149 9.8064 
9 1 9.19577 7.08298 9.8071 
10 1 7.05348 7.08176 11.9455 
11 1 9.05077 9.07766 11.8006 
12 1 10.6971 8.20602 13.4472 
13 1 8.17473 10.7219 13.4455 
14 1 10.6948 10.7239 10.9266 
15 1 7.02074 9.2679 9.77545 
16 1 9.24054 7.05367 9.77645 
17 1 7.02291 7.05252 11.9908 
18 1 8.94942 8.97857 11.6999 
19 1 10.6663 8.25245 13.4164 
20 1 8.21932 10.6922 13.4151 
21 1 10.6644 10.6939 10.9715 
22 1 6.99014 9.3143 9.74449 
23 1 9.28532 7.02435 9.74579 
24 1 6.99233 7.02328 12.036 
25 1 8.84806 8.87948 11.5992 
26 1 10.6354 8.29887 13.3856 
27 1 8.2639 10.6624 13.3847 
28 1 10.634 10.6639 11.0164 
29 1 6.95954 9.36071 9.71354 
30 1 9.33009 6.99504 9.71514 
31 1 6.96176 6.99404 12.0813 
32 1 8.74671 8.78039 11.4986 
33 1 10.6046 8.3453 13.3548 
34 1 8.30848 10.6327 13.3544 
35 1 10.6036 10.6338 11.0612 
36 1 6.92895 9.40711 9.68259 
37 1 9.37486 6.96572 9.68448 
38 1 6.93119 6.96479 12.1266 
39 1 8.64536 8.6813 11.3979 
40 1 10.5738 8.39172 13.324 
41 1 8.35306 10.603 13.324 
42 1 10.5732 10.6038 11.1061 
43 1 6.89835 9.45352 9.65164 
44 1 9.41964 6.93641 9.65383 
45 1 6.90061 6.93555 12.1718 
46 1 8.54401 8.58221 11.2972 
47 1 10.5429 8.43815 13.2932 
48 1 8.39765 10.5732 13.2937 
49 1 10.5428 10.5737 11.151 
50 1 6.86775 9.49992 9.62069 
51 1 9.46441 6.90709 9.62317 
52 1 6.87004 6.90631 12.2171 
53 1 8.44266 8.48312 11.1965 
54 1 10.5121 8.48457 13.2624 
55 1 8.44223 10.5435 13.2633 
56 1 10.5124 10.5437 11.1959 
57 2 21.6973 21.721 0.00688225 
58 2 21.6969 2.71493 2.72619 
59 2 2.68745 21.7205 2.72477 
60 2 2.69088 2.71495 0.00630037 
61 2 1.33124 1.35658 1.36548 
62 2 1.33187 4.07362 4.0858 
63 2 4.0455 1.35692 4.08394 
64 2 4.0483 4.07206 1.36949 
65 2 5.40358 21.724 0.00751835 
66 2 5.40732 2.71783 2.73233 
67 2 8.11877 0.00678071 2.73421 
68 2 8.11782 2.71709 0.0091092 
69 2 6.76084 1.35864 1.36924 
70 2 6.76167 4.07952 4.09599 
71 2 9.46794 1.37418 4.10031 
72 2 9.47402 4.07461 1.37142 
73 2 10.8297 0.0021368 0.00990572 
74 2 10.8296 2.72181 2.73604 
75 2 13.5441 0.00241007 2.72871 
76 2 13.5457 2.71794 0.0107972 
77 2 12.1852 1.36252 1.37221 
78 2 12.1758 4.08487 4.10209 
79 2 14.8989 1.36373 4.08939 
80 2 14.9 4.07789 1.37327 
81 2 16.263 21.7239 0.00874342 
82 2 16.2605 2.71804 2.72856 
83 2 18.9788 21.7229 2.72683 
84 2 18.9815 2.71514 0.00829986 
85 2 17.6208 1.35907 1.36846 
86 2 17.6157 4.07805 4.08923 
87 2 20.3365 1.35835 4.08599 
88 2 20.3386 4.07428 1.36745 
89 2 21.7 5.42945 0.00718387 
90 2 21.7026 8.14432 2.73181 
91 2 2.69281 5.43167 2.73109 
92 2 2.69029 8.14175 0.00552514 
93 2 1.33372 6.78625 1.36899 
94 2 1.34647 9.49239 4.09852 
95 2 4.05248 6.78736 4.09537 
96 2 4.0482 9.49761 1.36666 
97 2 5.40397 5.42992 0.00741903 
98 2 5.40477 8.14158 2.72905 
99 2 8.11653 5.43192 2.73081 
100 2 8.11626 8.14489 0.00694921 
101 2 6.76113 6.78632 1.36769 
102 2 6.76207 9.49594 4.08983 
103 2 9.4689 6.79126 4.09125 
104 2 9.47293 9.5019 1.36743 
105 2 10.8308 5.43189 0.0104455 
106 2 10.8266 8.1452 2.73044 
107 2 13.5383 5.43272 2.73627 
108 2 13.5427 8.1464 0.0102018 
109 2 12.1862 6.78937 1.37164 
110 2 12.1772 9.50034 4.09737 
111 2 14.884 6.79407 4.10295 
112 2 14.8988 9.50238 1.37236 
113 2 16.2604 5.43145 0.0103244 
114 2 16.2509 8.1421 2.73527 
115 2 18.9779 5.4314 2.7278 
116 2 18.9779 8.14298 0.00836771 
117 2 17.6158 6.78987 1.37184 
118 2 17.6146 9.50084 4.08753 
119 2 20.3395 6.78711 4.08726 
120 2 20.3392 9.49817 1.36886 
121 2 21.6965 10.8534 0.00552137 
122 2 21.6956 13.5679 2.72487 
123 2 2.69262 10.8521 2.73029 
124 2 2.68784 13.5676 0.00340759 
125 2 1.33208 12.209 1.3675 
126 2 1.333 14.9221 4.0855 
127 2 4.05544 12.2001 4.09579 
128 2 4.04623 14.9239 1.3653 
129 2 5.40228 10.8559 0.00409466 
130 2 5.40224 13.5642 2.72943 
131 2 8.11471 10.8546 2.72912 
132 2 8.1139 13.5719 0.00565944 
133 2 6.75949 12.2112 1.36619 
134 2 6.76397 14.9106 4.09673 
135 2 9.46892 12.208 4.09475 
136 2 9.47098 14.929 1.36714 
137 2 10.8283 10.8612 0.00760532 
138 2 10.8238 13.5699 2.73128 
139 2 13.5374 10.8557 2.73351 
140 2 13.5414 13.5749 0.00778613 
141 2 12.1854 12.2164 1.37034 
142 2 12.1842 14.9304 4.08549 
143 2 14.8981 12.2162 4.08619 
144 2 14.9011 14.9329 1.36669 
145 2 16.2566 10.8583 0.00912664 
146 2 16.2584 13.5735 2.726 
147 2 18.977 10.8557 2.72685 
148 2 18.9756 13.5711 0.00736887 
149 2 17.6175 12.2145 1.36759 
150 2 17.6184 14.9314 4.08396 
151 2 20.3398 12.2107 4.08609 
152 2 20.3358 14.9281 1.36662 
153 2 21.6945 16.286 0.00613419 
154 2 21.6941 19.0033 2.72404 
155 2 2.68717 16.283 2.72309 
156 2 2.68705 19.0032 0.00638053 
157 2 1.32854 17.6442 1.36533 
158 2 1.32868 20.3616 4.08288 
159 2 4.04667 17.639 4.08395 
160 2 4.04538 20.3623 1.36487 
161 2 5.40179 16.2848 0.00451572 
162 2 5.4019 19.0026 2.7254 
163 2 8.11177 16.2805 2.731 
164 2 8.11563 19.006 0.00690771 
165 2 6.75924 17.643 1.36592 
166 2 6.75879 20.3649 4.08426 
167 2 9.47178 17.6438 4.08453 
168 2 9.47053 20.368 1.36948 
169 2 10.8277 16.2893 0.00681783 
170 2 10.8285 19.0079 2.72794 
171 2 13.5425 16.2906 2.72663 
172 2 13.5452 19.008 0.00777545 
173 2 12.1857 17.6498 1.36618 
174 2 12.1839 20.37 4.08797 
175 2 14.9013 17.65 4.08564 
176 2 14.9026 20.367 1.36811 
177 2 16.2601 16.2899 0.00681262 
178 2 16.2611 19.0077 2.72704 
179 2 18.9769 16.288 2.72469 
180 2 18.9788 19.0049 0.00693457 
181 2 17.6191 17.6482 1.36676 
182 2 17.6188 20.3671 4.08685 
183 2 20.3354 17.6459 4.08355 
184 2 20.3367 20.3638 1.36629 
185 2 21.6963 21.7223 5.44234 
186 2 21.7026 2.71923 8.16141 
187 2 2.69429 0.00395357 8.15739 
188 2 2.69017 2.71594 5.44387 
189 2 1.33139 1.35796 6.80056 
190 2 1.3433 4.07984 9.51578 
191 2 4.05506 1.36844 9.51219 
192 2 4.0495 4.07474 6.8023 
193 2 5.4063 0.00391323 5.4437 
194 2 5.41301 2.73247 8.16264 
195 2 8.11754 0.0048164 8.15678 
196 2 8.12566 2.74674 5.47217 
197 2 6.76238 1.36859 6.80351 
198 2 6.76999 4.10096 9.52033 
199 2 9.47168 1.36658 9.5148 
200 2 9.45163 4.13463 6.85932 
201 2 10.8285 0.00935513 5.44821 
202 2 10.8178 2.74444 8.1711 
203 2 13.5387 0.0126815 8.16071 
204 2 13.5389 2.72397 5.44928 
205 2 12.1764 1.3771 6.81081 
206 2 12.1281 4.13699 9.53602 
207 2 14.8851 1.38003 9.52191 
208 2 14.8855 4.08693 6.81166 
209 2 16.2595 0.00399757 5.44626 
210 2 16.2518 2.72657 8.16137 
211 2 18.9783 0.00327583 8.16025 
212 2 18.9765 2.71752 5.44557 
213 2 17.6148 1.36432 6.80712 
214 2 17.6174 4.07813 9.51778 
215 2 20.3407 1.36139 9.51713 
216 2 20.339 4.07435 6.80343 
217 2 21.7012 5.43213 5.44717 
218 2 21.7011 8.14251 8.15884 
219 2 2.70668 5.43691 8.16371 
220 2 2.71827 8.1499 5.47183 
221 2 1.34212 6.78743 6.80627 
222 2 1.33802 9.49621 9.51622 
223 2 4.07439 6.79553 9.51986 
224 2 4.10387 9.47846 6.85702 
225 2 5.41065 5.43712 5.45996 
226 2 5.50787 8.1566 8.26146 
227 2 8.12773 5.53838 8.26254 
228 2 8.11472 8.14386 5.45426 
229 2 6.76703 6.79654 6.82741 
230 2 9.46134 9.49256 6.82829 
231 2 10.8159 5.44562 5.46774 
232 2 10.7235 8.13534 8.26306 
233 2 13.5199 5.44746 8.1719 
234 2 13.5109 8.13761 5.47421 
235 2 12.1261 6.81054 6.86049 
236 2 12.1597 9.49321 9.52355 
237 2 14.8977 6.79366 9.51861 
238 2 14.8886 9.50014 6.80676 
239 2 16.2515 5.43385 5.4493 
240 2 16.2561 8.14731 8.15889 
241 2 18.9775 5.43289 8.15927 
242 2 18.9774 8.1444 5.44367 
243 2 17.616 6.78997 6.80227 
244 2 17.6186 9.50317 9.5132 
245 2 20.3401 6.78776 9.51614 
246 2 20.34 9.49876 6.80132 
247 2 21.7035 10.8537 5.44535 
248 2 21.7048 13.5655 8.15397 
249 2 2.71192 10.8424 8.16753 
250 2 2.69423 13.5619 5.44437 
251 2 1.34639 12.2016 6.8069 
252 2 1.34763 14.912 9.51486 
253 2 4.10456 12.1532 9.53125 
254 2 4.05592 14.9098 6.80622 
255 2 5.41445 10.842 5.46438 
256 2 5.41575 13.5454 8.16777 
257 2 8.10091 10.751 8.26265 
258 2 8.10552 13.5398 5.47217 
259 2 6.77821 12.1529 6.85668 
260 2 6.76286 14.9205 9.51572 
261 2 9.46241 12.1849 9.52155 
262 2 9.46937 14.9173 6.80528 
263 2 10.8183 10.8508 5.4611 
264 2 10.8193 13.5543 8.16527 
265 2 13.5252 10.8507 8.16484 
266 2 13.5391 13.5719 5.44575 
267 2 12.1812 12.2119 6.80374 
268 2 12.1779 14.919 9.5158 
269 2 14.8896 12.2092 9.51429 
270 2 14.8985 14.9313 6.80087 
271 2 16.2513 10.8551 5.44573 
272 2 16.2524 13.5697 8.15862 
273 2 18.9784 10.8584 8.15474 
274 2 18.9771 13.5705 5.44141 
275 2 17.614 12.214 6.7995 
276 2 17.6151 14.93 9.51117 
277 2 20.3411 12.2131 9.51153 
278 2 20.3398 14.9263 6.79991 
279 2 21.6961 16.2848 5.43973 
280 2 21.6985 19.0052 8.15416 
281 2 2.69459 16.2776 8.15352 
282 2 2.68891 19.0023 5.43999 
283 2 1.3328 17.641 6.79873 
284 2 1.33361 20.3672 9.51107 
285 2 4.04885 17.6409 9.51052 
286 2 4.04701 20.3649 6.79707 
287 2 5.40336 16.2762 5.44415 
288 2 5.4038 19.0026 8.15315 
289 2 8.11627 16.2823 8.15877 
290 2 8.1153 19.0044 5.44213 
291 2 6.76023 17.64 6.79823 
292 2 6.76076 20.3655 9.50923 
293 2 9.47286 17.6454 9.51312 
294 2 9.47184 20.3672 6.79916 
295 2 10.825 16.2835 5.44687 
296 2 10.8291 19.0087 8.15805 
297 2 13.5385 16.2842 8.16206 
298 2 13.5429 19.0099 5.44561 
299 2 12.1852 17.6461 6.80172 
300 2 12.1847 20.3719 9.51476 
301 2 14.8986 17.6473 9.5147 
302 2 14.8982 20.3725 6.80519 
303 2 16.2592 16.2897 5.44291 
304 2 16.2578 19.0097 8.15972 
305 2 18.9777 16.2874 8.15444 
306 2 18.978 19.0065 5.44246 
307 2 17.6175 17.6499 6.80062 
308 2 17.6151 20.3715 9.51738 
309 2 20.3393 17.6454 9.51155 
310 2 20.3361 20.3659 6.80063 
311 2 21.7065 0.00732585 10.8714 
312 2 21.7088 2.72122 13.5823 
313 2 2.69821 0.00700299 13.5796 
314 2 2.72194 2.74518 10.8758 
315 2 1.34993 1.37407 12.2201 
316 2 1.35134 4.08396 14.9285 
317 2 4.06163 1.37508 14.9258 
318 2 4.10773 4.13117 12.2034 
319 2 5.40823 0.00447746 10.8672 
320 2 5.42103 2.74195 13.5673 
321 2 8.1185 0.00758281 13.5805 
322 2 8.1202 2.73038 10.868 
323 2 6.76651 1.36707 12.2199 
324 2 6.785 4.13445 14.878 
325 2 9.47353 1.37472 14.9325 
326 2 9.46625 4.10506 12.2168 
327 2 10.8288 0.00874897 10.8712 
328 2 10.8245 2.74064 13.5767 
329 2 13.5416 0.0120134 13.5825 
330 2 13.5148 2.75363 10.8646 
331 2 12.1812 1.3753 12.2259 
332 2 12.1868 4.08265 14.9399 
333 2 14.9028 1.36433 14.9426 
334 2 14.8927 4.08568 12.2288 
335 2 16.2527 0.0126913 10.8707 
336 2 16.2565 2.72472 13.5845 
337 2 18.9823 0.00313668 13.5833 
338 2 18.9793 2.71979 10.8735 
339 2 17.6177 1.36392 12.2306 
340 2 17.6197 4.07746 14.944 
341 2 20.3456 1.36164 14.9386 
342 2 20.3425 4.07559 12.2299 
343 2 21.7025 5.432 10.8716 
344 2 21.7026 8.14397 13.5819 
345 2 2.71715 5.44328 13.568 
346 2 2.70151 8.14256 10.8682 
347 2 1.33988 6.79042 12.2236 
348 2 1.34417 9.49853 14.9333 
349 2 4.10889 6.80714 14.8792 
350 2 4.07426 9.49104 12.2155 
351 2 5.5091 5.53545 10.8793 
352 2 5.51018 8.13157 13.475 
353 2 8.10772 5.5395 13.4765 
354 2 20.3398 20.3644 17.6521 
355 2 6.77154 9.49008 14.91 
356 2 9.46838 6.79837 14.9104 
357 2 10.7266 5.54155 10.86 
358 2 13.5295 5.44484 13.5787 
359 2 13.5347 8.14689 10.8719 
360 2 12.1623 6.80019 12.2199 
361 2 12.1315 9.48246 14.8822 
362 2 14.8938 6.79402 14.9369 
363 2 14.8974 9.50079 12.2246 
364 2 16.2587 5.43707 10.8739 
365 2 16.259 8.14862 13.5839 
366 2 18.981 5.43302 13.5863 
367 2 18.9795 8.14668 10.8708 
368 2 17.6209 6.7916 12.2299 
369 2 17.62 9.5038 14.9412 
370 2 20.3435 6.78869 14.9419 
371 2 20.341 9.50168 12.2272 
372 2 21.7014 10.8555 10.8687 
373 2 21.7024 13.5686 13.5765 
374 2 2.70678 10.849 13.5733 
375 2 2.7197 13.54 10.8587 
376 2 1.34303 12.2076 12.2224 
377 2 1.33267 14.9282 14.9361 
378 2 4.0504 12.2096 14.9356 
379 2 4.05307 14.9168 12.2226 
380 2 5.50789 10.7512 10.856 
381 2 5.41154 13.5529 13.5736 
382 2 8.11592 13.5582 10.8694 
383 2 6.76808 12.1846 12.2161 
384 2 6.76215 14.9179 14.9324 
385 2 9.45316 12.1554 14.8802 
386 2 9.46898 14.9221 12.2229 
387 2 10.8162 13.5475 13.5693 
388 2 13.5206 10.8469 13.5699 
389 2 13.5132 13.5429 10.8772 
390 2 12.1282 12.1574 12.2057 
391 2 12.1757 14.9148 14.928 
392 2 14.8868 12.2069 14.9288 
393 2 14.8851 14.9157 12.2195 
394 2 16.2563 10.8581 10.8689 
395 2 16.2527 13.5687 13.5794 
396 2 18.9791 10.8596 13.5816 
397 2 18.9788 13.5727 10.8651 
398 2 17.6183 12.2159 12.223 
399 2 17.6163 14.9291 14.9344 
400 2 20.3416 12.2144 14.9377 
401 2 20.3411 14.9286 12.2211 
402 2 21.7044 16.2806 10.8619 
403 2 21.6999 19.0058 13.5775 
404 2 2.69324 16.282 13.5769 
405 2 2.69188 19.0045 10.865 
406 2 1.33422 17.6433 12.2211 
407 2 1.33612 20.3675 14.9341 
408 2 4.04886 17.6434 14.9365 
409 2 4.05001 20.3666 12.2212 
410 2 5.40607 16.2821 10.8688 
411 2 5.40533 19.0066 13.5809 
412 2 8.11736 16.2845 13.5819 
413 2 8.11703 19.0068 10.8693 
414 2 6.76111 17.6447 12.225 
415 2 6.76207 20.3692 14.9366 
416 2 9.47304 17.6473 14.9387 
417 2 9.47354 20.3695 12.2252 
418 2 10.8271 16.285 10.8713 
419 2 10.8292 19.0102 13.5842 
420 2 13.5383 16.282 13.5812 
421 2 13.5421 19.0101 10.8716 
422 2 12.1841 17.6479 12.2269 
423 2 12.1861 20.373 14.9394 
424 2 14.8982 17.6461 14.9364 
425 2 14.8992 20.3728 12.228 
426 2 16.2518 16.2827 10.871 
427 2 16.2583 19.0083 13.5815 
428 2 18.9782 16.2873 13.5769 
429 2 18.9786 19.0082 10.8682 
430 2 17.6153 17.6468 12.2225 
431 2 17.6207 20.3663 14.9383 
432 2 20.3377 17.6475 14.934 
433 2 20.3416 20.3689 12.2232 
434 2 21.7014 21.7239 16.295 
435 2 21.7014 2.71431 19.012 
436 2 2.69159 8.71663e-06 19.0118 
437 2 2.69954 2.72113 16.29 
438 2 1.33851 1.36053 17.6499 
439 2 1.3362 4.07456 20.3678 
440 2 4.05083 1.36043 20.3678 
441 2 4.06164 4.08465 17.6372 
442 2 5.40698 0.00932569 16.2908 
443 2 5.40721 2.72192 19.005 
444 2 8.1154 0.00995443 19.0071 
445 2 8.11137 2.75061 16.2674 
446 2 6.76799 1.37634 17.638 
447 2 6.7628 4.07529 20.3702 
448 2 9.47505 1.36179 20.371 
449 2 9.47493 4.08365 17.6443 
450 2 10.8277 0.0107251 16.2948 
451 2 10.8281 2.72277 19.01 
452 2 13.5455 0.00214913 19.0148 
453 2 13.5449 2.72295 16.2992 
454 2 12.1878 1.36344 17.6562 
455 2 12.1881 4.07589 20.3727 
456 2 14.9047 1.35934 20.3749 
457 2 14.9043 4.07745 17.6584 
458 2 16.2626 0.00191213 16.2979 
459 2 16.2639 2.71687 19.0155 
460 2 18.9822 21.7222 19.0132 
461 2 18.9837 2.71746 16.2981 
462 2 17.6239 1.3586 17.6568 
463 2 17.6224 4.07461 20.3749 
464 2 20.3406 1.35716 20.3719 
465 2 20.3457 4.07564 17.6544 
466 2 21.7084 5.43039 16.2922 
467 2 21.7058 8.13931 19.0051 
468 2 2.69691 5.43009 19.0037 
469 2 2.7222 8.13429 16.2646 
470 2 1.35044 6.79151 17.6378 
471 2 1.33342 9.4986 20.3678 
472 2 4.0493 6.78664 20.3681 
473 2 4.05471 9.49804 17.6411 
474 2 5.42134 5.44438 16.2707 
475 2 5.40641 8.14347 19.0071 
476 2 8.11917 5.43378 19.0101 
477 2 8.12061 8.14423 16.2836 
478 2 6.76741 6.79191 17.6467 
479 2 6.761 9.50105 20.3679 
480 2 9.47532 6.78909 20.3722 
481 2 9.47219 9.49859 17.6472 
482 2 10.8245 5.44375 16.2815 
483 2 10.8295 8.14718 19.0111 
484 2 13.5425 5.43683 19.0118 
485 2 13.5164 8.15605 16.2702 
486 2 12.1829 6.79317 17.6462 
487 2 12.1864 9.50417 20.3721 
488 2 14.902 6.79029 20.3745 
489 2 14.8877 9.49935 17.6423 
490 2 16.2573 5.43762 16.298 
491 2 16.2536 8.14835 19.0094 
492 2 18.9823 5.43077 19.0138 
493 2 18.9803 8.14484 16.2985 
494 2 17.6199 6.78986 17.6582 
495 2 17.6162 9.50082 20.3727 
496 2 20.3424 6.78852 20.3712 
497 2 20.3417 9.50059 17.6549 
498 2 21.7023 10.8533 16.2928 
499 2 21.6943 13.5695 19.0119 
500 2 2.69194 10.8519 19.0039 
501 2 2.6905 13.5689 16.2931 
502 2 1.33146 12.213 17.6522 
503 2 1.32891 14.9284 20.3705 
504 2 4.0463 12.2117 20.3647 
505 2 4.04661 14.9287 17.6511 
506 2 5.4136 10.848 16.2773 
507 2 5.4059 13.5677 19.0041 
508 2 8.1175 10.8571 19.0067 
509 2 8.1257 13.5414 16.2653 
510 2 6.76227 12.2078 17.6412 
511 2 6.75943 14.9284 20.3658 
512 2 9.47195 12.2163 20.3682 
513 2 9.46803 14.9158 17.6368 
514 2 10.8182 10.8462 16.2723 
515 2 10.8286 13.5701 19.0047 
516 2 13.5385 10.8605 19.0067 
517 2 13.5388 13.5687 16.291 
518 2 12.1764 12.2072 17.6391 
519 2 12.1841 14.9311 20.3681 
520 2 14.8984 12.2157 20.3709 
521 2 14.8988 14.9294 17.6506 
522 2 16.253 10.8597 16.293 
523 2 16.2578 13.5731 19.0121 
524 2 18.977 10.8563 19.0124 
525 2 18.9771 13.5714 16.2938 
526 2 17.6165 12.2145 17.6533 
527 2 17.6179 14.9301 20.3715 
528 2 20.3351 12.2128 20.3729 
529 2 20.3365 14.9293 17.6525 
530 2 21.696 16.2878 16.2931 
531 2 21.6971 19.0045 19.0113 
532 2 2.68809 16.2867 19.0113 
533 2 2.69199 19.0062 16.2937 
534 2 1.33201 17.6468 17.6514 
535 2 1.33227 20.3638 20.3701 
536 2 4.04586 17.6466 20.3699 
537 2 4.05057 20.3687 17.6505 
538 2 5.40742 16.2824 16.2925 
539 2 5.40469 19.0065 19.0115 
540 2 8.11933 16.2819 19.0044 
541 2 8.11774 19.0091 16.2963 
542 2 6.76126 17.6455 17.6517 
543 2 6.76202 20.3687 20.3691 
544 2 9.47136 17.6464 20.3679 
545 2 9.47383 20.3712 17.6537 
546 2 10.8296 16.2827 16.2912 
547 2 10.8297 19.0087 19.0119 
548 2 13.5443 16.2899 19.0117 
549 2 13.5429 19.0087 16.2957 
550 2 12.185 17.6466 17.652 
551 2 12.1872 20.3671 20.3732 
552 2 14.9026 17.6493 20.3711 
553 2 14.9034 20.3661 17.6554 
554 2 16.259 16.2886 16.2937 
555 2 16.2625 19.0061 19.0123 
556 2 18.977 16.2874 19.0112 
557 2 18.98 19.006 16.2938 
558 2 17.6195 17.6474 17.6517 
559 2 17.6211 20.3648 20.372 
560 2 20.3368 17.6457 20.3707 
ITEM: TIMESTEP
77
ITEM: NUMBER OF ATOMS
560
ITEM: BOX BOUNDS
0.0 21.724
0.0 21.724
0.0 21.724
ITEM: ATOMS id type x y z 
1 1 7.08414 9.17716 9.83659 
2 1 9.14961 7.11201 9.83678 
3 1 7.08432 7.11191 11.9021 
4 1 9.14967 9.17733 11.9021 
5 1 10.7241 8.15678 13.4767 
6 1 8.12881 10.7517 13.4764 
7 1 10.7239 10.7519 10.8814 
8 1 7.05619 9.21647 9.80863 
9 1 9.18872 7.08407 9.80883 
10 1 7.05638 7.08397 11.9412 
11 1 9.0583 9.0862 11.8108 
12 1 10.6834 8.16422 13.436 
13 1 8.13611 10.7113 13.4358 
14 1 10.6833 10.7114 10.8886 
15 1 7.03124 9.2759 9.78367 
16 1 9.24813 7.05911 9.78389 
17 1 7.03145 7.05901 12.0006 
18 1 8.95562 8.98354 11.7081 
19 1 10.6503 8.19921 13.4029 
20 1 8.17112 10.6781 13.4027 
21 1 10.6501 10.6783 10.9236 
22 1 7.0068 9.33203 9.75923 
23 1 9.30424 7.03468 9.75947 
24 1 7.00703 7.03457 12.0567 
25 1 8.85539 8.88333 11.6079 
26 1 10.6177 8.25172 13.3704 
27 1 8.22364 10.6456 13.3702 
28 1 10.6176 10.6458 10.9761 
29 1 6.97957 9.38774 9.73199 
30 1 9.35992 7.00746 9.73227 
31 1 6.97983 7.00734 12.1124 
32 1 8.75297 8.78094 11.5055 
33 1 10.5896 8.30767 13.3422 
34 1 8.27957 10.6175 13.342 
35 1 10.5894 10.6176 11.0321 
36 1 6.94649 9.44296 9.69892 
37 1 9.41515 6.9744 9.6992 
38 1 6.94676 6.97428 12.1676 
39 1 8.65016 8.67813 11.4026 
40 1 10.5644 8.3648 13.3171 
41 1 8.33669 10.5923 13.3169 
42 1 10.5643 10.5924 11.0892 
43 1 6.91179 9.48184 9.66424 
44 1 9.45409 6.93973 9.66448 
45 1 6.91204 6.93962 12.2066 
46 1 8.54241 8.57038 11.2949 
47 1 10.5383 8.42718 13.291 
48 1 8.39907 10.5662 13.2908 
49 1 10.5382 10.5663 11.1516 
50 1 6.86864 9.49166 9.62113 
51 1 9.46386 6.89678 9.62138 
52 1 6.86889 6.89666 12.2164 
53 1 8.44314 8.47126 11.1957 
54 1 10.5086 8.47134 13.2612 
55 1 8.44311 10.5365 13.261 
56 1 10.5085 10.5366 11.1957 
57 2 21.6973 21.721 0.00688225 
58 2 21.6969 2.71493 2.72619 
59 2 2.68745 21.7205 2.72477 
60 2 2.69088 2.71495 0.00630037 
61 2 1.33124 1.35658 1.36548 
62 2 1.33187 4.07362 4.0858 
63 2 4.0455 1.35692 4.08394 
64 2 4.0483 4.07206 1.36949 
65 2 5.40358 21.724 0.00751835 
66 2 5.40732 2.71783 2.73233 
67 2 8.11877 0.00678071 2.73421 
68 2 8.11782 2.71709 0.0091092 
69 2 6.76084 1.35864 1.36924 
70 2 6.76167 4.07952 4.09599 
71 2 9.46794 1.37418 4.10031 
72 2 9.47402 4.07461 1.37142 
73 2 10.8297 0.0021368 0.00990572 
74 2 10.8296 2.72181 2.73604 
75 2 13.5441 0.00241007 2.72871 
76 2 13.5457 2.71794 0.0107972 
77 2 12.1852 1.36252 1.37221 
78 2 12.1758 4.08487 4.10209 
79 2 14.8989 1.36373 4.08939 
80 2 14.9 4.07789 1.37327 
81 2 16.263 21.7239 0.00874342 
82 2 16.2605 2.71804 2.72856 
83 2 18.9788 21.7229 2.72683 
84 2 18.9815 2.71514 0.00829986 
85 2 17.6208 1.35907 1.36846 
86 2 17.6157 4.07805 4.08923 
87 2 20.3365 1.35835 4.08599 
88 2 20.3386 4.07428 1.36745 
89 2 21.7 5.42945 0.00718387 
90 2 21.7026 8.14432 2.73181 
91 2 2.69281 5.43167 2.73109 
92 2 2.69029 8.14175 0.00552514 
93 2 1.33372 6.78625 1.36899 
94 2 1.34647 9.49239 4.09852 
95 2 4.05248 6.78736 4.09537 
96 2 4.0482 9.49761 1.36666 
97 2 5.40397 5.42992 0.00741903 
98 2 5.40477 8.14158 2.72905 
99 2 8.11653 5.43192 2.73081 
100 2 8.11626 8.14489 0.00694921 
101 2 6.76113 6.78632 1.36769 
102 2 6.76207 9.49594 4.08983 
103 2 9.4689 6.79126 4.09125 
104 2 9.47293 9.5019 1.36743 
105 2 10.8308 5.43189 0.0104455 
106 2 10.8266 8.1452 2.73044 
107 2 13.5383 5.43272 2.73627 
108 2 13.5427 8.1464 0.0102018 
109 2 12.1862 6.78937 1.37164 
110 2 12.1772 9.50034 4.09737 
111 2 14.884 6.79407 4.10295 
112 2 14.8988 9.50238 1.37236 
113 2 16.2604 5.43145 0.0103244 
114 2 16.2509 8.1421 2.73527 
115 2 18.9779 5.4314 2.7278 
116 2 18.9779 8.14298 0.00836771 
117 2 17.6158 6.78987 1.37184 
118 2 17.6146 9.50084 4.08753 
119 2 20.3395 6.78711 4.08726 
120 2 20.3392 9.49817 1.36886 
121 2 21.6965 10.8534 0.00552137 
122 2 21.6956 13.5679 2.72487 
123 2 2.69262 10.8521 2.73029 
124 2 2.68784 13.5676 0.00340759 
125 2 1.33208 12.209 1.3675 
126 2 1.333 14.9221 4.0855 
127 2 4.05544 12.2001 4.09579 
128 2 4.04623 14.9239 1.3653 
129 2 5.40228 10.8559 0.00409466 
130 2 5.40224 13.5642 2.72943 
131 2 8.11471 10.8546 2.72912 
132 2 8.1139 13.5719 0.00565944 
133 2 6.75949 12.2112 1.36619 
134 2 6.76397 14.9106 4.09673 
135 2 9.46892 12.208 4.09475 
136 2 9.47098 14.929 1.36714 
137 2 10.8283 10.8612 0.00760532 
138 2 10.8238 13.5699 2.73128 
139 2 13.5374 10.8557 2.73351 
140 2 13.5414 13.5749 0.00778613 
141 2 12.1854 12.2164 1.37034 
142 2 12.1842 14.9304 4.08549 
143 2 14.8981 12.2162 4.08619 
144 2 14.9011 14.9329 1.36669 
145 2 16.2566 10.8583 0.00912664 
146 2 16.2584 13.5735 2.726 
147 2 18.977 10.8557 2.72685 
148 2 18.9756 13.5711 0.00736887 
149 2 17.6175 12.2145 1.36759 
150 2 17.6184 14.9314 4.08396 
151 2 20.3398 12.2107 4.08609 
152 2 20.3358 14.9281 1.36662 
153 2 21.6945 16.286 0.00613419 
154 2 21.6941 19.0033 2.72404 
155 2 2.68717 16.283 2.72309 
156 2 2.68705 19.0032 0.00638053 
157 2 1.32854 17.6442 1.36533 
158 2 1.32868 20.3616 4.08288 
159 2 4.04667 17.639 4.08395 
160 2 4.04538 20.3623 1.36487 
161 2 5.40179 16.2848 0.00451572 
162 2 5.4019 19.0026 2.7254 
163 2 8.11177 16.2805 2.731 
164 2 8.11563 19.006 0.00690771 
165 2 6.75924 17.643 1.36592 
166 2 6.75879 20.3649 4.08426 
167 2 9.47178 17.6438 4.08453 
168 2 9.47053 20.368 1.36948 
169 2 10.8277 16.2893 0.00681783 
170 2 10.8285 19.0079 2.72794 
171 2 13.5425 16.2906 2.72663 
172 2 13.5452 19.008 0.00777545 
173 2 12.1857 17.6498 1.36618 
174 2 12.1839 20.37 4.08797 
175 2 14.9013 17.65 4.08564 
176 2 14.9026 20.367 1.36811 
177 2 16.2601 16.2899 0.00681262 
178 2 16.2611 19.0077 2.72704 
179 2 18.9769 16.288 2.72469 
180 2 18.9788 19.0049 0.00693457 
181 2 17.6191 17.6482 1.36676 
182 2 17.6188 20.3671 4.08685 
183 2 20.3354 17.6459 4.08355 
184 2 20.3367 20.3638 1.36629 
185 2 21.6963 21.7223 5.44234 
186 2 21.7026 2.71923 8.16141 
187 2 2.69429 0.00395357 8.15739 
188 2 2.69017 2.71594 5.44387 
189 2 1.33139 1.35796 6.80056 
190 2 1.3433 4.07984 9.51578 
191 2 4.05506 1.36844 9.51219 
192 2 4.0495 4.07474 6.8023 
193 2 5.4063 0.00391323 5.4437 
194 2 5.41301 2.73247 8.16264 
195 2 8.11754 0.0048164 8.15678 
196 2 8.12566 2.74674 5.47217 
197 2 6.76238 1.36859 6.80351 
198 2 6.76999 4.10096 9.52033 
199 2 9.47168 1.36658 9.5148 
200 2 9.45163 4.13463 6.85932 
201 2 10.8285 0.00935513 5.44821 
202 2 10.8178 2.74444 8.1711 
203 2 13.5387 0.0126815 8.16071 
204 2 13.5389 2.72397 5.44928 
205 2 12.1764 1.3771 6.81081 
206 2 12.1281 4.13699 9.53602 
207 2 14.8851 1.38003 9.52191 
208 2 14.8855 4.08693 6.81166 
209 2 16.2595 0.00399757 5.44626 
210 2 16.2518 2.72657 8.16137 
211 2 18.9783 0.00327583 8.16025 
212 2 18.9765 2.71752 5.44557 
213 2 17.6148 1.36432 6.80712 
214 2 17.6174 4.07813 9.51778 
215 2 20.3407 1.36139 9.51713 
216 2 20.339 4.07435 6.80343 
217 2 21.7012 5.43213 5.44717 
218 2 21.7011 8.14251 8.15884 
219 2 2.70668 5.43691 8.16371 
220 2 2.71827 8.1499 5.47183 
221 2 1.34212 6.78743 6.80627 
222 2 1.33802 9.49621 9.51622 
223 2 4.07439 6.79553 9.51986 
224 2 4.10387 9.47846 6.85702 
225 2 5.41065 5.43712 5.45996 
226 2 5.50787 8.1566 8.26146 
227 2 8.12773 5.53838 8.26254 
228 2 8.11472 8.14386 5.45426 
229 2 6.76703 6.79654 6.82741 
230 2 9.46134 9.49256 6.82829 
231 2 10.8159 5.44562 5.46774 
232 2 10.7235 8.13534 8.26306 
233 2 13.5199 5.44746 8.1719 
234 2 13.5109 8.13761 5.47421 
235 2 12.1261 6.81054 6.86049 
236 2 12.1597 9.49321 9.52355 
237 2 14.8977 6.79366 9.51861 
238 2 14.8886 9.50014 6.80676 
239 2 16.2515 5.43385 5.4493 
240 2 16.2561 8.14731 8.15889 
241 2 18.9775 5.43289 8.15927 
242 2 18.9774 8.1444 5.44367 
243 2 17.616 6.78997 6.80227 
244 2 17.6186 9.50317 9.5132 
245 2 20.3401 6.78776 9.51614 
246 2 20.34 9.49876 6.80132 
247 2 21.7035 10.8537 5.44535 
248 2 21.7048 13.5655 8.15397 
249 2 2.71192 10.8424 8.16753 
250 2 2.69423 13.5619 5.44437 
251 2 1.34639 12.2016 6.8069 
252 2 1.34763 14.912 9.51486 
253 2 4.10456 12.1532 9.53125 
254 2 4.05592 14.9098 6.80622 
255 2 5.41445 10.842 5.46438 
256 2 5.41575 13.5454 8.16777 
257 2 8.10091 10.751 8.26265 
258 2 8.10552 13.5398 5.47217 
259 2 6.77821 12.1529 6.85668 
260 2 6.76286 14.9205 9.51572 
261 2 9.46241 12.1849 9.52155 
262 2 9.46937 14.9173 6.80528 
263 2 10.8183 10.8508 5.4611 
264 2 10.8193 13.5543 8.16527 
265 2 13.5252 10.8507 8.16484 
266 2 13.5391 13.5719 5.44575 
267 2 12.1812 12.2119 6.80374 
268 2 12.1779 14.919 9.5158 
269 2 14.8896 12.2092 9.51429 
270 2 14.8985 14.9313 6.80087 
271 2 16.2513 10.8551 5.44573 
272 2 16.2524 13.5697 8.15862 
273 2 18.9784 10.8584 8.15474 
274 2 18.9771 13.5705 5.44141 
275 2 17.614 12.214 6.7995 
276 2 17.6151 14.93 9.51117 
277 2 20.3411 12.2131 9.51153 
278 2 20.3398 14.9263 6.79991 
279 2 21.6961 16.2848 5.43973 
280 2 21.6985 19.0052 8.15416 
281 2 2.69459 16.2776 8.15352 
282 2 2.68891 19.0023 5.43999 
283 2 1.3328 17.641 6.79873 
284 2 1.33361 20.3672 9.51107 
285 2 4.04885 17.6409 9.51052 
286 2 4.04701 20.3649 6.79707 
287 2 5.40336 16.2762 5.44415 
288 2 5.4038 19.0026 8.15315 
289 2 8.11627 16.2823 8.15877 
290 2 8.1153 19.0044 5.44213 
291 2 6.76023 17.64 6.79823 
292 2 6.76076 20.3655 9.50923 
293 2 9.47286 17.6454 9.51312 
294 2 9.47184 20.3672 6.79916 
295 2 10.825 16.2835 5.44687 
296 2 10.8291 19.0087 8.15805 
297 2 13.5385 16.2842 8.16206 
298 2 13.5429 19.0099 5.44561 
299 2 12.1852 17.6461 6.80172 
300 2 12.1847 20.3719 9.51476 
301 2 14.8986 17.6473 9.5147 
302 2 14.8982 20.3725 6.80519 
303 2 16.2592 16.2897 5.44291 
304 2 16.2578 19.0097 8.15972 
305 2 18.9777 16.2874 8.15444 
306 2 18.978 19.0065 5.44246 
307 2 17.6175 17.6499 6.80062 
308 2 17.6151 20.3715 9.51738 
309 2 20.3393 17.6454 9.51155 
310 2 20.3361 20.3659 6.80063 
311 2 21.7065 0.00732585 10.8714 
312 2 21.7088 2.72122 13.5823 
313 2 2.69821 0.00700299 13.5796 
314 2 2.72194 2.74518 10.8758 
315 2 1.34993 1.37407 12.2201 
316 2 1.35134 4.08396 14.9285 
317 2 4.06163 1.37508 14.9258 
318 2 4.10773 4.13117 12.2034 
319 2 5.40823 0.00447746 10.8672 
320 2 5.42103 2.74195 13.5673 
321 2 8.1185 0.00758281 13.5805 
322 2 8.1202 2.73038 10.868 
323 2 6.76651 1.36707 12.2199 
324 2 6.785 4.13445 14.878 
325 2 9.47353 1.37472 14.9325 
326 2 9.46625 4.10506 12.2168 
327 2 10.8288 0.00874897 10.8712 
328 2 10.8245 2.74064 13.5767 
329 2 13.5416 0.0120134 13.5825 
330 2 13.5148 2.75363 10.8646 
331 2 12.1812 1.3753 12.2259 
332 2 12.1868 4.08265 14.9399 
333 2 14.9028 1.36433 14.9426 
334 2 14.8927 4.08568 12.2288 
335 2 16.2527 0.0126913 10.8707 
336 2 16.2565 2.72472 13.5845 
337 2 18.9823 0.00313668 13.5833 
338 2 18.9793 2.71979 10.8735 
339 2 17.6177 1.36392 12.2306 
340 2 17.6197 4.07746 14.944 
341 2 20.3456 1.36164 14.9386 
342 2 20.3425 4.07559 12.2299 
343 2 21.7025 5.432 10.8716 
344 2 21.7026 8.14397 13.5819 
345 2 2.71715 5.44328 13.568 
346 2 2.70151 8.14256 10.8682 
347 2 1.33988 6.79042 12.2236 
348 2 1.34417 9.49853 14.9333 
349 2 4.10889 6.80714 14.8792 
350 2 4.07426 9.49104 12.2155 
351 2 5.5091 5.53545 10.8793 
352 2 5.51018 8.13157 13.475 
353 2 8.10772 5.5395 13.4765 
354 2 20.3398 20.3644 17.6521 
355 2 6.77154 9.49008 14.91 
356 2 9.46838 6.79837 14.9104 
357 2 10.7266 5.54155 10.86 
358 2 13.5295 5.44484 13.5787 
359 2 13.5347 8.14689 10.8719 
360 2 12.1623 6.80019 12.2199 
361 2 12.1315 9.48246 14.8822 
362 2 14.8938 6.79402 14.9369 
363 2 14.8974 9.50079 12.2246 
364 2 16.2587 5.43707 10.8739 
365 2 16.259 8.14862 13.5839 
366 2 18.981 5.43302 13.5863 
367 2 18.9795 8.14668 10.8708 
368 2 17.6209 6.7916 12.2299 
369 2 17.62 9.5038 14.9412 
370 2 20.3435 6.78869 14.9419 
371 2 20.341 9.50168 12.2272 
372 2 21.7014 10.8555 10.8687 
373 2 21.7024 13.5686 13.5765 
374 2 2.70678 10.849 13.5733 
375 2 2.7197 13.54 10.8587 
376 2 1.34303 12.2076 12.2224 
377 2 1.33267 14.9282 14.9361 
378 2 4.0504 12.2096 14.9356 
379 2 4.05307 14.9168 12.2226 
380 2 5.50789 10.7512 10.856 
381 2 5.41154 13.5529 13.5736 
382 2 8.11592 13.5582 10.8694 
383 2 6.76808 12.1846 12.2161 
384 2 6.76215 14.9179 14.9324 
385 2 9.45316 12.1554 14.8802 
386 2 9.46898 14.9221 12.2229 
387 2 10.8162 13.5475 13.5693 
388 2 13.5206 10.8469 13.5699 
389 2 13.5132 13.5429 10.8772 
390 2 12.1282 12.1574 12.2057 
391 2 12.1757 14.9148 14.928 
392 2 14.8868 12.2069 14.9288 
393 2 14.8851 14.9157 12.2195 
394 2 16.2563 10.8581 10.8689 
395 2 16.2527 13.5687 13.5794 
396 2 18.9791 10.8596 13.5816 
397 2 18.9788 13.5727 10.8651 
398 2 17.6183 12.2159 12.223 
399 2 17.6163 14.9291 14.9344 
400 2 20.3416 12.2144 14.9377 
401 2 20.3411 14.9286 12.2211 
402 2 21.7044 16.2806 10.8619 
403 2 21.6999 19.0058 13.5775 
404 2 2.69324 16.282 13.5769 
405 2 2.69188 19.0045 10.865 
406 2 1.33422 17.6433 12.2211 
407 2 1.33612 20.3675 14.9341 