ITEM: TIMESTEP
0
ITEM: NUMBER OF ATOMS
504
ITEM: BOX BOUNDS pp pp pp
0.0000000000000000e+00 2.1724000000000000e+01
0.0000000000000000e+00 2.1724000000000000e+01
0.0000000000000000e+00 2.1724000000000000e+01
ITEM: ATOMS id type x y z
1 2 21.6973 21.721 0.00688225
2 2 21.6969 2.71493 2.72619
3 2 2.68745 21.7205 2.72477
4 2 2.69088 2.71495 0.00630037
5 2 1.33124 1.35658 1.36548
6 2 1.33187 4.07362 4.0858
7 2 4.0455 1.35692 4.08394
8 2 4.0483 4.07206 1.36949
9 2 5.40358 21.724 0.00751835
10 2 5.40732 2.71783 2.73233
11 2 8.11877 0.00678071 2.73421
12 2 8.11782 2.71709 0.0091092
13 2 6.76084 1.35864 1.36924
14 2 6.76167 4.07952 4.09599
15 2 9.46794 1.37418 4.10031
16 2 9.47402 4.07461 1.37142
17 2 10.8297 0.0021368 0.00990572
18 2 10.8296 2.72181 2.73604
19 2 13.5441 0.00241007 2.72871
20 2 13.5457 2.71794 0.0107972
21 2 12.1852 1.36252 1.37221
22 2 12.1758 4.08487 4.10209
23 2 14.8989 1.36373 4.08939
24 2 14.9 4.07789 1.37327
25 2 16.263 21.7239 0.00874342
26 2 16.2605 2.71804 2.72856
27 2 18.9788 21.7229 2.72683
28 2 18.9815 2.71514 0.00829986
29 2 17.6208 1.35907 1.36846
30 2 17.6157 4.07805 4.08923
31 2 20.3365 1.35835 4.08599
32 2 20.3386 4.07428 1.36745
33 2 21.7 5.42945 0.00718387
34 2 21.7026 8.14432 2.73181
35 2 2.69281 5.43167 2.73109
36 2 2.69029 8.14175 0.00552514
37 2 1.33372 6.78625 1.36899
38 2 1.34647 9.49239 4.09852
39 2 4.05248 6.78736 4.09537
40 2 4.0482 9.49761 1.36666
41 2 5.40397 5.42992 0.00741903
42 2 5.40477 8.14158 2.72905
43 2 8.11653 5.43192 2.73081
44 2 8.11626 8.14489 0.00694921
45 2 6.76113 6.78632 1.36769
46 2 6.76207 9.49594 4.08983
47 2 9.4689 6.79126 4.09125
48 2 9.47293 9.5019 1.36743
49 2 10.8308 5.43189 0.0104455
50 2 10.8266 8.1452 2.73044
51 2 13.5383 5.43272 2.73627
52 2 13.5427 8.1464 0.0102018
53 2 12.1862 6.78937 1.37164
54 2 12.1772 9.50034 4.09737
55 2 14.884 6.79407 4.10295
56 2 14.8988 9.50238 1.37236
57 2 16.2604 5.43145 0.0103244
58 2 16.2509 8.1421 2.73527
59 2 18.9779 5.4314 2.7278
60 2 18.9779 8.14298 0.00836771
61 2 17.6158 6.78987 1.37184
62 2 17.6146 9.50084 4.08753
63 2 20.3395 6.78711 4.08726
64 2 20.3392 9.49817 1.36886
65 2 21.6965 10.8534 0.00552137
66 2 21.6956 13.5679 2.72487
67 2 2.69262 10.8521 2.73029
68 2 2.68784 13.5676 0.00340759
69 2 1.33208 12.209 1.3675
70 2 1.333 14.9221 4.0855
71 2 4.05544 12.2001 4.09579
72 2 4.04623 14.9239 1.3653
73 2 5.40228 10.8559 0.00409466
74 2 5.40224 13.5642 2.72943
75 2 8.11471 10.8546 2.72912
76 2 8.1139 13.5719 0.00565944
77 2 6.75949 12.2112 1.36619
78 2 6.76397 14.9106 4.09673
79 2 9.46892 12.208 4.09475
80 2 9.47098 14.929 1.36714
81 2 10.8283 10.8612 0.00760532
82 2 10.8238 13.5699 2.73128
83 2 13.5374 10.8557 2.73351
84 2 13.5414 13.5749 0.00778613
85 2 12.1854 12.2164 1.37034
86 2 12.1842 14.9304 4.08549
87 2 14.8981 12.2162 4.08619
88 2 14.9011 14.9329 1.36669
89 2 16.2566 10.8583 0.00912664
90 2 16.2584 13.5735 2.726
91 2 18.977 10.8557 2.72685
92 2 18.9756 13.5711 0.00736887
93 2 17.6175 12.2145 1.36759
94 2 17.6184 14.9314 4.08396
95 2 20.3398 12.2107 4.08609
96 2 20.3358 14.9281 1.36662
97 2 21.6945 16.286 0.00613419
98 2 21.6941 19.0033 2.72404
99 2 2.68717 16.283 2.72309
100 2 2.68705 19.0032 0.00638053
101 2 1.32854 17.6442 1.36533
102 2 1.32868 20.3616 4.08288
103 2 4.04667 17.639 4.08395
104 2 4.04538 20.3623 1.36487
105 2 5.40179 16.2848 0.00451572
106 2 5.4019 19.0026 2.7254
107 2 8.11177 16.2805 2.731
108 2 8.11563 19.006 0.00690771
109 2 6.75924 17.643 1.36592
110 2 6.75879 20.3649 4.08426
111 2 9.47178 17.6438 4.08453
112 2 9.47053 20.368 1.36948
113 2 10.8277 16.2893 0.00681783
114 2 10.8285 19.0079 2.72794
115 2 13.5425 16.2906 2.72663
116 2 13.5452 19.008 0.00777545
117 2 12.1857 17.6498 1.36618
118 2 12.1839 20.37 4.08797
119 2 14.9013 17.65 4.08564
120 2 14.9026 20.367 1.36811
121 2 16.2601 16.2899 0.00681262
122 2 16.2611 19.0077 2.72704
123 2 18.9769 16.288 2.72469
124 2 18.9788 19.0049 0.00693457
125 2 17.6191 17.6482 1.36676
126 2 17.6188 20.3671 4.08685
127 2 20.3354 17.6459 4.08355
128 2 20.3367 20.3638 1.36629
129 2 21.6963 21.7223 5.44234
130 2 21.7026 2.71923 8.16141
131 2 2.69429 0.00395357 8.15739
132 2 2.69017 2.71594 5.44387
133 2 1.33139 1.35796 6.80056
134 2 1.3433 4.07984 9.51578
135 2 4.05506 1.36844 9.51219
136 2 4.0495 4.07474 6.8023
137 2 5.4063 0.00391323 5.4437
138 2 5.41301 2.73247 8.16264
139 2 8.11754 0.0048164 8.15678
140 2 8.12566 2.74674 5.47217
141 2 6.76238 1.36859 6.80351
142 2 6.76999 4.10096 9.52033
143 2 9.47168 1.36658 9.5148
144 2 9.45163 4.13463 6.85932
145 2 10.8285 0.00935513 5.44821
146 2 10.8178 2.74444 8.1711
147 2 13.5387 0.0126815 8.16071
148 2 13.5389 2.72397 5.44928
149 2 12.1764 1.3771 6.81081
150 2 12.1281 4.13699 9.53602
151 2 14.8851 1.38003 9.52191
152 2 14.8855 4.08693 6.81166
153 2 16.2595 0.00399757 5.44626
154 2 16.2518 2.72657 8.16137
155 2 18.9783 0.00327583 8.16025
156 2 18.9765 2.71752 5.44557
157 2 17.6148 1.36432 6.80712
158 2 17.6174 4.07813 9.51778
159 2 20.3407 1.36139 9.51713
160 2 20.339 4.07435 6.80343
161 2 21.7012 5.43213 5.44717
162 2 21.7011 8.14251 8.15884
163 2 2.70668 5.43691 8.16371
164 2 2.71827 8.1499 5.47183
165 2 1.34212 6.78743 6.80627
166 2 1.33802 9.49621 9.51622
167 2 4.07439 6.79553 9.51986
168 2 4.10387 9.47846 6.85702
169 2 5.41065 5.43712 5.45996
170 2 5.50787 8.1566 8.26146
171 2 8.12773 5.53838 8.26254
172 2 8.11472 8.14386 5.45426
173 2 6.76703 6.79654 6.82741
176 2 9.46134 9.49256 6.82829
177 2 10.8159 5.44562 5.46774
178 2 10.7235 8.13534 8.26306
179 2 13.5199 5.44746 8.1719
180 2 13.5109 8.13761 5.47421
181 2 12.1261 6.81054 6.86049
182 2 12.1597 9.49321 9.52355
183 2 14.8977 6.79366 9.51861
184 2 14.8886 9.50014 6.80676
185 2 16.2515 5.43385 5.4493
186 2 16.2561 8.14731 8.15889
187 2 18.9775 5.43289 8.15927
188 2 18.9774 8.1444 5.44367
189 2 17.616 6.78997 6.80227
190 2 17.6186 9.50317 9.5132
191 2 20.3401 6.78776 9.51614
192 2 20.34 9.49876 6.80132
193 2 21.7035 10.8537 5.44535
194 2 21.7048 13.5655 8.15397
195 2 2.71192 10.8424 8.16753
196 2 2.69423 13.5619 5.44437
197 2 1.34639 12.2016 6.8069
198 2 1.34763 14.912 9.51486
199 2 4.10456 12.1532 9.53125
200 2 4.05592 14.9098 6.80622
201 2 5.41445 10.842 5.46438
202 2 5.41575 13.5454 8.16777
203 2 8.10091 10.751 8.26265
204 2 8.10552 13.5398 5.47217
205 2 6.77821 12.1529 6.85668
206 2 6.76286 14.9205 9.51572
207 2 9.46241 12.1849 9.52155
208 2 9.46937 14.9173 6.80528
209 2 10.8183 10.8508 5.4611
210 2 10.8193 13.5543 8.16527
211 2 13.5252 10.8507 8.16484
212 2 13.5391 13.5719 5.44575
213 2 12.1812 12.2119 6.80374
214 2 12.1779 14.919 9.5158
215 2 14.8896 12.2092 9.51429
216 2 14.8985 14.9313 6.80087
217 2 16.2513 10.8551 5.44573
218 2 16.2524 13.5697 8.15862
219 2 18.9784 10.8584 8.15474
220 2 18.9771 13.5705 5.44141
221 2 17.614 12.214 6.7995
222 2 17.6151 14.93 9.51117
223 2 20.3411 12.2131 9.51153
224 2 20.3398 14.9263 6.79991
225 2 21.6961 16.2848 5.43973
226 2 21.6985 19.0052 8.15416
227 2 2.69459 16.2776 8.15352
228 2 2.68891 19.0023 5.43999
229 2 1.3328 17.641 6.79873
230 2 1.33361 20.3672 9.51107
231 2 4.04885 17.6409 9.51052
232 2 4.04701 20.3649 6.79707
233 2 5.40336 16.2762 5.44415
234 2 5.4038 19.0026 8.15315
235 2 8.11627 16.2823 8.15877
236 2 8.1153 19.0044 5.44213
237 2 6.76023 17.64 6.79823
238 2 6.76076 20.3655 9.50923
239 2 9.47286 17.6454 9.51312
240 2 9.47184 20.3672 6.79916
241 2 10.825 16.2835 5.44687
242 2 10.8291 19.0087 8.15805
243 2 13.5385 16.2842 8.16206
244 2 13.5429 19.0099 5.44561
245 2 12.1852 17.6461 6.80172
246 2 12.1847 20.3719 9.51476
247 2 14.8986 17.6473 9.5147
248 2 14.8982 20.3725 6.80519
249 2 16.2592 16.2897 5.44291
250 2 16.2578 19.0097 8.15972
251 2 18.9777 16.2874 8.15444
252 2 18.978 19.0065 5.44246
253 2 17.6175 17.6499 6.80062
254 2 17.6151 20.3715 9.51738
255 2 20.3393 17.6454 9.51155
256 2 20.3361 20.3659 6.80063
257 2 21.7065 0.00732585 10.8714
258 2 21.7088 2.72122 13.5823
259 2 2.69821 0.00700299 13.5796
260 2 2.72194 2.74518 10.8758
261 2 1.34993 1.37407 12.2201
262 2 1.35134 4.08396 14.9285
263 2 4.06163 1.37508 14.9258
264 2 4.10773 4.13117 12.2034
265 2 5.40823 0.00447746 10.8672
266 2 5.42103 2.74195 13.5673
267 2 8.1185 0.00758281 13.5805
268 2 8.1202 2.73038 10.868
269 2 6.76651 1.36707 12.2199
270 2 6.785 4.13445 14.878
271 2 9.47353 1.37472 14.9325
272 2 9.46625 4.10506 12.2168
273 2 10.8288 0.00874897 10.8712
274 2 10.8245 2.74064 13.5767
275 2 13.5416 0.0120134 13.5825
276 2 13.5148 2.75363 10.8646
277 2 12.1812 1.3753 12.2259
278 2 12.1868 4.08265 14.9399
279 2 14.9028 1.36433 14.9426
280 2 14.8927 4.08568 12.2288
281 2 16.2527 0.0126913 10.8707
282 2 16.2565 2.72472 13.5845
283 2 18.9823 0.00313668 13.5833
284 2 18.9793 2.71979 10.8735
285 2 17.6177 1.36392 12.2306
286 2 17.6197 4.07746 14.944
287 2 20.3456 1.36164 14.9386
288 2 20.3425 4.07559 12.2299
289 2 21.7025 5.432 10.8716
290 2 21.7026 8.14397 13.5819
291 2 2.71715 5.44328 13.568
292 2 2.70151 8.14256 10.8682
293 2 1.33988 6.79042 12.2236
294 2 1.34417 9.49853 14.9333
295 2 4.10889 6.80714 14.8792
296 2 4.07426 9.49104 12.2155
297 2 5.5091 5.53545 10.8793
298 2 5.51018 8.13157 13.475
299 2 8.10772 5.5395 13.4765
512 2 20.3398 20.3644 17.6521
302 2 6.77154 9.49008 14.91
303 2 9.46838 6.79837 14.9104
305 2 10.7266 5.54155 10.86
307 2 13.5295 5.44484 13.5787
308 2 13.5347 8.14689 10.8719
309 2 12.1623 6.80019 12.2199
310 2 12.1315 9.48246 14.8822
311 2 14.8938 6.79402 14.9369
312 2 14.8974 9.50079 12.2246
313 2 16.2587 5.43707 10.8739
314 2 16.259 8.14862 13.5839
315 2 18.981 5.43302 13.5863
316 2 18.9795 8.14668 10.8708
317 2 17.6209 6.7916 12.2299
318 2 17.62 9.5038 14.9412
319 2 20.3435 6.78869 14.9419
320 2 20.341 9.50168 12.2272
321 2 21.7014 10.8555 10.8687
322 2 21.7024 13.5686 13.5765
323 2 2.70678 10.849 13.5733
324 2 2.7197 13.54 10.8587
325 2 1.34303 12.2076 12.2224
326 2 1.33267 14.9282 14.9361
327 2 4.0504 12.2096 14.9356
328 2 4.05307 14.9168 12.2226
329 2 5.50789 10.7512 10.856
330 2 5.41154 13.5529 13.5736
332 2 8.11592 13.5582 10.8694
333 2 6.76808 12.1846 12.2161
334 2 6.76215 14.9179 14.9324
335 2 9.45316 12.1554 14.8802
336 2 9.46898 14.9221 12.2229
338 2 10.8162 13.5475 13.5693
339 2 13.5206 10.8469 13.5699
340 2 13.5132 13.5429 10.8772
341 2 12.1282 12.1574 12.2057
342 2 12.1757 14.9148 14.928
343 2 14.8868 12.2069 14.9288
344 2 14.8851 14.9157 12.2195
345 2 16.2563 10.8581 10.8689
346 2 16.2527 13.5687 13.5794
347 2 18.9791 10.8596 13.5816
348 2 18.9788 13.5727 10.8651
349 2 17.6183 12.2159 12.223
350 2 17.6163 14.9291 14.9344
351 2 20.3416 12.2144 14.9377
352 2 20.3411 14.9286 12.2211
353 2 21.7044 16.2806 10.8619
354 2 21.6999 19.0058 13.5775
355 2 2.69324 16.282 13.5769
356 2 2.69188 19.0045 10.865
357 2 1.33422 17.6433 12.2211
358 2 1.33612 20.3675 14.9341
359 2 4.04886 17.6434 14.9365
360 2 4.05001 20.3666 12.2212
361 2 5.40607 16.2821 10.8688
362 2 5.40533 19.0066 13.5809
363 2 8.11736 16.2845 13.5819
364 2 8.11703 19.0068 10.8693
365 2 6.76111 17.6447 12.225
366 2 6.76207 20.3692 14.9366
367 2 9.47304 17.6473 14.9387
368 2 9.47354 20.3695 12.2252
369 2 10.8271 16.285 10.8713
370 2 10.8292 19.0102 13.5842
371 2 13.5383 16.282 13.5812
372 2 13.5421 19.0101 10.8716
373 2 12.1841 17.6479 12.2269
374 2 12.1861 20.373 14.9394
375 2 14.8982 17.6461 14.9364
376 2 14.8992 20.3728 12.228
377 2 16.2518 16.2827 10.871
378 2 16.2583 19.0083 13.5815
379 2 18.9782 16.2873 13.5769
380 2 18.9786 19.0082 10.8682
381 2 17.6153 17.6468 12.2225
382 2 17.6207 20.3663 14.9383
383 2 20.3377 17.6475 14.934
384 2 20.3416 20.3689 12.2232
385 2 21.7014 21.7239 16.295
386 2 21.7014 2.71431 19.012
387 2 2.69159 8.71663e-06 19.0118
388 2 2.69954 2.72113 16.29
389 2 1.33851 1.36053 17.6499
390 2 1.3362 4.07456 20.3678
391 2 4.05083 1.36043 20.3678
392 2 4.06164 4.08465 17.6372
393 2 5.40698 0.00932569 16.2908
394 2 5.40721 2.72192 19.005
395 2 8.1154 0.00995443 19.0071
396 2 8.11137 2.75061 16.2674
397 2 6.76799 1.37634 17.638
398 2 6.7628 4.07529 20.3702
399 2 9.47505 1.36179 20.371
400 2 9.47493 4.08365 17.6443
401 2 10.8277 0.0107251 16.2948
402 2 10.8281 2.72277 19.01
403 2 13.5455 0.00214913 19.0148
404 2 13.5449 2.72295 16.2992
405 2 12.1878 1.36344 17.6562
406 2 12.1881 4.07589 20.3727
407 2 14.9047 1.35934 20.3749
408 2 14.9043 4.07745 17.6584
409 2 16.2626 0.00191213 16.2979
410 2 16.2639 2.71687 19.0155
411 2 18.9822 21.7222 19.0132
412 2 18.9837 2.71746 16.2981
413 2 17.6239 1.3586 17.6568
414 2 17.6224 4.07461 20.3749
415 2 20.3406 1.35716 20.3719
416 2 20.3457 4.07564 17.6544
417 2 21.7084 5.43039 16.2922
418 2 21.7058 8.13931 19.0051
419 2 2.69691 5.43009 19.0037
420 2 2.7222 8.13429 16.2646
421 2 1.35044 6.79151 17.6378
422 2 1.33342 9.4986 20.3678
423 2 4.0493 6.78664 20.3681
424 2 4.05471 9.49804 17.6411
425 2 5.42134 5.44438 16.2707
426 2 5.40641 8.14347 19.0071
427 2 8.11917 5.43378 19.0101
428 2 8.12061 8.14423 16.2836
429 2 6.76741 6.79191 17.6467
430 2 6.761 9.50105 20.3679
431 2 9.47532 6.78909 20.3722
432 2 9.47219 9.49859 17.6472
433 2 10.8245 5.44375 16.2815
434 2 10.8295 8.14718 19.0111
435 2 13.5425 5.43683 19.0118
436 2 13.5164 8.15605 16.2702
437 2 12.1829 6.79317 17.6462
438 2 12.1864 9.50417 20.3721
439 2 14.902 6.79029 20.3745
440 2 14.8877 9.49935 17.6423
441 2 16.2573 5.43762 16.298
442 2 16.2536 8.14835 19.0094
443 2 18.9823 5.43077 19.0138
444 2 18.9803 8.14484 16.2985
445 2 17.6199 6.78986 17.6582
446 2 17.6162 9.50082 20.3727
447 2 20.3424 6.78852 20.3712
448 2 20.3417 9.50059 17.6549
449 2 21.7023 10.8533 16.2928
450 2 21.6943 13.5695 19.0119
451 2 2.69194 10.8519 19.0039
452 2 2.6905 13.5689 16.2931
453 2 1.33146 12.213 17.6522
454 2 1.32891 14.9284 20.3705
455 2 4.0463 12.2117 20.3647
456 2 4.04661 14.9287 17.6511
457 2 5.4136 10.848 16.2773
458 2 5.4059 13.5677 19.0041
459 2 8.1175 10.8571 19.0067
460 2 8.1257 13.5414 16.2653
461 2 6.76227 12.2078 17.6412
462 2 6.75943 14.9284 20.3658
463 2 9.47195 12.2163 20.3682
464 2 9.46803 14.9158 17.6368
465 2 10.8182 10.8462 16.2723
466 2 10.8286 13.5701 19.0047
467 2 13.5385 10.8605 19.0067
468 2 13.5388 13.5687 16.291
469 2 12.1764 12.2072 17.6391
470 2 12.1841 14.9311 20.3681
471 2 14.8984 12.2157 20.3709
472 2 14.8988 14.9294 17.6506
473 2 16.253 10.8597 16.293
474 2 16.2578 13.5731 19.0121
475 2 18.977 10.8563 19.0124
476 2 18.9771 13.5714 16.2938
477 2 17.6165 12.2145 17.6533
478 2 17.6179 14.9301 20.3715
479 2 20.3351 12.2128 20.3729
480 2 20.3365 14.9293 17.6525
481 2 21.696 16.2878 16.2931
482 2 21.6971 19.0045 19.0113
483 2 2.68809 16.2867 19.0113
484 2 2.69199 19.0062 16.2937
485 2 1.33201 17.6468 17.6514
486 2 1.33227 20.3638 20.3701
487 2 4.04586 17.6466 20.3699
488 2 4.05057 20.3687 17.6505
489 2 5.40742 16.2824 16.2925
490 2 5.40469 19.0065 19.0115
491 2 8.11933 16.2819 19.0044
492 2 8.11774 19.0091 16.2963
493 2 6.76126 17.6455 17.6517
494 2 6.76202 20.3687 20.3691
495 2 9.47136 17.6464 20.3679
496 2 9.47383 20.3712 17.6537
497 2 10.8296 16.2827 16.2912
498 2 10.8297 19.0087 19.0119
499 2 13.5443 16.2899 19.0117
500 2 13.5429 19.0087 16.2957
501 2 12.185 17.6466 17.652
502 2 12.1872 20.3671 20.3732
503 2 14.9026 17.6493 20.3711
504 2 14.9034 20.3661 17.6554
505 2 16.259 16.2886 16.2937
506 2 16.2625 19.0061 19.0123
507 2 18.977 16.2874 19.0112
508 2 18.98 19.006 16.2938
509 2 17.6195 17.6474 17.6517
510 2 17.6211 20.3648 20.372
511 2 20.3368 17.6457 20.3707
ITEM: TIMESTEP
77
ITEM: NUMBER OF ATOMS
504
ITEM: BOX BOUNDS pp pp pp
0.0000000000000000e+00 2.1724000000000000e+01
0.0000000000000000e+00 2.1724000000000000e+01
0.0000000000000000e+00 2.1724000000000000e+01
ITEM: ATOMS id type x y z
1 2 21.6961 21.7236 0.00706743
2 2 21.6972 2.71759 2.7258
3 2 2.69002 21.7247 2.72567
4 2 2.68965 2.71706 0.00805872
5 2 1.33079 1.35833 1.36643
6 2 1.33301 4.07578 4.0856
7 2 4.04818 1.36059 4.08549
8 2 4.04858 4.07609 1.36709
9 2 5.40572 21.7237 0.00720664
10 2 5.40749 2.72049 2.72918
11 2 8.12009 0.00330402 2.72812
12 2 8.11908 2.71947 0.00451948
13 2 6.76262 1.36071 1.36662
14 2 6.76318 4.0811 4.09259
15 2 9.47251 1.36706 4.09184
16 2 9.47528 4.07651 1.36621
17 2 10.8302 0.00339666 0.00412157
18 2 10.8315 2.71963 2.72795
19 2 13.5446 4.95902e-05 2.72486
20 2 13.5432 2.72065 0.00322073
21 2 12.1877 1.36096 1.36556
22 2 12.1855 4.0792 4.09012
23 2 14.9029 1.35889 4.08375
24 2 14.9021 4.0764 1.36519
25 2 16.2606 21.725 0.00627074
26 2 16.2611 2.71734 2.72406
27 2 18.9785 21.7238 2.72469
28 2 18.9777 2.71763 0.006243
29 2 17.6198 1.35858 1.36553
30 2 17.6198 4.07535 4.08376
31 2 20.3379 1.35846 4.08344
32 2 20.3374 4.07478 1.36607
33 2 21.6962 5.43322 0.00729928
34 2 21.6994 8.14766 2.72801
35 2 2.69286 5.43497 2.72912
36 2 2.69163 8.14651 0.00427881
37 2 1.33303 6.79016 1.36665
38 2 1.33903 9.50014 4.09163
39 2 4.05334 6.79077 4.0925
40 2 4.04856 9.50281 1.36589
41 2 5.40564 5.4332 0.00435193
42 2 5.40621 8.14703 2.7277
43 2 8.11939 5.43413 2.72791
44 2 8.11859 8.14643 0.00594032
45 2 6.7619 6.78958 1.36648
46 2 6.76384 9.50342 4.08824
47 2 9.47566 6.79187 4.08848
48 2 9.47533 9.50328 1.36613
49 2 10.8314 5.43415 0.00468247
50 2 10.8321 8.14658 2.72647
51 2 13.5451 5.43348 2.72804
52 2 13.5446 8.14728 0.00466271
53 2 12.1888 6.78983 1.36593
54 2 12.1868 9.5031 4.08844
55 2 14.8995 6.79301 4.0901
56 2 14.9021 9.50324 1.36628
57 2 16.2581 5.43514 0.00318606
58 2 16.2591 8.14681 2.72781
59 2 18.9787 5.43336 2.72481
60 2 18.9754 8.14777 0.00403714
61 2 17.6178 6.79041 1.36559
62 2 17.6116 9.50562 4.09183
63 2 20.338 6.79028 4.0857
64 2 20.3374 9.50277 1.36604
65 2 21.6993 10.8577 0.00380319
66 2 21.6958 13.5722 2.72438
67 2 2.69146 10.859 2.72746
68 2 2.69246 13.5707 0.00261698
69 2 1.33279 12.2153 1.36512
70 2 1.33062 14.9305 4.08319
71 2 4.05097 12.2131 4.08954
72 2 4.04822 14.9297 1.3645
73 2 5.40605 10.8589 0.00424065
74 2 5.40524 13.5727 2.72746
75 2 8.11842 10.86 2.72622
76 2 8.1191 13.5724 0.00426969
77 2 6.76167 12.2165 1.36543
78 2 6.76476 14.9272 4.0895
79 2 9.47488 12.2148 4.08818
80 2 9.47504 14.9301 1.36589
81 2 10.8321 10.8602 0.00594697
82 2 10.831 13.5725 2.72761
83 2 13.5444 10.8593 2.72775
84 2 13.545 13.5732 0.00436659
85 2 12.1887 12.2169 1.36653
86 2 12.1872 14.9255 4.0924
87 2 14.8973 12.2155 4.09251
88 2 14.902 14.9302 1.36718
89 2 16.2591 10.8594 0.00447116
90 2 16.2577 13.5711 2.72897
91 2 18.9752 10.8579 2.72795
92 2 18.9785 13.5725 0.00715711
93 2 17.6177 12.2156 1.36673
94 2 17.6175 14.9302 4.08546
95 2 20.3365 12.2154 4.08546
96 2 20.3372 14.931 1.3658
97 2 21.6969 16.2881 0.00585753
98 2 21.6959 19.0061 2.72446
99 2 2.68923 16.2886 2.72349
100 2 2.68987 19.0051 0.00587928
101 2 1.33055 17.6474 1.36506
102 2 1.33063 20.3655 4.08319
103 2 4.04727 17.6473 4.08316
104 2 4.04703 20.3649 1.36571
105 2 5.4071 16.2856 0.00265093
106 2 5.40554 19.0063 2.72449
107 2 8.11871 16.287 2.72748
108 2 8.11999 19.0032 0.00388407
109 2 6.76239 17.6455 1.36506
110 2 6.76247 20.3658 4.08543
111 2 9.47753 17.6396 4.09155
112 2 9.475 20.3653 1.36597
113 2 10.8313 16.2872 0.00434831
114 2 10.83 19.0034 2.72806
115 2 13.5429 16.286 2.72902
116 2 13.5446 19.0067 0.0073688
117 2 12.1876 17.6459 1.36667
118 2 12.1875 20.3648 4.08566
119 2 14.9021 17.6458 4.08554
120 2 14.9032 20.3654 1.36609
121 2 16.261 16.2891 0.0080716
122 2 16.2604 19.0055 2.72574
123 2 18.9773 16.2883 2.72555
124 2 18.9785 19.0063 0.00707138
125 2 17.6197 17.6478 1.36651
126 2 17.6196 20.3646 4.08343
127 2 20.3365 17.6475 4.08319
128 2 20.3372 20.365 1.36583
129 2 21.6972 21.7248 5.44259
130 2 21.7007 2.7206 8.16007
131 2 2.69295 0.00428835 8.15991
132 2 2.69388 2.72143 5.44639
133 2 1.33301 1.36066 6.80075
134 2 1.34014 4.08113 9.51578
135 2 4.05351 1.36775 9.51563
136 2 4.054 4.08163 6.8065
137 2 5.40745 0.00427942 5.44537
138 2 5.41634 2.73447 8.16878
139 2 8.11946 0.00321019 8.15893
140 2 8.12413 2.73434 5.45915
141 2 6.76318 1.36778 6.80591
142 2 6.77619 4.10127 9.52863
143 2 9.47578 1.36387 9.51662
144 2 9.46737 4.10688 6.83161
145 2 10.8314 0.00316395 5.44443
146 2 10.8306 2.72974 8.16463
147 2 13.5451 0.00336216 8.15832
148 2 13.5454 2.71852 5.44333
149 2 12.1854 1.36536 6.80401
150 2 12.1807 4.09429 9.52326
151 2 14.8996 1.36541 9.51788
152 2 14.9014 4.07742 6.80226
153 2 16.261 -0.000804136 5.44225
154 2 16.2604 2.71852 8.15806
155 2 18.9788 -4.15428e-06 8.15834
156 2 18.9796 2.71731 5.44228
157 2 17.6197 1.35885 6.80031
158 2 17.6137 4.07921 9.5179
159 2 20.3382 1.36088 9.51526
160 2 20.3386 4.07628 6.80126
161 2 21.7006 5.43507 5.44546
162 2 21.6992 8.14711 8.15883
163 2 2.70672 5.44392 8.16875
164 2 2.70635 8.15168 5.45889
165 2 1.33998 6.79082 6.80595
166 2 1.33578 9.50343 9.51645
167 2 4.07343 6.80382 9.52857
168 2 4.07877 9.49502 6.83128
169 2 5.41621 5.44392 5.4592
170 2 5.46521 8.16823 8.21773
171 2 8.14049 5.49329 8.21793
172 2 8.1224 8.15039 5.44974
173 2 6.77603 6.80386 6.8259
176 2 9.47549 9.50355 6.81328
177 2 10.8305 5.43986 5.45436
178 2 10.8232 8.15625 8.18673
179 2 13.5428 5.43648 8.16115
180 2 13.5391 8.14835 5.45422
181 2 12.1806 6.79847 6.81889
182 2 12.0828 9.51572 9.62133
183 2 14.8851 6.79851 9.52325
184 2 14.8721 9.5115 6.83153
185 2 16.2603 5.43316 5.44326
186 2 16.2495 8.14833 8.16443
187 2 18.9759 5.43344 8.15829
188 2 18.9757 8.14673 5.44428
189 2 17.6136 6.79295 6.804
190 2 17.6153 9.50309 9.51664
191 2 20.338 6.78972 9.51459
192 2 20.3374 9.50296 6.80123
193 2 21.6989 10.8591 5.44407
194 2 21.699 13.5728 8.15782
195 2 2.70143 10.8582 8.16415
196 2 2.69019 13.5729 5.4427
197 2 1.33706 12.2131 6.80355
198 2 1.3371 14.9273 9.5173
199 2 4.06597 12.2083 9.5227
200 2 4.04911 14.929 6.80157
201 2 5.41161 10.8582 5.45392
202 2 5.40811 13.5705 8.16058
203 2 8.12797 10.8512 8.18651
204 2 8.12004 13.567 5.45386
205 2 6.77019 12.2084 6.81841
206 2 6.77023 14.9128 9.52265
207 2 9.4875 12.1107 9.6211
208 2 9.48323 14.9001 6.83117
209 2 10.8284 10.8566 5.4496
210 2 10.8106 13.5141 8.21755
211 2 13.486 10.839 8.21767
212 2 13.5345 13.5628 5.4589
213 2 12.1749 12.2031 6.82577
214 2 12.175 14.906 9.52846
215 2 14.8779 12.2032 9.52857
216 2 14.8967 14.925 6.80635
217 2 16.2444 10.8545 5.45884
218 2 16.2444 13.5628 8.16845
219 2 18.9757 10.8592 8.1587
220 2 18.9741 13.5709 5.44511
221 2 17.6108 12.2154 6.80584
222 2 17.6109 14.9255 9.51561
223 2 20.337 12.2166 9.51432
224 2 20.336 14.9298 6.80086
225 2 21.695 16.2887 5.4418
226 2 21.6961 19.0064 8.15808
227 2 2.6903 16.288 8.15747
228 2 2.68942 19.0071 5.4419
229 2 1.33071 17.6474 6.79981
230 2 1.33304 20.3658 9.51499
231 2 4.05111 17.6413 9.51727
232 2 4.04844 20.3662 6.80088
233 2 5.40499 16.288 5.44273
234 2 5.40554 19.0035 8.15795
235 2 8.12013 16.2775 8.16412
236 2 8.11884 19.0037 5.44417
237 2 6.76484 17.6414 6.80348
238 2 6.76189 20.3658 9.51427
239 2 9.47498 17.6433 9.51634
240 2 9.4751 20.3654 6.80118
241 2 10.8263 16.2726 5.45877
242 2 10.8312 19.004 8.15882
243 2 13.5346 16.2727 8.16851
244 2 13.543 19.0024 5.44537
245 2 12.1872 17.6391 6.80581
246 2 12.1888 20.3653 9.51451
247 2 14.8974 17.6392 9.5157
248 2 14.9019 20.3644 6.80119
249 2 16.2568 16.285 5.44613
250 2 16.2579 19.0024 8.15993
251 2 18.9742 16.2858 8.15971
252 2 18.9774 19.0053 5.44249
253 2 17.6176 17.6457 6.80068
254 2 17.6177 20.3648 9.51524
255 2 20.3367 17.6456 9.51499
256 2 20.3372 20.3651 6.79968
257 2 21.6997 0.00332456 10.8726
258 2 21.6995 2.71951 13.584
259 2 2.69196 0.00293587 13.5839
260 2 2.70671 2.73426 10.8766
261 2 1.33942 1.36698 12.2251
262 2 1.33761 4.079 14.9381
263 2 4.05152 1.36509 14.9379
264 2 4.07917 4.10673 12.2199
265 2 5.40652 0.0031163 10.8719
266 2 5.41214 2.7295 13.5831
267 2 8.11886 0.00184789 13.5848
268 2 8.12273 2.72528 10.8752
269 2 6.76421 1.36375 12.2282
270 2 6.77073 4.09405 14.9332
271 2 9.47536 1.36385 14.9395
272 2 9.47584 4.08887 12.2283
273 2 10.8323 0.00198926 10.8713
274 2 10.8289 2.7253 13.5814
275 2 13.5448 0.00336665 13.5841
276 2 13.5394 2.72976 10.8732
277 2 12.1871 1.36398 12.2279
278 2 12.1754 4.10142 14.9279
279 2 14.8978 1.36807 14.9403
280 2 14.8724 4.107 12.2364
281 2 16.2593 0.00323957 10.8717
282 2 16.2449 2.7344 13.5794
283 2 18.9756 0.00341616 13.5827
284 2 18.976 2.71964 10.8717
285 2 17.6119 1.36721 12.2305
286 2 17.6113 4.08131 14.9403
287 2 20.3371 1.36088 14.9403
288 2 20.3377 4.07656 12.2279
289 2 21.6994 5.43414 10.872
290 2 21.6979 8.14644 13.5847
291 2 2.70185 5.43963 13.5831
292 2 2.69724 8.15029 10.875
293 2 1.33601 6.79178 12.2283
294 2 1.33589 9.5029 14.9394
295 2 4.06635 6.79821 14.9331
296 2 4.06079 9.5034 12.228
297 2 5.46545 5.49319 10.893
298 2 5.43419 8.15602 13.5758
299 2 8.12838 5.46218 13.5759
512 2 20.3375 20.3652 17.6557
302 2 6.86877 9.51551 14.8353
303 2 9.48788 6.89676 14.8355
305 2 10.8234 5.46232 10.8809
307 2 13.4863 5.49333 13.5637
308 2 13.5175 8.15629 10.8808
309 2 12.083 6.89689 12.2404
310 2 12.083 9.49201 14.8356
311 2 14.8782 6.80413 14.928
312 2 14.8908 9.5038 12.2284
313 2 16.2497 5.43986 10.8731
314 2 16.2543 8.15051 13.5814
315 2 18.9761 5.43416 13.584
316 2 18.9774 8.14656 10.8712
317 2 17.6155 6.79199 12.2279
318 2 17.6156 9.5038 14.9398
319 2 20.3374 6.78975 14.9415
320 2 20.3377 9.50329 12.228
321 2 21.6977 10.86 10.871
322 2 21.6991 13.5724 13.5836
323 2 2.69705 10.8564 13.581
324 2 2.70139 13.5669 10.8726
325 2 1.33573 12.2147 12.2275
326 2 1.33988 14.9253 14.9398
327 2 4.07323 12.2029 14.9274
328 2 4.07874 14.9 12.2357
329 2 5.434 10.8511 10.8805
330 2 5.46502 13.5139 13.5631
332 2 8.12797 13.5453 10.8805
333 2 6.86862 12.1106 12.24
334 2 6.77595 14.9058 14.9274
335 2 9.4639 12.1109 14.8354
336 2 9.47558 14.9187 12.228
338 2 10.8233 13.5456 13.5758
339 2 13.5175 10.8515 13.5759
340 2 13.486 13.5143 10.8928
341 2 12.0829 12.111 12.2164
342 2 12.1808 14.9134 14.9333
343 2 14.8853 12.209 14.9335
344 2 14.8723 14.9005 12.22
345 2 16.2541 10.8567 10.875
346 2 16.2496 13.5674 13.5831
347 2 18.9774 10.8602 13.5847
348 2 18.9758 13.5725 10.8717
349 2 17.6154 12.2151 12.2283
350 2 17.6138 14.9278 14.9382
351 2 20.338 12.2168 14.9414
352 2 20.3375 14.9301 12.2276
353 2 21.699 16.287 10.8712
354 2 21.6996 19.0032 13.5825
355 2 2.70627 16.2724 13.5788
356 2 2.69176 19.0036 10.8713
357 2 1.33915 17.6395 12.23
358 2 1.33319 20.3646 14.94
359 2 4.05333 17.6388 14.9397
360 2 4.0488 20.3653 12.2275
361 2 5.41167 16.2774 10.8726
362 2 5.40634 19.0037 13.5836
363 2 8.12238 16.2821 13.581
364 2 8.11866 19.0053 10.8711
365 2 6.76394 17.6432 12.2274
366 2 6.76203 20.365 14.9412
367 2 9.47579 17.6434 14.9394
368 2 9.47548 20.3656 12.2279
369 2 10.8285 16.2823 10.8749
370 2 10.8323 19.0055 13.5848
371 2 13.5393 16.2779 13.5831
372 2 13.5446 19.0041 10.8719
373 2 12.187 17.6436 12.2283
374 2 12.189 20.3661 14.9415
375 2 14.8998 17.642 14.9382
376 2 14.9022 20.3657 12.2279
377 2 16.2446 16.2727 10.8765
378 2 16.2593 19.004 13.584
379 2 18.9758 16.2872 13.5838
380 2 18.9754 19.0034 10.8726
381 2 17.6118 17.6399 12.2251
382 2 17.618 20.3662 14.9403
383 2 20.3382 17.6458 14.9401
384 2 20.3376 20.3654 12.2276
385 2 21.6963 21.7238 16.2971
386 2 21.6955 2.7171 19.0136
387 2 2.68964 -0.00114892 19.0135
388 2 2.69078 2.71818 16.2979
389 2 1.33117 1.35862 17.6554
390 2 1.33109 4.07511 20.3723
391 2 4.04764 1.35854 20.3722
392 2 4.04965 4.07708 17.6539
393 2 5.40576 0.0030192 16.2976
394 2 5.40544 2.71816 19.0129
395 2 8.11909 0.0029832 19.0117
396 2 8.12059 2.7295 16.2919
397 2 6.76528 1.3651 17.652
398 2 6.76522 4.07894 20.3662
399 2 9.4779 1.36704 20.3644
400 2 9.48375 4.10681 17.6249
401 2 10.8315 0.00326106 16.2973
402 2 10.8268 2.73428 18.9974
403 2 13.5433 0.00449722 19.0107
404 2 13.5351 2.73453 16.2876
405 2 12.1877 1.368 17.6503
406 2 12.1876 4.08127 20.3639
407 2 14.9025 1.36092 20.3706
408 2 14.8973 4.08188 17.6499
409 2 16.2582 0.0045048 16.2958
410 2 16.2572 2.72151 19.0098
411 2 18.9777 21.7249 19.0131
412 2 18.9747 2.72056 16.2958
413 2 17.618 1.36089 17.6551
414 2 17.618 4.07598 20.3706
415 2 20.3369 1.35847 20.3724
416 2 20.3366 4.07626 17.6548
417 2 21.6995 5.43325 16.2977
418 2 21.6992 8.14658 19.0117
419 2 2.69063 5.43282 19.0129
420 2 2.70162 8.14803 16.2917
421 2 1.33748 6.79275 17.6521
422 2 1.33914 9.50541 20.3642
423 2 4.05132 6.79267 20.3661
424 2 4.07889 9.5112 17.6246
425 2 5.40856 5.43613 16.2953
426 2 5.41178 8.14801 19.0021
427 2 8.12047 5.43961 19.0023
428 2 8.12821 8.15606 16.27
429 2 6.77061 6.79823 17.6376
430 2 6.76395 9.50286 20.3678
431 2 9.47524 6.79185 20.368
432 2 9.47577 9.50364 17.6433
433 2 10.8111 5.49322 16.2389
434 2 10.8287 8.15042 19.0069
435 2 13.535 5.44398 18.9974
436 2 13.4863 8.16841 16.2389
437 2 12.1754 6.80407 17.6308
438 2 12.1871 9.50379 20.3681
439 2 14.8977 6.79111 20.364
440 2 14.8725 9.49553 17.6252
441 2 16.2448 5.44399 16.2876
442 2 16.2447 8.15191 18.9974
443 2 18.9746 5.43504 19.0107
444 2 18.976 8.14719 16.2972
445 2 17.6113 6.79108 17.6504
446 2 17.6118 9.50053 20.3645
447 2 20.3369 6.7903 20.3705
448 2 20.3376 9.5031 17.6548
449 2 21.6991 10.8591 16.297
450 2 21.7003 13.5708 19.0103
451 2 2.70618 10.8542 18.997
452 2 2.70629 13.5625 16.2871
453 2 1.33988 12.2152 17.6499
454 2 1.33278 14.93 20.3701
455 2 4.05316 12.2151 20.3633
456 2 4.05374 14.9247 17.6492
457 2 5.46506 10.8387 16.2385
458 2 5.41581 13.5625 18.9968
459 2 8.12234 10.8565 19.0067
460 2 8.14021 13.5141 16.2385
461 2 6.77596 12.203 17.6303
462 2 6.76297 14.9253 20.3633
463 2 9.47568 12.215 20.3679
464 2 9.4674 14.9003 17.6247
465 2 10.8233 10.8514 16.2701
466 2 10.8305 13.5673 19.0022
467 2 13.5393 10.8586 19.0023
468 2 13.5429 13.571 16.2954
469 2 12.1809 12.2089 17.6379
470 2 12.1856 14.9278 20.3663
471 2 14.8997 12.2137 20.3665
472 2 14.9017 14.9298 17.6542
473 2 16.2497 10.8586 16.2919
474 2 16.2604 13.5735 19.013
475 2 18.9758 10.8593 19.0117
476 2 18.9758 13.5731 16.2976
477 2 17.6139 12.2137 17.6524
478 2 17.6198 14.9311 20.3725
479 2 20.338 12.2155 20.3703
480 2 20.3386 14.9301 17.6546
481 2 21.7004 16.2858 16.2954
482 2 21.6971 19.0052 19.0129
483 2 2.69349 16.2847 19.0093
484 2 2.69281 19.0021 16.2954
485 2 1.33294 17.6456 17.6546
486 2 1.33078 20.3644 20.3722
487 2 4.04803 17.6454 20.37
488 2 4.04861 20.364 17.6544
489 2 5.41593 16.2724 16.2871
490 2 5.40732 19.0021 19.0103
491 2 8.12388 16.2725 18.997
492 2 8.1194 19.0039 16.297
493 2 6.76312 17.6389 17.6498
494 2 6.76261 20.3645 20.3702
495 2 9.47254 17.6397 20.3642