ITEM: TIMESTEP
0
ITEM: NUMBER OF ATOMS
504
ITEM: BOX BOUNDS pp pp pp
0.0000000000000000e+00 2.1724000000000000e+01
0.0000000000000000e+00 2.1724000000000000e+01
0.0000000000000000e+00 2.1724000000000000e+01
ITEM: ATOMS id type x y z
1 2 21.6973 21.721 0.00688225
2 2 21.6969 2.71493 2.72619
3 2 2.68745 21.7205 2.72477
4 2 2.69088 2.71495 0.00630037
5 2 1.33124 1.35658 1.36548
6 2 1.33187 4.07362 4.0858
7 2 4.0455 1.35692 4.08394
8 2 4.0483 4.07206 1.36949
9 2 5.40358 21.724 0.00751835
10 2 5.40732 2.71783 2.73233
11 2 8.11877 0.00678071 2.73421
12 2 8.11782 2.71709 0.0091092
13 2 6.76084 1.35864 1.36924
14 2 6.76167 4.07952 4.09599
15 2 9.46794 1.37418 4.10031
16 2 9.47402 4.07461 1.37142
17 2 10.8297 0.0021368 0.00990572
18 2 10.8296 2.72181 2.73604
19 2 13.5441 0.00241007 2.72871
20 2 13.5457 2.71794 0.0107972
21 2 12.1852 1.36252 1.37221
22 2 12.1758 4.08487 4.10209
23 2 14.8989 1.36373 4.08939
24 2 14.9 4.07789 1.37327
25 2 16.263 21.7239 0.00874342
26 2 16.2605 2.71804 2.72856
27 2 18.9788 21.7229 2.72683
28 2 18.9815 2.71514 0.00829986
29 2 17.6208 1.35907 1.36846
30 2 17.6157 4.07805 4.08923
31 2 20.3365 1.35835 4.08599
32 2 20.3386 4.07428 1.36745
33 2 21.7 5.42945 0.00718387
34 2 21.7026 8.14432 2.73181
35 2 2.69281 5.43167 2.73109
36 2 2.69029 8.14175 0.00552514
37 2 1.33372 6.78625 1.36899
38 2 1.34647 9.49239 4.09852
39 2 4.05248 6.78736 4.09537
40 2 4.0482 9.49761 1.36666
41 2 5.40397 5.42992 0.00741903
42 2 5.40477 8.14158 2.72905
43 2 8.11653 5.43192 2.73081
44 2 8.11626 8.14489 0.00694921
45 2 6.76113 6.78632 1.36769
46 2 6.76207 9.49594 4.08983
47 2 9.4689 6.79126 4.09125
48 2 9.47293 9.5019 1.36743
49 2 10.8308 5.43189 0.0104455
50 2 10.8266 8.1452 2.73044
51 2 13.5383 5.43272 2.73627
52 2 13.5427 8.1464 0.0102018
53 2 12.1862 6.78937 1.37164
54 2 12.1772 9.50034 4.09737
55 2 14.884 6.79407 4.10295
56 2 14.8988 9.50238 1.37236
57 2 16.2604 5.43145 0.0103244
58 2 16.2509 8.1421 2.73527
59 2 18.9779 5.4314 2.7278
60 2 18.9779 8.14298 0.00836771
61 2 17.6158 6.78987 1.37184
62 2 17.6146 9.50084 4.08753
63 2 20.3395 6.78711 4.08726
64 2 20.3392 9.49817 1.36886
65 2 21.6965 10.8534 0.00552137
66 2 21.6956 13.5679 2.72487
67 2 2.69262 10.8521 2.73029
68 2 2.68784 13.5676 0.00340759
69 2 1.33208 12.209 1.3675
70 2 1.333 14.9221 4.0855
71 2 4.05544 12.2001 4.09579
72 2 4.04623 14.9239 1.3653
73 2 5.40228 10.8559 0.00409466
74 2 5.40224 13.5642 2.72943
75 2 8.11471 10.8546 2.72912
76 2 8.1139 13.5719 0.00565944
77 2 6.75949 12.2112 1.36619
78 2 6.76397 14.9106 4.09673
79 2 9.46892 12.208 4.09475
80 2 9.47098 14.929 1.36714
81 2 10.8283 10.8612 0.00760532
82 2 10.8238 13.5699 2.73128
83 2 13.5374 10.8557 2.73351
84 2 13.5414 13.5749 0.00778613
85 2 12.1854 12.2164 1.37034
86 2 12.1842 14.9304 4.08549
87 2 14.8981 12.2162 4.08619
88 2 14.9011 14.9329 1.36669
89 2 16.2566 10.8583 0.00912664
90 2 16.2584 13.5735 2.726
91 2 18.977 10.8557 2.72685
92 2 18.9756 13.5711 0.00736887
93 2 17.6175 12.2145 1.36759
94 2 17.6184 14.9314 4.08396
95 2 20.3398 12.2107 4.08609
96 2 20.3358 14.9281 1.36662
97 2 21.6945 16.286 0.00613419
98 2 21.6941 19.0033 2.72404
99 2 2.68717 16.283 2.72309
100 2 2.68705 19.0032 0.00638053
101 2 1.32854 17.6442 1.36533
102 2 1.32868 20.3616 4.08288
103 2 4.04667 17.639 4.08395
104 2 4.04538 20.3623 1.36487
105 2 5.40179 16.2848 0.00451572
106 2 5.4019 19.0026 2.7254
107 2 8.11177 16.2805 2.731
108 2 8.11563 19.006 0.00690771
109 2 6.75924 17.643 1.36592
110 2 6.75879 20.3649 4.08426
111 2 9.47178 17.6438 4.08453
112 2 9.47053 20.368 1.36948
113 2 10.8277 16.2893 0.00681783
114 2 10.8285 19.0079 2.72794
115 2 13.5425 16.2906 2.72663
116 2 13.5452 19.008 0.00777545
117 2 12.1857 17.6498 1.36618
118 2 12.1839 20.37 4.08797
119 2 14.9013 17.65 4.08564
120 2 14.9026 20.367 1.36811
121 2 16.2601 16.2899 0.00681262
122 2 16.2611 19.0077 2.72704
123 2 18.9769 16.288 2.72469
124 2 18.9788 19.0049 0.00693457
125 2 17.6191 17.6482 1.36676
126 2 17.6188 20.3671 4.08685
127 2 20.3354 17.6459 4.08355
128 2 20.3367 20.3638 1.36629
129 2 21.6963 21.7223 5.44234
130 2 21.7026 2.71923 8.16141
131 2 2.69429 0.00395357 8.15739
132 2 2.69017 2.71594 5.44387
133 2 1.33139 1.35796 6.80056
134 2 1.3433 4.07984 9.51578
135 2 4.05506 1.36844 9.51219
136 2 4.0495 4.07474 6.8023
137 2 5.4063 0.00391323 5.4437
138 2 5.41301 2.73247 8.16264
139 2 8.11754 0.0048164 8.15678
140 2 8.12566 2.74674 5.47217
141 2 6.76238 1.36859 6.80351
142 2 6.76999 4.10096 9.52033
143 2 9.47168 1.36658 9.5148
144 2 9.45163 4.13463 6.85932
145 2 10.8285 0.00935513 5.44821
146 2 10.8178 2.74444 8.1711
147 2 13.5387 0.0126815 8.16071
148 2 13.5389 2.72397 5.44928
149 2 12.1764 1.3771 6.81081
150 2 12.1281 4.13699 9.53602
151 2 14.8851 1.38003 9.52191
152 2 14.8855 4.08693 6.81166
153 2 16.2595 0.00399757 5.44626
154 2 16.2518 2.72657 8.16137
155 2 18.9783 0.00327583 8.16025
156 2 18.9765 2.71752 5.44557
157 2 17.6148 1.36432 6.80712
158 2 17.6174 4.07813 9.51778
159 2 20.3407 1.36139 9.51713
160 2 20.339 4.07435 6.80343
161 2 21.7012 5.43213 5.44717
162 2 21.7011 8.14251 8.15884
163 2 2.70668 5.43691 8.16371
164 2 2.71827 8.1499 5.47183
165 2 1.34212 6.78743 6.80627
166 2 1.33802 9.49621 9.51622
167 2 4.07439 6.79553 9.51986
168 2 4.10387 9.47846 6.85702
169 2 5.41065 5.43712 5.45996
170 2 5.50787 8.1566 8.26146
171 2 8.12773 5.53838 8.26254
172 2 8.11472 8.14386 5.45426
173 2 6.76703 6.79654 6.82741
176 2 9.46134 9.49256 6.82829
177 2 10.8159 5.44562 5.46774
178 2 10.7235 8.13534 8.26306
179 2 13.5199 5.44746 8.1719
180 2 13.5109 8.13761 5.47421
181 2 12.1261 6.81054 6.86049
182 2 12.1597 9.49321 9.52355
183 2 14.8977 6.79366 9.51861
184 2 14.8886 9.50014 6.80676
185 2 16.2515 5.43385 5.4493
186 2 16.2561 8.14731 8.15889
187 2 18.9775 5.43289 8.15927
188 2 18.9774 8.1444 5.44367
189 2 17.616 6.78997 6.80227
190 2 17.6186 9.50317 9.5132
191 2 20.3401 6.78776 9.51614
192 2 20.34 9.49876 6.80132
193 2 21.7035 10.8537 5.44535
194 2 21.7048 13.5655 8.15397
195 2 2.71192 10.8424 8.16753
196 2 2.69423 13.5619 5.44437
197 2 1.34639 12.2016 6.8069
198 2 1.34763 14.912 9.51486
199 2 4.10456 12.1532 9.53125
200 2 4.05592 14.9098 6.80622
201 2 5.41445 10.842 5.46438
202 2 5.41575 13.5454 8.16777
203 2 8.10091 10.751 8.26265
204 2 8.10552 13.5398 5.47217
205 2 6.77821 12.1529 6.85668
206 2 6.76286 14.9205 9.51572
207 2 9.46241 12.1849 9.52155
208 2 9.46937 14.9173 6.80528
209 2 10.8183 10.8508 5.4611
210 2 10.8193 13.5543 8.16527
211 2 13.5252 10.8507 8.16484
212 2 13.5391 13.5719 5.44575
213 2 12.1812 12.2119 6.80374
214 2 12.1779 14.919 9.5158
215 2 14.8896 12.2092 9.51429
216 2 14.8985 14.9313 6.80087
217 2 16.2513 10.8551 5.44573
218 2 16.2524 13.5697 8.15862
219 2 18.9784 10.8584 8.15474
220 2 18.9771 13.5705 5.44141
221 2 17.614 12.214 6.7995
222 2 17.6151 14.93 9.51117
223 2 20.3411 12.2131 9.51153
224 2 20.3398 14.9263 6.79991
225 2 21.6961 16.2848 5.43973
226 2 21.6985 19.0052 8.15416
227 2 2.69459 16.2776 8.15352
228 2 2.68891 19.0023 5.43999
229 2 1.3328 17.641 6.79873
230 2 1.33361 20.3672 9.51107
231 2 4.04885 17.6409 9.51052
232 2 4.04701 20.3649 6.79707
233 2 5.40336 16.2762 5.44415
234 2 5.4038 19.0026 8.15315
235 2 8.11627 16.2823 8.15877
236 2 8.1153 19.0044 5.44213
237 2 6.76023 17.64 6.79823
238 2 6.76076 20.3655 9.50923
239 2 9.47286 17.6454 9.51312
240 2 9.47184 20.3672 6.79916
241 2 10.825 16.2835 5.44687
242 2 10.8291 19.0087 8.15805
243 2 13.5385 16.2842 8.16206
244 2 13.5429 19.0099 5.44561
245 2 12.1852 17.6461 6.80172
246 2 12.1847 20.3719 9.51476
247 2 14.8986 17.6473 9.5147
248 2 14.8982 20.3725 6.80519
249 2 16.2592 16.2897 5.44291
250 2 16.2578 19.0097 8.15972
251 2 18.9777 16.2874 8.15444
252 2 18.978 19.0065 5.44246
253 2 17.6175 17.6499 6.80062
254 2 17.6151 20.3715 9.51738
255 2 20.3393 17.6454 9.51155
256 2 20.3361 20.3659 6.80063
257 2 21.7065 0.00732585 10.8714
258 2 21.7088 2.72122 13.5823
259 2 2.69821 0.00700299 13.5796
260 2 2.72194 2.74518 10.8758
261 2 1.34993 1.37407 12.2201
262 2 1.35134 4.08396 14.9285
263 2 4.06163 1.37508 14.9258
264 2 4.10773 4.13117 12.2034
265 2 5.40823 0.00447746 10.8672
266 2 5.42103 2.74195 13.5673
267 2 8.1185 0.00758281 13.5805
268 2 8.1202 2.73038 10.868
269 2 6.76651 1.36707 12.2199
270 2 6.785 4.13445 14.878
271 2 9.47353 1.37472 14.9325
272 2 9.46625 4.10506 12.2168
273 2 10.8288 0.00874897 10.8712
274 2 10.8245 2.74064 13.5767
275 2 13.5416 0.0120134 13.5825
276 2 13.5148 2.75363 10.8646
277 2 12.1812 1.3753 12.2259
278 2 12.1868 4.08265 14.9399
279 2 14.9028 1.36433 14.9426
280 2 14.8927 4.08568 12.2288
281 2 16.2527 0.0126913 10.8707
282 2 16.2565 2.72472 13.5845
283 2 18.9823 0.00313668 13.5833
284 2 18.9793 2.71979 10.8735
285 2 17.6177 1.36392 12.2306
286 2 17.6197 4.07746 14.944
287 2 20.3456 1.36164 14.9386
288 2 20.3425 4.07559 12.2299
289 2 21.7025 5.432 10.8716
290 2 21.7026 8.14397 13.5819
291 2 2.71715 5.44328 13.568
292 2 2.70151 8.14256 10.8682
293 2 1.33988 6.79042 12.2236
294 2 1.34417 9.49853 14.9333
295 2 4.10889 6.80714 14.8792
296 2 4.07426 9.49104 12.2155
297 2 5.5091 5.53545 10.8793
298 2 5.51018 8.13157 13.475
299 2 8.10772 5.5395 13.4765
512 2 20.3398 20.3644 17.6521
302 2 6.77154 9.49008 14.91
303 2 9.46838 6.79837 14.9104
305 2 10.7266 5.54155 10.86
307 2 13.5295 5.44484 13.5787
308 2 13.5347 8.14689 10.8719
309 2 12.1623 6.80019 12.2199
310 2 12.1315 9.48246 14.8822
311 2 14.8938 6.79402 14.9369
312 2 14.8974 9.50079 12.2246
313 2 16.2587 5.43707 10.8739
314 2 16.259 8.14862 13.5839
315 2 18.981 5.43302 13.5863
316 2 18.9795 8.14668 10.8708
317 2 17.6209 6.7916 12.2299
318 2 17.62 9.5038 14.9412
319 2 20.3435 6.78869 14.9419
320 2 20.341 9.50168 12.2272
321 2 21.7014 10.8555 10.8687
322 2 21.7024 13.5686 13.5765
323 2 2.70678 10.849 13.5733
324 2 2.7197 13.54 10.8587
325 2 1.34303 12.2076 12.2224
326 2 1.33267 14.9282 14.9361
327 2 4.0504 12.2096 14.9356
328 2 4.05307 14.9168 12.2226
329 2 5.50789 10.7512 10.856
330 2 5.41154 13.5529 13.5736
332 2 8.11592 13.5582 10.8694
333 2 6.76808 12.1846 12.2161
334 2 6.76215 14.9179 14.9324
335 2 9.45316 12.1554 14.8802
336 2 9.46898 14.9221 12.2229
338 2 10.8162 13.5475 13.5693
339 2 13.5206 10.8469 13.5699
340 2 13.5132 13.5429 10.8772
341 2 12.1282 12.1574 12.2057
342 2 12.1757 14.9148 14.928
343 2 14.8868 12.2069 14.9288
344 2 14.8851 14.9157 12.2195
345 2 16.2563 10.8581 10.8689
346 2 16.2527 13.5687 13.5794
347 2 18.9791 10.8596 13.5816
348 2 18.9788 13.5727 10.8651
349 2 17.6183 12.2159 12.223
350 2 17.6163 14.9291 14.9344
351 2 20.3416 12.2144 14.9377
352 2 20.3411 14.9286 12.2211
353 2 21.7044 16.2806 10.8619
354 2 21.6999 19.0058 13.5775
355 2 2.69324 16.282 13.5769
356 2 2.69188 19.0045 10.865
357 2 1.33422 17.6433 12.2211
358 2 1.33612 20.3675 14.9341
359 2 4.04886 17.6434 14.9365
360 2 4.05001 20.3666 12.2212
361 2 5.40607 16.2821 10.8688
362 2 5.40533 19.0066 13.5809
363 2 8.11736 16.2845 13.5819
364 2 8.11703 19.0068 10.8693
365 2 6.76111 17.6447 12.225
366 2 6.76207 20.3692 14.9366
367 2 9.47304 17.6473 14.9387
368 2 9.47354 20.3695 12.2252
369 2 10.8271 16.285 10.8713
370 2 10.8292 19.0102 13.5842
371 2 13.5383 16.282 13.5812
372 2 13.5421 19.0101 10.8716
373 2 12.1841 17.6479 12.2269
374 2 12.1861 20.373 14.9394
375 2 14.8982 17.6461 14.9364
376 2 14.8992 20.3728 12.228
377 2 16.2518 16.2827 10.871
378 2 16.2583 19.0083 13.5815
379 2 18.9782 16.2873 13.5769
380 2 18.9786 19.0082 10.8682
381 2 17.6153 17.6468 12.2225
382 2 17.6207 20.3663 14.9383
383 2 20.3377 17.6475 14.934
384 2 20.3416 20.3689 12.2232
385 2 21.7014 21.7239 16.295
386 2 21.7014 2.71431 19.012
387 2 2.69159 8.71663e-06 19.0118
388 2 2.69954 2.72113 16.29
389 2 1.33851 1.36053 17.6499
390 2 1.3362 4.07456 20.3678
391 2 4.05083 1.36043 20.3678
392 2 4.06164 4.08465 17.6372
393 2 5.40698 0.00932569 16.2908
394 2 5.40721 2.72192 19.005
395 2 8.1154 0.00995443 19.0071
396 2 8.11137 2.75061 16.2674
397 2 6.76799 1.37634 17.638
398 2 6.7628 4.07529 20.3702
399 2 9.47505 1.36179 20.371
400 2 9.47493 4.08365 17.6443
401 2 10.8277 0.0107251 16.2948
402 2 10.8281 2.72277 19.01
403 2 13.5455 0.00214913 19.0148
404 2 13.5449 2.72295 16.2992
405 2 12.1878 1.36344 17.6562
406 2 12.1881 4.07589 20.3727
407 2 14.9047 1.35934 20.3749
408 2 14.9043 4.07745 17.6584
409 2 16.2626 0.00191213 16.2979
410 2 16.2639 2.71687 19.0155
411 2 18.9822 21.7222 19.0132
412 2 18.9837 2.71746 16.2981
413 2 17.6239 1.3586 17.6568
414 2 17.6224 4.07461 20.3749
415 2 20.3406 1.35716 20.3719
416 2 20.3457 4.07564 17.6544
417 2 21.7084 5.43039 16.2922
418 2 21.7058 8.13931 19.0051
419 2 2.69691 5.43009 19.0037
420 2 2.7222 8.13429 16.2646
421 2 1.35044 6.79151 17.6378
422 2 1.33342 9.4986 20.3678
423 2 4.0493 6.78664 20.3681
424 2 4.05471 9.49804 17.6411
425 2 5.42134 5.44438 16.2707
426 2 5.40641 8.14347 19.0071
427 2 8.11917 5.43378 19.0101
428 2 8.12061 8.14423 16.2836
429 2 6.76741 6.79191 17.6467
430 2 6.761 9.50105 20.3679
431 2 9.47532 6.78909 20.3722
432 2 9.47219 9.49859 17.6472
433 2 10.8245 5.44375 16.2815
434 2 10.8295 8.14718 19.0111
435 2 13.5425 5.43683 19.0118
436 2 13.5164 8.15605 16.2702
437 2 12.1829 6.79317 17.6462
438 2 12.1864 9.50417 20.3721
439 2 14.902 6.79029 20.3745
440 2 14.8877 9.49935 17.6423
441 2 16.2573 5.43762 16.298
442 2 16.2536 8.14835 19.0094
443 2 18.9823 5.43077 19.0138
444 2 18.9803 8.14484 16.2985
445 2 17.6199 6.78986 17.6582
446 2 17.6162 9.50082 20.3727
447 2 20.3424 6.78852 20.3712
448 2 20.3417 9.50059 17.6549
449 2 21.7023 10.8533 16.2928
450 2 21.6943 13.5695 19.0119
451 2 2.69194 10.8519 19.0039
452 2 2.6905 13.5689 16.2931
453 2 1.33146 12.213 17.6522
454 2 1.32891 14.9284 20.3705
455 2 4.0463 12.2117 20.3647
456 2 4.04661 14.9287 17.6511
457 2 5.4136 10.848 16.2773
458 2 5.4059 13.5677 19.0041
459 2 8.1175 10.8571 19.0067
460 2 8.1257 13.5414 16.2653
461 2 6.76227 12.2078 17.6412
462 2 6.75943 14.9284 20.3658
463 2 9.47195 12.2163 20.3682
464 2 9.46803 14.9158 17.6368
465 2 10.8182 10.8462 16.2723
466 2 10.8286 13.5701 19.0047
467 2 13.5385 10.8605 19.0067
468 2 13.5388 13.5687 16.291
469 2 12.1764 12.2072 17.6391
470 2 12.1841 14.9311 20.3681
471 2 14.8984 12.2157 20.3709
472 2 14.8988 14.9294 17.6506
473 2 16.253 10.8597 16.293
474 2 16.2578 13.5731 19.0121
475 2 18.977 10.8563 19.0124
476 2 18.9771 13.5714 16.2938
477 2 17.6165 12.2145 17.6533
478 2 17.6179 14.9301 20.3715
479 2 20.3351 12.2128 20.3729
480 2 20.3365 14.9293 17.6525
481 2 21.696 16.2878 16.2931
482 2 21.6971 19.0045 19.0113
483 2 2.68809 16.2867 19.0113
484 2 2.69199 19.0062 16.2937
485 2 1.33201 17.6468 17.6514
486 2 1.33227 20.3638 20.3701
487 2 4.04586 17.6466 20.3699
488 2 4.05057 20.3687 17.6505
489 2 5.40742 16.2824 16.2925
490 2 5.40469 19.0065 19.0115
491 2 8.11933 16.2819 19.0044
492 2 8.11774 19.0091 16.2963
493 2 6.76126 17.6455 17.6517
494 2 6.76202 20.3687 20.3691
495 2 9.47136 17.6464 20.3679
496 2 9.47383 20.3712 17.6537
497 2 10.8296 16.2827 16.2912
498 2 10.8297 19.0087 19.0119
499 2 13.5443 16.2899 19.0117
500 2 13.5429 19.0087 16.2957
501 2 12.185 17.6466 17.652
502 2 12.1872 20.3671 20.3732
503 2 14.9026 17.6493 20.3711
504 2 14.9034 20.3661 17.6554
505 2 16.259 16.2886 16.2937
506 2 16.2625 19.0061 19.0123
507 2 18.977 16.2874 19.0112
508 2 18.98 19.006 16.2938
509 2 17.6195 17.6474 17.6517
510 2 17.6211 20.3648 20.372
511 2 20.3368 17.6457 20.3707
ITEM: TIMESTEP
77
ITEM: NUMBER OF ATOMS
504
ITEM: BOX BOUNDS pp pp pp
0.0000000000000000e+00 2.1724000000000000e+01
0.0000000000000000e+00 2.1724000000000000e+01
0.0000000000000000e+00 2.1724000000000000e+01
ITEM: ATOMS id type x y z
1 2 21.6964 21.7239 0.00720405
2 2 21.6977 2.71771 2.72631
3 2 2.69017 21.7252 2.72617
4 2 2.69011 2.71749 0.00820317
5 2 1.33111 1.35861 1.36649
6 2 1.33384 4.07561 4.08643
7 2 4.04804 1.36136 4.08631
8 2 4.04838 4.07584 1.36896
9 2 5.40537 21.7249 0.00774617
10 2 5.40787 2.7219 2.73191
11 2 8.11984 0.00634808 2.73121
12 2 8.11816 2.71892 0.00628386
13 2 6.7616 1.36149 1.36869
14 2 6.76276 4.08345 4.09654
15 2 9.46968 1.37223 4.09707
16 2 9.47394 4.07642 1.36812
17 2 10.8297 0.00291815 0.00597324
18 2 10.8298 2.72102 2.7311
19 2 13.5441 0.00101031 2.72586
20 2 13.5433 2.71935 0.00565268
21 2 12.186 1.36159 1.36804
22 2 12.1811 4.08172 4.09483
23 2 14.9009 1.36058 4.08548
24 2 14.9009 4.07647 1.36753
25 2 16.2609 21.7244 0.0071093
26 2 16.2604 2.71741 2.72544
27 2 18.9787 21.724 2.72498
28 2 18.9784 2.71717 0.00701979
29 2 17.6196 1.35884 1.36636
30 2 17.619 4.07567 4.08489
31 2 20.3379 1.35874 4.08375
32 2 20.3379 4.07478 1.36659
33 2 21.6974 5.43284 0.0078365
34 2 21.7025 8.14738 2.73111
35 2 2.69433 5.43532 2.73186
36 2 2.69113 8.14555 0.00604284
37 2 1.33387 6.7891 1.36872
38 2 1.34428 9.49725 4.09688
39 2 4.05575 6.7903 4.09645
40 2 4.04853 9.50141 1.3678
41 2 5.40488 5.43239 0.00589477
42 2 5.40663 8.14605 2.72966
43 2 8.11847 5.43448 2.72986
44 2 8.1177 8.14549 0.00664798
45 2 6.76129 6.78891 1.36758
46 2 6.76467 9.50145 4.09049
47 2 9.47375 6.79262 4.09072
48 2 9.47446 9.50235 1.36675
49 2 10.8309 5.43269 0.00623028
50 2 10.8306 8.14587 2.72774
51 2 13.5424 5.43278 2.73064
52 2 13.5439 8.14599 0.00559949
53 2 12.1876 6.78914 1.36731
54 2 12.1853 9.50197 4.08989
55 2 14.896 6.79257 4.09259
56 2 14.9015 9.50209 1.36687
57 2 16.2585 5.43387 0.00522229
58 2 16.2575 8.14509 2.72917
59 2 18.9793 5.43298 2.72604
60 2 18.9766 8.14661 0.005283
61 2 17.6179 6.78983 1.36706
62 2 17.614 9.50363 4.08962
63 2 20.3401 6.78922 4.08654
64 2 20.3392 9.50093 1.36787
65 2 21.6989 10.8572 0.00565311
66 2 21.6968 13.5716 2.72539
67 2 2.69292 10.8573 2.73062
68 2 2.69121 13.5707 0.00504855
69 2 1.33349 12.2135 1.36762
70 2 1.33237 14.9285 4.08493
71 2 4.05355 12.2086 4.09427
72 2 4.04833 14.9284 1.36685
73 2 5.40464 10.8584 0.00578933
74 2 5.40459 13.5699 2.73007
75 2 8.11776 10.8585 2.7275
76 2 8.11785 13.5717 0.00520783
77 2 6.76104 12.2152 1.36682
78 2 6.76437 14.9237 4.09199
79 2 9.47381 12.2132 4.08964
80 2 9.47394 14.9294 1.36648
81 2 10.831 10.8591 0.00606837
82 2 10.8297 13.5715 2.72802
83 2 13.5433 10.8579 2.72816
84 2 13.5441 13.5722 0.00419154
85 2 12.1877 12.2158 1.36682
86 2 12.1871 14.9275 4.08867
87 2 14.8993 12.2153 4.08879
88 2 14.9019 14.9301 1.36571
89 2 16.2588 10.8583 0.00469829
90 2 16.2593 13.5716 2.72671
91 2 18.9771 10.8573 2.72752
92 2 18.9783 13.5724 0.00693685
93 2 17.6186 12.2146 1.36605
94 2 17.619 14.9302 4.08441
95 2 20.339 12.2136 4.08615
96 2 20.3376 14.9302 1.36622
97 2 21.6964 16.2885 0.00669674
98 2 21.6962 19.0062 2.72474
99 2 2.68935 16.2879 2.72488
100 2 2.68945 19.0058 0.00665755
101 2 1.33086 17.6471 1.36589
102 2 1.33095 20.3655 4.08351
103 2 4.04763 17.6465 4.08429
104 2 4.04707 20.3654 1.36623
105 2 5.40586 16.2861 0.00468823
106 2 5.40519 19.0068 2.72571
107 2 8.11702 16.2853 2.72883
108 2 8.11887 19.0044 0.00513292
109 2 6.76184 17.6455 1.36652
110 2 6.76144 20.3678 4.08625
111 2 9.47559 17.6419 4.08932
112 2 9.47319 20.3671 1.36779
113 2 10.8303 16.2869 0.00457723
114 2 10.8295 19.0052 2.72762
115 2 13.5435 16.2875 2.72675
116 2 13.5446 19.0065 0.00714897
117 2 12.1866 17.6467 1.36599
118 2 12.1858 20.3672 4.08633
119 2 14.9021 17.6472 4.08448
120 2 14.9024 20.3658 1.36651
121 2 16.2609 16.2889 0.00705262
122 2 16.2608 19.0063 2.72523
123 2 18.9782 16.2886 2.72503
124 2 18.9786 19.0063 0.0071296
125 2 17.6196 17.6476 1.36607
126 2 17.6194 20.3654 4.08372
127 2 20.3374 17.6472 4.08349
128 2 20.3374 20.3651 1.36597
129 2 21.6977 21.7253 5.44273
130 2 21.7034 2.72201 8.16044
131 2 2.6944 0.00695886 8.16029
132 2 2.69505 2.72255 5.44755
133 2 1.33383 1.36143 6.80061
134 2 1.3441 4.08349 9.51535
135 2 4.05591 1.37163 9.51521
136 2 4.0556 4.08317 6.8081
137 2 5.40782 0.00694878 5.44682
138 2 5.41961 2.74093 8.17204
139 2 8.11853 0.00508796 8.15932
140 2 8.12445 2.74258 5.46744
141 2 6.76275 1.37165 6.8083
142 2 6.78035 4.1107 9.53278
143 2 9.47388 1.36601 9.51743
144 2 9.46031 4.12101 6.84583
145 2 10.8298 0.00625624 5.44586
146 2 10.8255 2.73573 8.16733
147 2 13.5424 0.00590352 8.15765
148 2 13.5424 2.7204 5.44527
149 2 12.181 1.37 6.80657
150 2 12.1719 4.10238 9.52576
151 2 14.8961 1.36784 9.51748
152 2 14.8976 4.07937 6.80427
153 2 16.2604 0.00053814 5.44236
154 2 16.2585 2.71956 8.15777
155 2 18.9793 0.00117665 8.15798
156 2 18.9797 2.71774 5.44273
157 2 17.619 1.35994 6.80066
158 2 17.6155 4.0778 9.51636
159 2 20.3403 1.36166 9.51424
160 2 20.3405 4.07603 6.80104
161 2 21.7033 5.43542 5.44692
162 2 21.7012 8.14614 8.15924
163 2 2.71329 5.44714 8.17202
164 2 2.71467 8.15196 5.46721
165 2 1.34395 6.79035 6.80836
166 2 1.33805 9.50146 9.51728
167 2 4.08301 6.8079 9.53272
168 2 4.09302 9.48789 6.84553
169 2 5.41949 5.44714 5.46575
170 2 5.48953 8.17395 8.24202
171 2 8.14625 5.51746 8.24221
172 2 8.12302 8.15093 5.45375
173 2 6.7802 6.80794 6.83546
176 2 9.47571 9.50368 6.81777
177 2 10.8254 5.44249 5.46043
178 2 10.8172 8.15978 8.19803
179 2 13.5385 5.43866 8.16341
180 2 13.5338 8.14564 5.45783
181 2 12.1717 6.8009 6.82709
182 2 12.1023 9.52031 9.60571
183 2 14.8888 6.79664 9.52145
184 2 14.8779 9.50907 6.82399
185 2 16.2584 5.43282 5.44435
186 2 16.2521 8.14728 8.16189
187 2 18.9774 5.43264 8.15753
188 2 18.9775 8.14578 5.44379
189 2 17.6153 6.79136 6.80264
190 2 17.6168 9.50232 9.51481
191 2 20.3391 6.78906 9.51397
192 2 20.3393 9.50157 6.8012
193 2 21.7021 10.8574 5.44552
194 2 21.7016 13.57 8.15717
195 2 2.70753 10.853 8.16687
196 2 2.69215 13.5699 5.44465
197 2 1.3418 12.2086 6.80613
198 2 1.3396 14.9237 9.51692
199 2 4.07418 12.1994 9.52521
200 2 4.05114 14.9252 6.80359
201 2 5.41433 10.853 5.46
202 2 5.41038 13.5661 8.16285
203 2 8.13163 10.8452 8.19778
204 2 8.1174 13.5617 5.45745
205 2 6.7727 12.1995 6.8266
206 2 6.76843 14.9165 9.52084
207 2 9.49216 12.1302 9.60546
208 2 9.48086 14.9059 6.82362
209 2 10.8277 10.8558 5.45101
210 2 10.8167 13.5259 8.20322
211 2 13.4977 10.845 8.20336
212 2 13.5382 13.5665 5.4522
213 2 12.1791 12.2073 6.81701
214 2 12.1779 14.9105 9.52425
215 2 14.8824 12.2061 9.52436
216 2 14.8989 14.9272 6.80321
217 2 16.2483 10.8547 5.45389
218 2 16.2481 13.5653 8.16482
219 2 18.9773 10.8586 8.15729
220 2 18.9765 13.5709 5.44385
221 2 17.6132 12.2151 6.80341
222 2 17.6131 14.9266 9.51453
223 2 20.3384 12.2153 9.51368
224 2 20.3384 14.9286 6.80097
225 2 21.6964 16.288 5.44191
226 2 21.6973 19.0069 8.15773
227 2 2.6914 16.286 8.15718
228 2 2.68988 19.0072 5.44235
229 2 1.33185 17.6466 6.80017
230 2 1.33387 20.3678 9.51397
231 2 4.04974 17.643 9.51573
232 2 4.04823 20.368 6.80066
233 2 5.4047 16.286 5.44383
234 2 5.40477 19.005 8.15718
235 2 8.11914 16.28 8.16157
236 2 8.11793 19.0054 5.44365
237 2 6.7633 17.643 6.80211
238 2 6.76128 20.3668 9.51364
239 2 9.47427 17.6447 9.51451
240 2 9.47377 20.3673 6.80113
241 2 10.8266 16.2764 5.4538
242 2 10.8307 19.0055 8.1574
243 2 13.5372 16.2763 8.16487
244 2 13.543 19.0048 5.4441
245 2 12.1871 17.6414 6.80337
246 2 12.1875 20.3666 9.51387
247 2 14.8985 17.6413 9.51461
248 2 14.9007 20.3666 6.80128
249 2 16.2587 16.2869 5.44395
250 2 16.2584 19.0044 8.15868
251 2 18.9762 16.2863 8.15847
252 2 18.9782 19.0061 5.44206
253 2 17.6186 17.6468 6.80028
254 2 17.6178 20.3662 9.51469
255 2 20.3381 17.6457 9.51444
256 2 20.3378 20.3656 6.7997
257 2 21.7028 0.00637154 10.8724
258 2 21.7026 2.72091 13.5824
259 2 2.69341 0.0060316 13.5822
260 2 2.71502 2.7425 10.8769
261 2 1.34466 1.37216 12.2222
262 2 1.34233 4.08153 14.9336
263 2 4.05409 1.36973 14.9335
264 2 4.0934 4.12088 12.2128
265 2 5.40692 0.00499561 10.8709
266 2 5.41485 2.73549 13.5779
267 2 8.11821 0.00304301 13.5833
268 2 8.12335 2.72918 10.8758
269 2 6.76503 1.3659 12.2263
270 2 6.77323 4.10213 14.9244
271 2 9.4743 1.36521 14.938
272 2 9.47607 4.09322 12.2285
273 2 10.8309 0.00318274 10.8707
274 2 10.8282 2.72659 13.5807
275 2 13.5437 0.00370284 13.5827
276 2 13.5341 2.73328 10.8705
277 2 12.1856 1.36534 12.2268
278 2 12.1796 4.09259 14.9322
279 2 14.8998 1.36429 14.9401
280 2 14.8782 4.0994 12.234
281 2 16.2577 0.00453443 10.87
282 2 16.2488 2.7294 13.5797
283 2 18.9775 0.00294001 13.5822
284 2 18.9778 2.71909 10.8708
285 2 17.6143 1.36495 12.2286
286 2 17.6138 4.07884 14.9401
287 2 20.3396 1.36153 14.9386
288 2 20.3397 4.07647 12.2266
289 2 21.7014 5.43449 10.8711
290 2 21.6992 8.14573 13.5833
291 2 2.70793 5.44227 13.5779
292 2 2.70128 8.15084 10.8756
293 2 1.33826 6.79254 12.2264
294 2 1.33735 9.50177 14.9379
295 2 4.07456 6.80064 14.9243
296 2 4.06532 9.50354 12.2283
297 2 5.48975 5.51737 10.8987
298 2 5.44552 8.15955 13.5698
299 2 8.13204 5.47333 13.57
512 2 20.338 20.3656 17.655
302 2 6.85317 9.52009 14.8548
303 2 9.49253 6.88105 14.855
305 2 10.8174 5.47348 10.8846
307 2 13.4981 5.47895 13.5698
308 2 13.522 8.15369 10.8783
309 2 12.1025 6.88119 12.2451
310 2 12.0916 9.49327 14.8442
311 2 14.8828 6.79987 14.9309
312 2 14.8932 9.50172 12.2264
313 2 16.2523 5.43726 10.8721
314 2 16.2553 8.14776 13.581
315 2 18.9777 5.43271 13.5835
316 2 18.9781 8.14562 10.8704
317 2 17.617 6.79012 12.2272
318 2 17.616 9.50223 14.939
319 2 20.3388 6.78907 14.9403
320 2 20.3383 9.50236 12.2271
321 2 21.699 10.8585 10.8704
322 2 21.6995 13.5713 13.5822
323 2 2.69848 10.8556 13.5803
324 2 2.705 13.5616 10.8699
325 2 1.3372 12.2131 12.2264
326 2 1.33617 14.9273 14.9396
327 2 4.06449 12.2071 14.9317
328 2 4.07121 14.9057 12.2333
329 2 5.44531 10.8451 10.8841
330 2 5.45071 13.5256 13.5692
332 2 8.12544 13.5498 10.8779
333 2 6.85302 12.1301 12.2446
334 2 6.77175 14.9103 14.9303
335 2 9.46525 12.1194 14.8439
336 2 9.47357 14.9211 12.226
338 2 10.8213 13.5473 13.5738
339 2 13.5193 10.8495 13.574
340 2 13.4905 13.5187 10.8889
341 2 12.0914 12.1195 12.2178
342 2 12.1791 14.9133 14.9316
343 2 14.8853 12.2072 14.9317
344 2 14.8746 14.9027 12.2189
345 2 16.2551 10.8563 10.8723
346 2 16.2497 13.5665 13.5816
347 2 18.9775 10.859 13.5836
348 2 18.9767 13.5718 10.8704
349 2 17.6159 12.2142 12.2268
350 2 17.6137 14.927 14.937
351 2 20.3383 12.2157 14.9403
352 2 20.3381 14.9294 12.2265
353 2 21.7004 16.2853 10.8695
354 2 21.6992 19.005 13.582
355 2 2.70131 16.2762 13.5791
356 2 2.69125 19.0053 10.8704
357 2 1.33694 17.6418 12.2281
358 2 1.33387 20.367 14.9383
359 2 4.05089 17.6412 14.9395
360 2 4.04875 20.3671 12.2262
361 2 5.40913 16.2799 10.8716
362 2 5.40493 19.0052 13.5831
363 2 8.11969 16.2831 13.5807
364 2 8.11778 19.006 10.8702
365 2 6.76212 17.6446 12.2267
366 2 6.76139 20.3663 14.9399
367 2 9.47427 17.6438 14.9386
368 2 9.47462 20.3662 12.227
369 2 10.8282 16.2832 10.8722
370 2 10.8312 19.0056 13.5837
371 2 13.5385 16.2779 13.5817
372 2 13.5439 19.005 10.8707
373 2 12.1862 17.6439 12.2267
374 2 12.188 20.3664 14.9405
375 2 14.899 17.6418 14.9371
376 2 14.9017 20.3662 12.2268
377 2 16.2464 16.2745 10.8748
378 2 16.259 19.0041 13.583
379 2 18.9761 16.2868 13.5828
380 2 18.9767 19.0046 10.8714
381 2 17.613 17.641 12.2243
382 2 17.6189 20.3655 14.9393
383 2 20.3375 17.6466 14.9391
384 2 20.3394 20.3671 12.2258
385 2 21.6973 21.7248 16.2965
386 2 21.6969 2.71718 19.013
387 2 2.68975 0.000196506 19.0128
388 2 2.69272 2.72007 16.2949
389 2 1.3329 1.36032 17.6534
390 2 1.33223 4.07544 20.3716
391 2 4.048 1.35963 20.3714
392 2 4.05166 4.07904 17.6501
393 2 5.40511 0.00556382 16.2948
394 2 5.40514 2.71921 19.0109
395 2 8.11741 0.00427886 19.0101
396 2 8.11795 2.73302 16.2866
397 2 6.76489 1.36753 17.6486
398 2 6.76368 4.07752 20.3679
399 2 9.47595 1.36478 20.3667
400 2 9.48138 4.0992 17.6307
401 2 10.8301 0.00359786 16.2962
402 2 10.8271 2.72927 19.0013
403 2 13.5439 0.0021805 19.0123
404 2 13.5388 2.72776 16.2914
405 2 12.1875 1.36422 17.6523
406 2 12.1874 4.07879 20.3663
407 2 14.9025 1.35983 20.372
408 2 14.8995 4.0787 17.6521
409 2 16.2597 0.00218894 16.2964
410 2 16.2592 2.7193 19.0118
411 2 18.9786 21.7243 19.0135
412 2 18.9771 2.71927 16.2958
413 2 17.6195 1.35981 17.6551
414 2 17.619 4.07555 20.3717
415 2 20.3377 1.35873 20.3722
416 2 20.3389 4.07633 17.6536
417 2 21.7021 5.43256 16.2949
418 2 21.7005 8.14486 19.0101
419 2 2.69173 5.43249 19.0109
420 2 2.70524 8.14532 16.2864
421 2 1.33998 6.79231 17.6486
422 2 1.33693 9.50342 20.3666
423 2 4.04995 6.79108 20.3679
424 2 4.07136 9.50877 17.6305
425 2 5.41083 5.43832 16.291
426 2 5.40924 8.14696 19.0046
427 2 8.11948 5.437 19.0048
428 2 8.12568 8.15345 16.2745
429 2 6.7688 6.79635 17.6413
430 2 6.76213 9.50209 20.3693
431 2 9.47453 6.78997 20.3695
432 2 9.47375 9.50156 17.6457
433 2 10.8172 5.47883 16.2507
434 2 10.8284 8.14767 19.0079
435 2 13.5375 5.44031 19.0011
436 2 13.4908 8.16449 16.2434
437 2 12.1783 6.79981 17.6353
438 2 12.1863 9.50222 20.3686
439 2 14.8988 6.79 20.3661
440 2 14.8748 9.49444 17.6274
441 2 16.2485 5.44032 16.2902
442 2 16.2465 8.15027 18.9992
443 2 18.9766 5.43378 19.0112
444 2 18.977 8.14589 16.2966
445 2 17.6135 6.78997 17.6515
446 2 17.613 9.49965 20.3657
447 2 20.3384 6.78972 20.3706
448 2 20.3382 9.50195 17.6542
449 2 21.6995 10.8576 16.2959
450 2 21.6981 13.5714 19.0118
451 2 2.70123 10.8544 19.0008
452 2 2.6996 13.5662 16.2908
453 2 1.33617 12.215 17.6519
454 2 1.33174 14.93 20.3715
455 2 4.05074 12.2149 20.3657
456 2 4.05061 14.9269 17.6514
457 2 5.45076 10.8447 16.2502
458 2 5.41219 13.565 19.0006
459 2 8.11964 10.8561 19.0077
460 2 8.13635 13.5185 16.243
461 2 6.77176 12.2058 17.6349
462 2 6.7619 14.9264 20.3655
463 2 9.47416 12.2141 20.3683
464 2 9.46636 14.9026 17.627
465 2 10.8214 10.8494 16.2719
466 2 10.8291 13.5665 19.0022
467 2 13.5385 10.8572 19.0024
468 2 13.5406 13.5687 16.2931
469 2 12.1791 12.2071 17.6378
470 2 12.1844 14.927 20.3662
471 2 14.899 12.2126 20.3663
472 2 14.8997 14.9278 17.6522
473 2 16.2498 10.8572 16.2911
474 2 16.2592 13.5723 19.0118
475 2 18.976 10.8582 19.0115
476 2 18.9756 13.5721 16.2967
477 2 17.6137 12.2125 17.6516
478 2 17.6189 14.9301 20.3715
479 2 20.3374 12.2145 20.3712
480 2 20.3371 14.9299 17.6545
481 2 21.6982 16.2873 16.296
482 2 21.6966 19.006 19.0132
483 2 2.69131 16.2866 19.0112
484 2 2.69155 19.0045 16.2954
485 2 1.3319 17.6469 17.6546
486 2 1.33108 20.3652 20.3719
487 2 4.04762 17.6465 20.3711
488 2 4.0487 20.3663 17.6532
489 2 5.41231 16.276 16.2896
490 2 5.40607 19.0041 19.0108
491 2 8.12227 16.2743 18.9988
492 2 8.11815 19.0047 16.2964
493 2 6.76204 17.641 17.6509
494 2 6.76206 20.3659 20.3703