ITEM: TIMESTEP
0
ITEM: NUMBER OF ATOMS
504
ITEM: BOX BOUNDS pp pp pp
0.0000000000000000e+00 2.1724000000000000e+01
0.0000000000000000e+00 2.1724000000000000e+01
0.0000000000000000e+00 2.1724000000000000e+01
ITEM: ATOMS id type x y z
1 2 21.6973 21.721 0.00688225
2 2 21.6969 2.71493 2.72619
3 2 2.68745 21.7205 2.72477
4 2 2.69088 2.71495 0.00630037
5 2 1.33124 1.35658 1.36548
6 2 1.33187 4.07362 4.0858
7 2 4.0455 1.35692 4.08394
8 2 4.0483 4.07206 1.36949
9 2 5.40358 21.724 0.00751835
10 2 5.40732 2.71783 2.73233
11 2 8.11877 0.00678071 2.73421
12 2 8.11782 2.71709 0.0091092
13 2 6.76084 1.35864 1.36924
14 2 6.76167 4.07952 4.09599
15 2 9.46794 1.37418 4.10031
16 2 9.47402 4.07461 1.37142
17 2 10.8297 0.0021368 0.00990572
18 2 10.8296 2.72181 2.73604
19 2 13.5441 0.00241007 2.72871
20 2 13.5457 2.71794 0.0107972
21 2 12.1852 1.36252 1.37221
22 2 12.1758 4.08487 4.10209
23 2 14.8989 1.36373 4.08939
24 2 14.9 4.07789 1.37327
25 2 16.263 21.7239 0.00874342
26 2 16.2605 2.71804 2.72856
27 2 18.9788 21.7229 2.72683
28 2 18.9815 2.71514 0.00829986
29 2 17.6208 1.35907 1.36846
30 2 17.6157 4.07805 4.08923
31 2 20.3365 1.35835 4.08599
32 2 20.3386 4.07428 1.36745
33 2 21.7 5.42945 0.00718387
34 2 21.7026 8.14432 2.73181
35 2 2.69281 5.43167 2.73109
36 2 2.69029 8.14175 0.00552514
37 2 1.33372 6.78625 1.36899
38 2 1.34647 9.49239 4.09852
39 2 4.05248 6.78736 4.09537
40 2 4.0482 9.49761 1.36666
41 2 5.40397 5.42992 0.00741903
42 2 5.40477 8.14158 2.72905
43 2 8.11653 5.43192 2.73081
44 2 8.11626 8.14489 0.00694921
45 2 6.76113 6.78632 1.36769
46 2 6.76207 9.49594 4.08983
47 2 9.4689 6.79126 4.09125
48 2 9.47293 9.5019 1.36743
49 2 10.8308 5.43189 0.0104455
50 2 10.8266 8.1452 2.73044
51 2 13.5383 5.43272 2.73627
52 2 13.5427 8.1464 0.0102018
53 2 12.1862 6.78937 1.37164
54 2 12.1772 9.50034 4.09737
55 2 14.884 6.79407 4.10295
56 2 14.8988 9.50238 1.37236
57 2 16.2604 5.43145 0.0103244
58 2 16.2509 8.1421 2.73527
59 2 18.9779 5.4314 2.7278
60 2 18.9779 8.14298 0.00836771
61 2 17.6158 6.78987 1.37184
62 2 17.6146 9.50084 4.08753
63 2 20.3395 6.78711 4.08726
64 2 20.3392 9.49817 1.36886
65 2 21.6965 10.8534 0.00552137
66 2 21.6956 13.5679 2.72487
67 2 2.69262 10.8521 2.73029
68 2 2.68784 13.5676 0.00340759
69 2 1.33208 12.209 1.3675
70 2 1.333 14.9221 4.0855
71 2 4.05544 12.2001 4.09579
72 2 4.04623 14.9239 1.3653
73 2 5.40228 10.8559 0.00409466
74 2 5.40224 13.5642 2.72943
75 2 8.11471 10.8546 2.72912
76 2 8.1139 13.5719 0.00565944
77 2 6.75949 12.2112 1.36619
78 2 6.76397 14.9106 4.09673
79 2 9.46892 12.208 4.09475
80 2 9.47098 14.929 1.36714
81 2 10.8283 10.8612 0.00760532
82 2 10.8238 13.5699 2.73128
83 2 13.5374 10.8557 2.73351
84 2 13.5414 13.5749 0.00778613
85 2 12.1854 12.2164 1.37034
86 2 12.1842 14.9304 4.08549
87 2 14.8981 12.2162 4.08619
88 2 14.9011 14.9329 1.36669
89 2 16.2566 10.8583 0.00912664
90 2 16.2584 13.5735 2.726
91 2 18.977 10.8557 2.72685
92 2 18.9756 13.5711 0.00736887
93 2 17.6175 12.2145 1.36759
94 2 17.6184 14.9314 4.08396
95 2 20.3398 12.2107 4.08609
96 2 20.3358 14.9281 1.36662
97 2 21.6945 16.286 0.00613419
98 2 21.6941 19.0033 2.72404
99 2 2.68717 16.283 2.72309
100 2 2.68705 19.0032 0.00638053
101 2 1.32854 17.6442 1.36533
102 2 1.32868 20.3616 4.08288
103 2 4.04667 17.639 4.08395
104 2 4.04538 20.3623 1.36487
105 2 5.40179 16.2848 0.00451572
106 2 5.4019 19.0026 2.7254
107 2 8.11177 16.2805 2.731
108 2 8.11563 19.006 0.00690771
109 2 6.75924 17.643 1.36592
110 2 6.75879 20.3649 4.08426
111 2 9.47178 17.6438 4.08453
112 2 9.47053 20.368 1.36948
113 2 10.8277 16.2893 0.00681783
114 2 10.8285 19.0079 2.72794
115 2 13.5425 16.2906 2.72663
116 2 13.5452 19.008 0.00777545
117 2 12.1857 17.6498 1.36618
118 2 12.1839 20.37 4.08797
119 2 14.9013 17.65 4.08564
120 2 14.9026 20.367 1.36811
121 2 16.2601 16.2899 0.00681262
122 2 16.2611 19.0077 2.72704
123 2 18.9769 16.288 2.72469
124 2 18.9788 19.0049 0.00693457
125 2 17.6191 17.6482 1.36676
126 2 17.6188 20.3671 4.08685
127 2 20.3354 17.6459 4.08355
128 2 20.3367 20.3638 1.36629
129 2 21.6963 21.7223 5.44234
130 2 21.7026 2.71923 8.16141
131 2 2.69429 0.00395357 8.15739
132 2 2.69017 2.71594 5.44387
133 2 1.33139 1.35796 6.80056
134 2 1.3433 4.07984 9.51578
135 2 4.05506 1.36844 9.51219
136 2 4.0495 4.07474 6.8023
137 2 5.4063 0.00391323 5.4437
138 2 5.41301 2.73247 8.16264
139 2 8.11754 0.0048164 8.15678
140 2 8.12566 2.74674 5.47217
141 2 6.76238 1.36859 6.80351
142 2 6.76999 4.10096 9.52033
143 2 9.47168 1.36658 9.5148
144 2 9.45163 4.13463 6.85932
145 2 10.8285 0.00935513 5.44821
146 2 10.8178 2.74444 8.1711
147 2 13.5387 0.0126815 8.16071
148 2 13.5389 2.72397 5.44928
149 2 12.1764 1.3771 6.81081
150 2 12.1281 4.13699 9.53602
151 2 14.8851 1.38003 9.52191
152 2 14.8855 4.08693 6.81166
153 2 16.2595 0.00399757 5.44626
154 2 16.2518 2.72657 8.16137
155 2 18.9783 0.00327583 8.16025
156 2 18.9765 2.71752 5.44557
157 2 17.6148 1.36432 6.80712
158 2 17.6174 4.07813 9.51778
159 2 20.3407 1.36139 9.51713
160 2 20.339 4.07435 6.80343
161 2 21.7012 5.43213 5.44717
162 2 21.7011 8.14251 8.15884
163 2 2.70668 5.43691 8.16371
164 2 2.71827 8.1499 5.47183
165 2 1.34212 6.78743 6.80627
166 2 1.33802 9.49621 9.51622
167 2 4.07439 6.79553 9.51986
168 2 4.10387 9.47846 6.85702
169 2 5.41065 5.43712 5.45996
170 2 5.50787 8.1566 8.26146
171 2 8.12773 5.53838 8.26254
172 2 8.11472 8.14386 5.45426
173 2 6.76703 6.79654 6.82741
176 2 9.46134 9.49256 6.82829
177 2 10.8159 5.44562 5.46774
178 2 10.7235 8.13534 8.26306
179 2 13.5199 5.44746 8.1719
180 2 13.5109 8.13761 5.47421
181 2 12.1261 6.81054 6.86049
182 2 12.1597 9.49321 9.52355
183 2 14.8977 6.79366 9.51861
184 2 14.8886 9.50014 6.80676
185 2 16.2515 5.43385 5.4493
186 2 16.2561 8.14731 8.15889
187 2 18.9775 5.43289 8.15927
188 2 18.9774 8.1444 5.44367
189 2 17.616 6.78997 6.80227
190 2 17.6186 9.50317 9.5132
191 2 20.3401 6.78776 9.51614
192 2 20.34 9.49876 6.80132
193 2 21.7035 10.8537 5.44535
194 2 21.7048 13.5655 8.15397
195 2 2.71192 10.8424 8.16753
196 2 2.69423 13.5619 5.44437
197 2 1.34639 12.2016 6.8069
198 2 1.34763 14.912 9.51486
199 2 4.10456 12.1532 9.53125
200 2 4.05592 14.9098 6.80622
201 2 5.41445 10.842 5.46438
202 2 5.41575 13.5454 8.16777
203 2 8.10091 10.751 8.26265
204 2 8.10552 13.5398 5.47217
205 2 6.77821 12.1529 6.85668
206 2 6.76286 14.9205 9.51572
207 2 9.46241 12.1849 9.52155
208 2 9.46937 14.9173 6.80528
209 2 10.8183 10.8508 5.4611
210 2 10.8193 13.5543 8.16527
211 2 13.5252 10.8507 8.16484
212 2 13.5391 13.5719 5.44575
213 2 12.1812 12.2119 6.80374
214 2 12.1779 14.919 9.5158
215 2 14.8896 12.2092 9.51429
216 2 14.8985 14.9313 6.80087
217 2 16.2513 10.8551 5.44573
218 2 16.2524 13.5697 8.15862
219 2 18.9784 10.8584 8.15474
220 2 18.9771 13.5705 5.44141
221 2 17.614 12.214 6.7995
222 2 17.6151 14.93 9.51117
223 2 20.3411 12.2131 9.51153
224 2 20.3398 14.9263 6.79991
225 2 21.6961 16.2848 5.43973
226 2 21.6985 19.0052 8.15416
227 2 2.69459 16.2776 8.15352
228 2 2.68891 19.0023 5.43999
229 2 1.3328 17.641 6.79873
230 2 1.33361 20.3672 9.51107
231 2 4.04885 17.6409 9.51052
232 2 4.04701 20.3649 6.79707
233 2 5.40336 16.2762 5.44415
234 2 5.4038 19.0026 8.15315
235 2 8.11627 16.2823 8.15877
236 2 8.1153 19.0044 5.44213
237 2 6.76023 17.64 6.79823
238 2 6.76076 20.3655 9.50923
239 2 9.47286 17.6454 9.51312
240 2 9.47184 20.3672 6.79916
241 2 10.825 16.2835 5.44687
242 2 10.8291 19.0087 8.15805
243 2 13.5385 16.2842 8.16206
244 2 13.5429 19.0099 5.44561
245 2 12.1852 17.6461 6.80172
246 2 12.1847 20.3719 9.51476
247 2 14.8986 17.6473 9.5147
248 2 14.8982 20.3725 6.80519
249 2 16.2592 16.2897 5.44291
250 2 16.2578 19.0097 8.15972
251 2 18.9777 16.2874 8.15444
252 2 18.978 19.0065 5.44246
253 2 17.6175 17.6499 6.80062
254 2 17.6151 20.3715 9.51738
255 2 20.3393 17.6454 9.51155
256 2 20.3361 20.3659 6.80063
257 2 21.7065 0.00732585 10.8714
258 2 21.7088 2.72122 13.5823
259 2 2.69821 0.00700299 13.5796
260 2 2.72194 2.74518 10.8758
261 2 1.34993 1.37407 12.2201
262 2 1.35134 4.08396 14.9285
263 2 4.06163 1.37508 14.9258
264 2 4.10773 4.13117 12.2034
265 2 5.40823 0.00447746 10.8672
266 2 5.42103 2.74195 13.5673
267 2 8.1185 0.00758281 13.5805
268 2 8.1202 2.73038 10.868
269 2 6.76651 1.36707 12.2199
270 2 6.785 4.13445 14.878
271 2 9.47353 1.37472 14.9325
272 2 9.46625 4.10506 12.2168
273 2 10.8288 0.00874897 10.8712
274 2 10.8245 2.74064 13.5767
275 2 13.5416 0.0120134 13.5825
276 2 13.5148 2.75363 10.8646
277 2 12.1812 1.3753 12.2259
278 2 12.1868 4.08265 14.9399
279 2 14.9028 1.36433 14.9426
280 2 14.8927 4.08568 12.2288
281 2 16.2527 0.0126913 10.8707
282 2 16.2565 2.72472 13.5845
283 2 18.9823 0.00313668 13.5833
284 2 18.9793 2.71979 10.8735
285 2 17.6177 1.36392 12.2306
286 2 17.6197 4.07746 14.944
287 2 20.3456 1.36164 14.9386
288 2 20.3425 4.07559 12.2299
289 2 21.7025 5.432 10.8716
290 2 21.7026 8.14397 13.5819
291 2 2.71715 5.44328 13.568
292 2 2.70151 8.14256 10.8682
293 2 1.33988 6.79042 12.2236
294 2 1.34417 9.49853 14.9333
295 2 4.10889 6.80714 14.8792
296 2 4.07426 9.49104 12.2155
297 2 5.5091 5.53545 10.8793
298 2 5.51018 8.13157 13.475
299 2 8.10772 5.5395 13.4765
512 2 20.3398 20.3644 17.6521
302 2 6.77154 9.49008 14.91
303 2 9.46838 6.79837 14.9104
305 2 10.7266 5.54155 10.86
307 2 13.5295 5.44484 13.5787
308 2 13.5347 8.14689 10.8719
309 2 12.1623 6.80019 12.2199
310 2 12.1315 9.48246 14.8822
311 2 14.8938 6.79402 14.9369
312 2 14.8974 9.50079 12.2246
313 2 16.2587 5.43707 10.8739
314 2 16.259 8.14862 13.5839
315 2 18.981 5.43302 13.5863
316 2 18.9795 8.14668 10.8708
317 2 17.6209 6.7916 12.2299
318 2 17.62 9.5038 14.9412
319 2 20.3435 6.78869 14.9419
320 2 20.341 9.50168 12.2272
321 2 21.7014 10.8555 10.8687
322 2 21.7024 13.5686 13.5765
323 2 2.70678 10.849 13.5733
324 2 2.7197 13.54 10.8587
325 2 1.34303 12.2076 12.2224
326 2 1.33267 14.9282 14.9361
327 2 4.0504 12.2096 14.9356
328 2 4.05307 14.9168 12.2226
329 2 5.50789 10.7512 10.856
330 2 5.41154 13.5529 13.5736
332 2 8.11592 13.5582 10.8694
333 2 6.76808 12.1846 12.2161
334 2 6.76215 14.9179 14.9324
335 2 9.45316 12.1554 14.8802
336 2 9.46898 14.9221 12.2229
338 2 10.8162 13.5475 13.5693
339 2 13.5206 10.8469 13.5699
340 2 13.5132 13.5429 10.8772
341 2 12.1282 12.1574 12.2057
342 2 12.1757 14.9148 14.928
343 2 14.8868 12.2069 14.9288
344 2 14.8851 14.9157 12.2195
345 2 16.2563 10.8581 10.8689
346 2 16.2527 13.5687 13.5794
347 2 18.9791 10.8596 13.5816
348 2 18.9788 13.5727 10.8651
349 2 17.6183 12.2159 12.223
350 2 17.6163 14.9291 14.9344
351 2 20.3416 12.2144 14.9377
352 2 20.3411 14.9286 12.2211
353 2 21.7044 16.2806 10.8619
354 2 21.6999 19.0058 13.5775
355 2 2.69324 16.282 13.5769
356 2 2.69188 19.0045 10.865
357 2 1.33422 17.6433 12.2211
358 2 1.33612 20.3675 14.9341
359 2 4.04886 17.6434 14.9365
360 2 4.05001 20.3666 12.2212
361 2 5.40607 16.2821 10.8688
362 2 5.40533 19.0066 13.5809
363 2 8.11736 16.2845 13.5819
364 2 8.11703 19.0068 10.8693
365 2 6.76111 17.6447 12.225
366 2 6.76207 20.3692 14.9366
367 2 9.47304 17.6473 14.9387
368 2 9.47354 20.3695 12.2252
369 2 10.8271 16.285 10.8713
370 2 10.8292 19.0102 13.5842
371 2 13.5383 16.282 13.5812
372 2 13.5421 19.0101 10.8716
373 2 12.1841 17.6479 12.2269
374 2 12.1861 20.373 14.9394
375 2 14.8982 17.6461 14.9364
376 2 14.8992 20.3728 12.228
377 2 16.2518 16.2827 10.871
378 2 16.2583 19.0083 13.5815
379 2 18.9782 16.2873 13.5769
380 2 18.9786 19.0082 10.8682
381 2 17.6153 17.6468 12.2225
382 2 17.6207 20.3663 14.9383
383 2 20.3377 17.6475 14.934
384 2 20.3416 20.3689 12.2232
385 2 21.7014 21.7239 16.295
386 2 21.7014 2.71431 19.012
387 2 2.69159 8.71663e-06 19.0118
388 2 2.69954 2.72113 16.29
389 2 1.33851 1.36053 17.6499
390 2 1.3362 4.07456 20.3678
391 2 4.05083 1.36043 20.3678
392 2 4.06164 4.08465 17.6372
393 2 5.40698 0.00932569 16.2908
394 2 5.40721 2.72192 19.005
395 2 8.1154 0.00995443 19.0071
396 2 8.11137 2.75061 16.2674
397 2 6.76799 1.37634 17.638
398 2 6.7628 4.07529 20.3702
399 2 9.47505 1.36179 20.371
400 2 9.47493 4.08365 17.6443
401 2 10.8277 0.0107251 16.2948
402 2 10.8281 2.72277 19.01
403 2 13.5455 0.00214913 19.0148
404 2 13.5449 2.72295 16.2992
405 2 12.1878 1.36344 17.6562
406 2 12.1881 4.07589 20.3727
407 2 14.9047 1.35934 20.3749
408 2 14.9043 4.07745 17.6584
409 2 16.2626 0.00191213 16.2979
410 2 16.2639 2.71687 19.0155
411 2 18.9822 21.7222 19.0132
412 2 18.9837 2.71746 16.2981
413 2 17.6239 1.3586 17.6568
414 2 17.6224 4.07461 20.3749
415 2 20.3406 1.35716 20.3719
416 2 20.3457 4.07564 17.6544
417 2 21.7084 5.43039 16.2922
418 2 21.7058 8.13931 19.0051
419 2 2.69691 5.43009 19.0037
420 2 2.7222 8.13429 16.2646
421 2 1.35044 6.79151 17.6378
422 2 1.33342 9.4986 20.3678
423 2 4.0493 6.78664 20.3681
424 2 4.05471 9.49804 17.6411
425 2 5.42134 5.44438 16.2707
426 2 5.40641 8.14347 19.0071
427 2 8.11917 5.43378 19.0101
428 2 8.12061 8.14423 16.2836
429 2 6.76741 6.79191 17.6467
430 2 6.761 9.50105 20.3679
431 2 9.47532 6.78909 20.3722
432 2 9.47219 9.49859 17.6472
433 2 10.8245 5.44375 16.2815
434 2 10.8295 8.14718 19.0111
435 2 13.5425 5.43683 19.0118
436 2 13.5164 8.15605 16.2702
437 2 12.1829 6.79317 17.6462
438 2 12.1864 9.50417 20.3721
439 2 14.902 6.79029 20.3745
440 2 14.8877 9.49935 17.6423
441 2 16.2573 5.43762 16.298
442 2 16.2536 8.14835 19.0094
443 2 18.9823 5.43077 19.0138
444 2 18.9803 8.14484 16.2985
445 2 17.6199 6.78986 17.6582
446 2 17.6162 9.50082 20.3727
447 2 20.3424 6.78852 20.3712
448 2 20.3417 9.50059 17.6549
449 2 21.7023 10.8533 16.2928
450 2 21.6943 13.5695 19.0119
451 2 2.69194 10.8519 19.0039
452 2 2.6905 13.5689 16.2931
453 2 1.33146 12.213 17.6522
454 2 1.32891 14.9284 20.3705
455 2 4.0463 12.2117 20.3647
456 2 4.04661 14.9287 17.6511
457 2 5.4136 10.848 16.2773
458 2 5.4059 13.5677 19.0041
459 2 8.1175 10.8571 19.0067
460 2 8.1257 13.5414 16.2653
461 2 6.76227 12.2078 17.6412
462 2 6.75943 14.9284 20.3658
463 2 9.47195 12.2163 20.3682
464 2 9.46803 14.9158 17.6368
465 2 10.8182 10.8462 16.2723
466 2 10.8286 13.5701 19.0047
467 2 13.5385 10.8605 19.0067
468 2 13.5388 13.5687 16.291
469 2 12.1764 12.2072 17.6391
470 2 12.1841 14.9311 20.3681
471 2 14.8984 12.2157 20.3709
472 2 14.8988 14.9294 17.6506
473 2 16.253 10.8597 16.293
474 2 16.2578 13.5731 19.0121
475 2 18.977 10.8563 19.0124
476 2 18.9771 13.5714 16.2938
477 2 17.6165 12.2145 17.6533
478 2 17.6179 14.9301 20.3715
479 2 20.3351 12.2128 20.3729
480 2 20.3365 14.9293 17.6525
481 2 21.696 16.2878 16.2931
482 2 21.6971 19.0045 19.0113
483 2 2.68809 16.2867 19.0113
484 2 2.69199 19.0062 16.2937
485 2 1.33201 17.6468 17.6514
486 2 1.33227 20.3638 20.3701
487 2 4.04586 17.6466 20.3699
488 2 4.05057 20.3687 17.6505
489 2 5.40742 16.2824 16.2925
490 2 5.40469 19.0065 19.0115
491 2 8.11933 16.2819 19.0044
492 2 8.11774 19.0091 16.2963
493 2 6.76126 17.6455 17.6517
494 2 6.76202 20.3687 20.3691
495 2 9.47136 17.6464 20.3679
496 2 9.47383 20.3712 17.6537
497 2 10.8296 16.2827 16.2912
498 2 10.8297 19.0087 19.0119
499 2 13.5443 16.2899 19.0117
500 2 13.5429 19.0087 16.2957
501 2 12.185 17.6466 17.652
502 2 12.1872 20.3671 20.3732
503 2 14.9026 17.6493 20.3711
504 2 14.9034 20.3661 17.6554
505 2 16.259 16.2886 16.2937
506 2 16.2625 19.0061 19.0123
507 2 18.977 16.2874 19.0112
508 2 18.98 19.006 16.2938
509 2 17.6195 17.6474 17.6517
510 2 17.6211 20.3648 20.372
511 2 20.3368 17.6457 20.3707
ITEM: TIMESTEP
77
ITEM: NUMBER OF ATOMS
504
ITEM: BOX BOUNDS pp pp pp
0.0000000000000000e+00 2.1724000000000000e+01
0.0000000000000000e+00 2.1724000000000000e+01
0.0000000000000000e+00 2.1724000000000000e+01
ITEM: ATOMS id type x y z
1 2 21.6963 21.7238 0.00710244
2 2 21.6974 2.71753 2.72596
3 2 2.69 21.7248 2.72583
4 2 2.69011 2.71748 0.00781323
5 2 1.33109 1.35859 1.36625
6 2 1.33329 4.07544 4.08588
7 2 4.04787 1.36081 4.08576
8 2 4.04812 4.07559 1.36903
9 2 5.40534 21.7249 0.00742242
10 2 5.40774 2.72128 2.73154
11 2 8.12006 0.00680371 2.73167
12 2 8.11804 2.71858 0.00653044
13 2 6.76159 1.36116 1.36866
14 2 6.76288 4.08236 4.09588
15 2 9.46947 1.37334 4.09817
16 2 9.47397 4.07622 1.36811
17 2 10.8298 0.00248385 0.0063219
18 2 10.8299 2.72124 2.73155
19 2 13.5441 0.00109839 2.72595
20 2 13.5434 2.71924 0.00600827
21 2 12.1859 1.36162 1.36832
22 2 12.18 4.08234 4.09617
23 2 14.9007 1.36086 4.08576
24 2 14.9007 4.07668 1.36795
25 2 16.261 21.7244 0.00715655
26 2 16.2603 2.71745 2.72558
27 2 18.9786 21.724 2.72494
28 2 18.9784 2.71715 0.00698202
29 2 17.6195 1.35891 1.36641
30 2 17.6184 4.07592 4.08518
31 2 20.3377 1.35872 4.08373
32 2 20.3378 4.0749 1.36642
33 2 21.6974 5.43281 0.00751274
34 2 21.703 8.1476 2.73157
35 2 2.69371 5.43519 2.73149
36 2 2.6908 8.14543 0.0062895
37 2 1.33353 6.7891 1.3687
38 2 1.34539 9.49705 4.09799
39 2 4.05466 6.79042 4.0958
40 2 4.04833 9.50145 1.36779
41 2 5.40457 5.43208 0.00620866
42 2 5.40622 8.1457 2.72927
43 2 8.11812 5.43407 2.72947
44 2 8.11762 8.14541 0.00659983
45 2 6.76113 6.78876 1.36741
46 2 6.7642 9.50065 4.09006
47 2 9.47295 6.79215 4.0903
48 2 9.47437 9.50226 1.36676
49 2 10.8309 5.43253 0.00634903
50 2 10.8302 8.14571 2.72798
51 2 13.5416 5.4327 2.73129
52 2 13.5436 8.14604 0.00553995
53 2 12.1874 6.78918 1.36748
54 2 12.1838 9.50122 4.09169
55 2 14.8929 6.79295 4.09498
56 2 14.9011 9.50197 1.36713
57 2 16.2585 5.43386 0.00544516
58 2 16.2561 8.14445 2.73013
59 2 18.9789 5.43295 2.72605
60 2 18.9767 8.14646 0.00534303
61 2 17.6174 6.78999 1.36742
62 2 17.6148 9.503 4.08834
63 2 20.3401 6.78922 4.0862
64 2 20.3393 9.50072 1.36801
65 2 21.6984 10.8573 0.00600151
66 2 21.6969 13.5717 2.72548
67 2 2.69314 10.8573 2.73108
68 2 2.69111 13.5708 0.00540385
69 2 1.33351 12.2134 1.3679
70 2 1.33265 14.9282 4.08521
71 2 4.05417 12.2076 4.09561
72 2 4.04854 14.9282 1.36727
73 2 5.40448 10.8584 0.00590808
74 2 5.40451 13.5692 2.73072
75 2 8.1176 10.8581 2.72774
76 2 8.1179 13.5714 0.00514835
77 2 6.76108 12.2151 1.36699
78 2 6.76475 14.9205 4.09437
79 2 9.47306 12.2117 4.09144
80 2 9.47382 14.929 1.36674
81 2 10.8308 10.8589 0.00587904
82 2 10.8288 13.5707 2.72879
83 2 13.5426 10.857 2.72893
84 2 13.5438 13.5719 0.00419064
85 2 12.1874 12.2155 1.36718
86 2 12.1869 14.9281 4.08726
87 2 14.8999 12.2151 4.08739
88 2 14.9019 14.93 1.3653
89 2 16.2584 10.8583 0.00458221
90 2 16.2596 13.5718 2.72606
91 2 18.9774 10.8574 2.72709
92 2 18.9781 13.5724 0.00676376
93 2 17.6186 12.2145 1.3657
94 2 17.6191 14.9302 4.08429
95 2 20.3393 12.2135 4.08617
96 2 20.3376 14.9301 1.3662
97 2 21.6963 16.2885 0.00674396
98 2 21.6962 19.0061 2.72471
99 2 2.68939 16.2877 2.72502
100 2 2.68943 19.0058 0.00661979
101 2 1.33092 17.647 1.36595
102 2 1.33093 20.3653 4.08349
103 2 4.04788 17.6459 4.08459
104 2 4.04718 20.3652 1.36606
105 2 5.40586 16.286 0.00491095
106 2 5.40516 19.0065 2.72573
107 2 8.11638 16.2839 2.72979
108 2 8.11872 19.0045 0.00519285
109 2 6.76201 17.645 1.36688
110 2 6.76144 20.3678 4.08591
111 2 9.47496 17.6428 4.08804
112 2 9.47298 20.3672 1.36794
113 2 10.8302 16.2864 0.00446113
114 2 10.8296 19.0055 2.72719
115 2 13.5437 16.2878 2.7261
116 2 13.5447 19.0063 0.00697592
117 2 12.1865 17.6467 1.36564
118 2 12.1857 20.3675 4.08636
119 2 14.9022 17.6473 4.08437
120 2 14.9024 20.3657 1.36649
121 2 16.2608 16.2889 0.00680099
122 2 16.2608 19.0063 2.72517
123 2 18.9782 16.2886 2.72497
124 2 18.9785 19.0063 0.00710761
125 2 17.6196 17.6476 1.36599
126 2 17.6193 20.3655 4.08378
127 2 20.3374 17.6471 4.08356
128 2 20.3374 20.3651 1.36596
129 2 21.6973 21.7249 5.44256
130 2 21.7031 2.7214 8.16032
131 2 2.69379 0.00659179 8.16016
132 2 2.69365 2.72116 5.44616
133 2 1.33328 1.36088 6.80044
134 2 1.34345 4.0824 9.51547
135 2 4.05482 1.37097 9.51533
136 2 4.05341 4.08097 6.8059
137 2 5.4077 0.00658166 5.4462
138 2 5.41607 2.73767 8.1685
139 2 8.11818 0.00468975 8.15891
140 2 8.12535 2.74504 5.4699
141 2 6.76288 1.371 6.80721
142 2 6.77515 4.10528 9.52758
143 2 9.47308 1.36559 9.51696
144 2 9.45599 4.12828 6.85309
145 2 10.8298 0.00671021 5.44609
146 2 10.822 2.73741 8.16692
147 2 13.5416 0.00655591 8.15758
148 2 13.5418 2.72072 5.44559
149 2 12.18 1.37134 6.80718
150 2 12.1539 4.11446 9.52635
151 2 14.893 1.37022 9.51786
152 2 14.8947 4.0806 6.8055
153 2 16.2602 0.00067419 5.4424
154 2 16.2571 2.72012 8.15769
155 2 18.979 0.00119251 8.15795
156 2 18.9793 2.71773 5.44273
157 2 17.6183 1.36023 6.80091
158 2 17.6161 4.07715 9.51564
159 2 20.3402 1.36133 9.51423
160 2 20.3405 4.07578 6.80079
161 2 21.703 5.43529 5.44631
162 2 21.7008 8.14579 8.15883
163 2 2.71003 5.44361 8.16849
164 2 2.71713 8.15286 5.46967
165 2 1.34329 6.79048 6.80727
166 2 1.33762 9.50066 9.51681
167 2 4.0776 6.80271 9.52753
168 2 4.10029 9.48357 6.8528
169 2 5.41595 5.4436 5.46249
170 2 5.50028 8.16066 8.25277
171 2 8.13295 5.52819 8.25293
172 2 8.12057 8.14848 5.45282
173 2 6.775 6.80275 6.83004
176 2 9.47038 9.49835 6.82143
177 2 10.8219 5.44208 5.46212
178 2 10.7705 8.139 8.2247
179 2 13.5326 5.43992 8.16468
180 2 13.526 8.14161 5.46346
181 2 12.1538 6.8015 6.83917
182 2 12.13 9.50159 9.55712
183 2 14.8916 6.79435 9.51915
184 2 14.883 9.5054 6.81659
185 2 16.257 5.43274 5.44492
186 2 16.2536 8.14667 8.16057
187 2 18.9777 5.43233 8.15722
188 2 18.9778 8.14565 5.44345
189 2 17.616 6.79065 6.80199
190 2 17.6169 9.50222 9.51443
191 2 20.3389 6.7889 9.51381
192 2 20.3393 9.5016 6.801
193 2 21.7026 10.8574 5.44575
194 2 21.7023 13.5693 8.15709
195 2 2.70921 10.8495 8.16646
196 2 2.69247 13.5693 5.44497
197 2 1.34314 12.2076 6.80675
198 2 1.34198 14.9206 9.5173
199 2 4.08627 12.1814 9.52582
200 2 4.05236 14.9223 6.80482
201 2 5.41391 10.8495 5.46168
202 2 5.41164 13.5603 8.16411
203 2 8.11085 10.7985 8.22444
204 2 8.11337 13.5539 5.46308
205 2 6.7733 12.1815 6.83868
206 2 6.76613 14.9193 9.51854
207 2 9.47342 12.158 9.55685
208 2 9.47718 14.9109 6.81621
209 2 10.8251 10.8532 5.45412
210 2 10.8189 13.5377 8.18518
211 2 13.5095 10.8472 8.18533
212 2 13.5396 13.5679 5.44909
213 2 12.1806 12.2087 6.81044
214 2 12.1779 14.9112 9.52208
215 2 14.883 12.206 9.52219
216 2 14.8992 14.9275 6.80273
217 2 16.2505 10.855 5.45093
218 2 16.2489 13.5658 8.16437
219 2 18.9774 10.8586 8.15713
220 2 18.9769 13.571 5.44375
221 2 17.6136 12.2151 6.80291
222 2 17.6133 14.9267 9.51469
223 2 20.3386 12.2152 9.51372
224 2 20.3388 14.9284 6.80118
225 2 21.6965 16.2878 5.44196
226 2 21.6973 19.0066 8.1577
227 2 2.69197 16.2846 8.1571
228 2 2.68988 19.0068 5.44235
229 2 1.33215 17.6459 6.80042
230 2 1.33353 20.3678 9.51397
231 2 4.04909 17.6436 9.51501
232 2 4.04797 20.3681 6.80041
233 2 5.40462 16.2846 5.44439
234 2 5.40447 19.0053 8.15687
235 2 8.11853 16.2815 8.16024
236 2 8.11781 19.0056 5.44332
237 2 6.76258 17.6437 6.80146
238 2 6.76112 20.3666 9.51349
239 2 9.47418 17.6449 9.51413
240 2 9.4738 20.3672 6.80093
241 2 10.8269 16.2786 5.45084
242 2 10.8307 19.0056 8.15724
243 2 13.5377 16.2771 8.16442
244 2 13.5431 19.0052 5.444
245 2 12.187 17.6418 6.80287
246 2 12.1874 20.3667 9.5139
247 2 14.8987 17.6416 9.51478
248 2 14.9005 20.3671 6.8015
249 2 16.259 16.2871 5.44376
250 2 16.2583 19.0046 8.15867
251 2 18.9765 16.2862 8.15846
252 2 18.9782 19.006 5.44204
253 2 17.6187 17.6468 6.80039
254 2 17.6174 20.3666 9.51485
255 2 20.3385 17.6452 9.51461
256 2 20.3376 20.3654 6.79982
257 2 21.7032 0.00682749 10.8726
258 2 21.7031 2.72113 13.5824
259 2 2.69363 0.00648528 13.5822
260 2 2.71748 2.74496 10.8778
261 2 1.34577 1.37327 12.222
262 2 1.34367 4.08214 14.9326
263 2 4.0547 1.37107 14.9324
264 2 4.10067 4.12814 12.2085
265 2 5.40651 0.00459719 10.8706
266 2 5.41443 2.73717 13.5744
267 2 8.11805 0.00327955 13.5829
268 2 8.12089 2.72825 10.8733
269 2 6.76456 1.36548 12.2255
270 2 6.77383 4.11421 14.9064
271 2 9.47355 1.36701 14.9366
272 2 9.47074 4.09688 12.2232
273 2 10.8305 0.0034195 10.8705
274 2 10.8256 2.7297 13.5781
275 2 13.543 0.00447597 13.5819
276 2 13.5263 2.7389 10.8665
277 2 12.1841 1.36714 12.2261
278 2 12.1811 4.08602 14.9336
279 2 14.9004 1.36289 14.94
280 2 14.8833 4.092 12.2303
281 2 16.2563 0.00549517 10.8694
282 2 16.2509 2.72644 13.58
283 2 18.9778 0.00250601 13.5824
284 2 18.9781 2.71875 10.8707
285 2 17.6151 1.36367 12.228
286 2 17.6141 4.07834 14.9401
287 2 20.3398 1.36155 14.9385
288 2 20.3396 4.07627 12.2266
289 2 21.701 5.43408 10.8707
290 2 21.6994 8.14557 13.5828
291 2 2.70962 5.44185 13.5744
292 2 2.70035 8.14838 10.8731
293 2 1.33784 6.79207 12.2256
294 2 1.33915 9.50102 14.9364
295 2 4.08665 6.80125 14.9063
296 2 4.06899 9.4982 12.2229
297 2 5.50048 5.52811 10.8854
298 2 5.47219 8.13877 13.523
299 2 8.11125 5.49997 13.5233
512 2 20.3379 20.3656 17.6549
302 2 6.80459 9.50137 14.8826
303 2 9.47379 6.83244 14.8828
305 2 10.7707 5.50012 10.8638
307 2 13.5099 5.46092 13.572
308 2 13.5246 8.14839 10.873
309 2 12.1302 6.8326 12.2264
310 2 12.0929 9.48266 14.8455
311 2 14.8834 6.79771 14.9309
312 2 14.8918 9.499 12.2237
313 2 16.2538 5.43593 10.8715
314 2 16.2546 8.14704 13.5805
315 2 18.9778 5.43255 13.5835
316 2 18.9781 8.14554 10.8703
317 2 17.6172 6.78974 12.2271
318 2 17.6155 9.50191 14.9385
319 2 20.3389 6.7891 14.9401
320 2 20.3383 9.50227 12.227
321 2 21.6993 10.858 10.8702
322 2 21.7003 13.5705 13.5814
323 2 2.7016 10.853 13.5776
324 2 2.71063 13.5538 10.8659
325 2 1.339 12.2116 12.2256
326 2 1.33476 14.9279 14.9394
327 2 4.05792 12.2085 14.9331
328 2 4.06381 14.9108 12.2297
329 2 5.47198 10.7984 10.8634
330 2 5.43268 13.5375 13.5714
332 2 8.12013 13.5524 10.8726
333 2 6.80443 12.1579 12.2259
334 2 6.76959 14.9109 14.9303
335 2 9.45464 12.1208 14.8453
336 2 9.47085 14.9196 12.2233
338 2 10.8152 13.5404 13.5678
339 2 13.5123 10.8434 13.5679
340 2 13.4929 13.5211 10.8884
341 2 12.0928 12.1209 12.2071
342 2 12.1751 14.9091 14.9276
343 2 14.8811 12.2032 14.9277
344 2 14.8753 14.9034 12.2196
345 2 16.2544 10.8558 10.8716
346 2 16.2486 13.5651 13.5818
347 2 18.9773 10.8589 13.5835
348 2 18.9767 13.5715 10.8705
349 2 17.6153 12.2137 12.2265
350 2 17.6131 14.9263 14.9368
351 2 20.3386 12.2154 14.94
352 2 20.3383 14.929 12.2264
353 2 21.7014 16.2839 10.8689
354 2 21.6987 19.0054 13.5821
355 2 2.69835 16.2784 13.5794
356 2 2.69091 19.0055 10.8703
357 2 1.33565 17.6427 12.2275
358 2 1.33389 20.3673 14.9382
359 2 4.05039 17.6415 14.9395
360 2 4.04855 20.3671 12.2262
361 2 5.4078 16.2814 10.871
362 2 5.40477 19.0053 13.5832
363 2 8.11897 16.2824 13.5801
364 2 8.1177 19.0059 10.8701
365 2 6.76174 17.6448 12.2266
366 2 6.76143 20.3665 14.9398
367 2 9.47395 17.6433 14.9381
368 2 9.47453 20.3662 12.2269
369 2 10.8276 16.2825 10.8715
370 2 10.831 19.0054 13.5835
371 2 13.5371 16.2768 13.5818
372 2 13.5437 19.0049 10.8707
373 2 12.1857 17.6434 12.2264
374 2 12.1877 20.3667 14.9401
375 2 14.8983 17.6412 14.9369
376 2 14.9013 20.3665 12.2267
377 2 16.2467 16.2748 10.875
378 2 16.2586 19.004 13.583
379 2 18.976 16.2864 13.5828
380 2 18.9768 19.0046 10.8713
381 2 17.6131 17.6411 12.2244
382 2 17.6189 20.3651 14.9392
383 2 20.3372 17.6466 14.939
384 2 20.3395 20.3673 12.2255
385 2 21.6974 21.7249 16.2966
386 2 21.697 2.71722 19.0128
387 2 2.68979 0.000332349 19.0127
388 2 2.69304 2.72039 16.2943
389 2 1.33318 1.36059 17.6532
390 2 1.33252 4.07569 20.3709
391 2 4.04825 1.35993 20.3708
392 2 4.05289 4.08027 17.6473
393 2 5.40503 0.00621587 16.2941
394 2 5.40506 2.71977 19.0096
395 2 8.11677 0.00523914 19.0087
396 2 8.11392 2.73864 16.2788
397 2 6.76527 1.36991 17.6454
398 2 6.76296 4.07687 20.3686
399 2 9.47532 1.3635 20.3676
400 2 9.47771 4.09179 17.6358
401 2 10.8293 0.00437072 16.2955
402 2 10.8274 2.72631 19.0035
403 2 13.5441 0.00153434 19.0126
404 2 13.5401 2.72466 16.2927
405 2 12.1874 1.36282 17.6529
406 2 12.1874 4.07829 20.3667
407 2 14.9025 1.35972 20.3722
408 2 14.8998 4.07822 17.6524
409 2 16.26 0.00154293 16.2967
410 2 16.2594 2.71912 19.012
411 2 18.9786 21.7243 19.0135
412 2 18.9775 2.71917 16.296
413 2 17.6196 1.35969 17.6551
414 2 17.6191 4.07567 20.3718
415 2 20.3378 1.3588 20.3721
416 2 20.3394 4.07655 17.6534
417 2 21.7027 5.43248 16.2942
418 2 21.7015 8.14422 19.0087
419 2 2.69229 5.43241 19.0095
420 2 2.71087 8.14129 16.2785
421 2 1.34236 6.7927 17.6455
422 2 1.33565 9.50279 20.3674
423 2 4.0493 6.79036 20.3685
424 2 4.06396 9.5051 17.6355
425 2 5.41209 5.43958 16.2851
426 2 5.40791 8.14635 19.0061
427 2 8.11887 5.43568 19.0063
428 2 8.12037 8.14816 16.2771
429 2 6.7665 6.79405 17.6441
430 2 6.76175 9.502 20.3694
431 2 9.47443 6.78959 20.3697
432 2 9.47103 9.49884 17.6443
433 2 10.8194 5.46079 16.2625
434 2 10.8278 8.14694 19.0072
435 2 13.538 5.43986 19.0019
436 2 13.4931 8.16392 16.2458
437 2 12.1783 6.79764 17.636
438 2 12.1858 9.5019 20.368
439 2 14.899 6.79016 20.3664
440 2 14.8755 9.49514 17.6282
441 2 16.2493 5.43987 16.2907
442 2 16.2469 8.15037 18.9995
443 2 18.9768 5.43377 19.0111
444 2 18.9769 8.14595 16.2963
445 2 17.6137 6.79013 17.6517
446 2 17.6132 9.49977 20.3659
447 2 20.3387 6.78989 20.3701
448 2 20.3385 9.50183 17.6538
449 2 21.7003 10.8568 16.2952
450 2 21.6974 13.5716 19.0121
451 2 2.69827 10.8547 19.003
452 2 2.6965 13.5675 16.2921
453 2 1.33476 12.2149 17.6525
454 2 1.33162 14.93 20.3716
455 2 4.05023 12.2149 20.3661
456 2 4.05013 14.9272 17.6517
457 2 5.43273 10.8469 16.2621
458 2 5.41174 13.5655 19.0014
459 2 8.11892 10.8556 19.0069
460 2 8.13579 13.5209 16.2454
461 2 6.76959 12.2058 17.6355
462 2 6.76206 14.9265 20.3658
463 2 9.47384 12.2136 20.3678
464 2 9.46706 14.9033 17.6278
465 2 10.8153 10.8433 16.2649
466 2 10.8292 13.5651 19.0011
467 2 13.5371 10.8573 19.0013
468 2 13.5382 13.5663 16.2907
469 2 12.1751 12.2031 17.6336
470 2 12.1842 14.9263 20.3656
471 2 14.8982 12.2123 20.3657
472 2 14.8982 14.9263 17.6507
473 2 16.2487 10.8573 16.2897
474 2 16.2586 13.5721 19.0112
475 2 18.9759 10.8582 19.011
476 2 18.9756 13.5718 16.2964
477 2 17.6131 12.2123 17.6509
478 2 17.6186 14.9299 20.3712
479 2 20.337 12.2144 20.3713
480 2 20.3367 14.9299 17.6544
481 2 21.6975 16.2876 16.2962
482 2 21.6966 19.0061 19.0133
483 2 2.69113 16.2868 19.0115
484 2 2.69145 19.0048 16.2956
485 2 1.33178 17.6471 17.6546
486 2 1.33114 20.3652 20.3718
487 2 4.04774 17.6465 20.3712
488 2 4.04892 20.3667 17.653
489 2 5.41186 16.2768 16.2901
490 2 5.40607 19.0043 19.0107
491 2 8.12238 16.2746 18.9992
492 2 8.11821 19.0047 16.2961
493 2 6.76221 17.6413 17.6511
494 2 6.76222 20.3663 20.3698