ITEM: TIMESTEP
0
ITEM: NUMBER OF ATOMS
7
ITEM: BOX BOUNDS pp pp pp
0.0000000000000000e+00 2.1724000000000000e+01
0.0000000000000000e+00 2.1724000000000000e+01
0.0000000000000000e+00 2.1724000000000000e+01
ITEM: ATOMS id type x y z
174 1 6.95954 9.36071 9.71354
175 1 9.33009 6.99504 9.71514
301 1 6.96176 6.99404 12.0813
304 1 8.74671 8.78039 11.4986
306 1 10.6046 8.3453 13.3548
331 1 8.30848 10.6327 13.3544
337 1 10.6036 10.6338 11.0612
ITEM: TIMESTEP
77
ITEM: NUMBER OF ATOMS
7
ITEM: BOX BOUNDS pp pp pp
0.0000000000000000e+00 2.1724000000000000e+01
0.0000000000000000e+00 2.1724000000000000e+01
0.0000000000000000e+00 2.1724000000000000e+01
ITEM: ATOMS id type x y z
174 1 6.97957 9.38774 9.73199
175 1 9.35992 7.00746 9.73227
301 1 6.97983 7.00734 12.1124
304 1 8.75297 8.78094 11.5055
306 1 10.5896 8.30767 13.3422
331 1 8.27957 10.6175 13.342
337 1 10.5894 10.6176 11.0321
ITEM: TIMESTEP
132
ITEM: NUMBER OF ATOMS
7
ITEM: BOX BOUNDS pp pp pp
0.0000000000000000e+00 2.1724000000000000e+01
0.0000000000000000e+00 2.1724000000000000e+01
0.0000000000000000e+00 2.1724000000000000e+01
ITEM: ATOMS id type x y z
174 1 6.99186 9.36452 9.74436
175 1 9.3367 7.01967 9.74442
301 1 6.9919 7.01965 12.0892
304 1 8.79609 8.82392 11.5486
306 1 10.6003 8.28335 13.3529
331 1 8.2555 10.6282 13.3528
337 1 10.6003 10.6282 11.008
