ITEM: TIMESTEP
0
ITEM: NUMBER OF ATOMS
504
ITEM: BOX BOUNDS pp pp pp
0.0000000000000000e+00 2.1724000000000000e+01
0.0000000000000000e+00 2.1724000000000000e+01
0.0000000000000000e+00 2.1724000000000000e+01
ITEM: ATOMS id type x y z
1 2 21.6973 21.721 0.00688225
2 2 21.6969 2.71493 2.72619
3 2 2.68745 21.7205 2.72477
4 2 2.69088 2.71495 0.00630037
5 2 1.33124 1.35658 1.36548
6 2 1.33187 4.07362 4.0858
7 2 4.0455 1.35692 4.08394
8 2 4.0483 4.07206 1.36949
9 2 5.40358 21.724 0.00751835
10 2 5.40732 2.71783 2.73233
11 2 8.11877 0.00678071 2.73421
12 2 8.11782 2.71709 0.0091092
13 2 6.76084 1.35864 1.36924
14 2 6.76167 4.07952 4.09599
15 2 9.46794 1.37418 4.10031
16 2 9.47402 4.07461 1.37142
17 2 10.8297 0.0021368 0.00990572
18 2 10.8296 2.72181 2.73604
19 2 13.5441 0.00241007 2.72871
20 2 13.5457 2.71794 0.0107972
21 2 12.1852 1.36252 1.37221
22 2 12.1758 4.08487 4.10209
23 2 14.8989 1.36373 4.08939
24 2 14.9 4.07789 1.37327
25 2 16.263 21.7239 0.00874342
26 2 16.2605 2.71804 2.72856
27 2 18.9788 21.7229 2.72683
28 2 18.9815 2.71514 0.00829986
29 2 17.6208 1.35907 1.36846
30 2 17.6157 4.07805 4.08923
31 2 20.3365 1.35835 4.08599
32 2 20.3386 4.07428 1.36745
33 2 21.7 5.42945 0.00718387
34 2 21.7026 8.14432 2.73181
35 2 2.69281 5.43167 2.73109
36 2 2.69029 8.14175 0.00552514
37 2 1.33372 6.78625 1.36899
38 2 1.34647 9.49239 4.09852
39 2 4.05248 6.78736 4.09537
40 2 4.0482 9.49761 1.36666
41 2 5.40397 5.42992 0.00741903
42 2 5.40477 8.14158 2.72905
43 2 8.11653 5.43192 2.73081
44 2 8.11626 8.14489 0.00694921
45 2 6.76113 6.78632 1.36769
46 2 6.76207 9.49594 4.08983
47 2 9.4689 6.79126 4.09125
48 2 9.47293 9.5019 1.36743
49 2 10.8308 5.43189 0.0104455
50 2 10.8266 8.1452 2.73044
51 2 13.5383 5.43272 2.73627
52 2 13.5427 8.1464 0.0102018
53 2 12.1862 6.78937 1.37164
54 2 12.1772 9.50034 4.09737
55 2 14.884 6.79407 4.10295
56 2 14.8988 9.50238 1.37236
57 2 16.2604 5.43145 0.0103244
58 2 16.2509 8.1421 2.73527
59 2 18.9779 5.4314 2.7278
60 2 18.9779 8.14298 0.00836771
61 2 17.6158 6.78987 1.37184
62 2 17.6146 9.50084 4.08753
63 2 20.3395 6.78711 4.08726
64 2 20.3392 9.49817 1.36886
65 2 21.6965 10.8534 0.00552137
66 2 21.6956 13.5679 2.72487
67 2 2.69262 10.8521 2.73029
68 2 2.68784 13.5676 0.00340759
69 2 1.33208 12.209 1.3675
70 2 1.333 14.9221 4.0855
71 2 4.05544 12.2001 4.09579
72 2 4.04623 14.9239 1.3653
73 2 5.40228 10.8559 0.00409466
74 2 5.40224 13.5642 2.72943
75 2 8.11471 10.8546 2.72912
76 2 8.1139 13.5719 0.00565944
77 2 6.75949 12.2112 1.36619
78 2 6.76397 14.9106 4.09673
79 2 9.46892 12.208 4.09475
80 2 9.47098 14.929 1.36714
81 2 10.8283 10.8612 0.00760532
82 2 10.8238 13.5699 2.73128
83 2 13.5374 10.8557 2.73351
84 2 13.5414 13.5749 0.00778613
85 2 12.1854 12.2164 1.37034
86 2 12.1842 14.9304 4.08549
87 2 14.8981 12.2162 4.08619
88 2 14.9011 14.9329 1.36669
89 2 16.2566 10.8583 0.00912664
90 2 16.2584 13.5735 2.726
91 2 18.977 10.8557 2.72685
92 2 18.9756 13.5711 0.00736887
93 2 17.6175 12.2145 1.36759
94 2 17.6184 14.9314 4.08396
95 2 20.3398 12.2107 4.08609
96 2 20.3358 14.9281 1.36662
97 2 21.6945 16.286 0.00613419
98 2 21.6941 19.0033 2.72404
99 2 2.68717 16.283 2.72309
100 2 2.68705 19.0032 0.00638053
101 2 1.32854 17.6442 1.36533
102 2 1.32868 20.3616 4.08288
103 2 4.04667 17.639 4.08395
104 2 4.04538 20.3623 1.36487
105 2 5.40179 16.2848 0.00451572
106 2 5.4019 19.0026 2.7254
107 2 8.11177 16.2805 2.731
108 2 8.11563 19.006 0.00690771
109 2 6.75924 17.643 1.36592
110 2 6.75879 20.3649 4.08426
111 2 9.47178 17.6438 4.08453
112 2 9.47053 20.368 1.36948
113 2 10.8277 16.2893 0.00681783
114 2 10.8285 19.0079 2.72794
115 2 13.5425 16.2906 2.72663
116 2 13.5452 19.008 0.00777545
117 2 12.1857 17.6498 1.36618
118 2 12.1839 20.37 4.08797
119 2 14.9013 17.65 4.08564
120 2 14.9026 20.367 1.36811
121 2 16.2601 16.2899 0.00681262
122 2 16.2611 19.0077 2.72704
123 2 18.9769 16.288 2.72469
124 2 18.9788 19.0049 0.00693457
125 2 17.6191 17.6482 1.36676
126 2 17.6188 20.3671 4.08685
127 2 20.3354 17.6459 4.08355
128 2 20.3367 20.3638 1.36629
129 2 21.6963 21.7223 5.44234
130 2 21.7026 2.71923 8.16141
131 2 2.69429 0.00395357 8.15739
132 2 2.69017 2.71594 5.44387
133 2 1.33139 1.35796 6.80056
134 2 1.3433 4.07984 9.51578
135 2 4.05506 1.36844 9.51219
136 2 4.0495 4.07474 6.8023
137 2 5.4063 0.00391323 5.4437
138 2 5.41301 2.73247 8.16264
139 2 8.11754 0.0048164 8.15678
140 2 8.12566 2.74674 5.47217
141 2 6.76238 1.36859 6.80351
142 2 6.76999 4.10096 9.52033
143 2 9.47168 1.36658 9.5148
144 2 9.45163 4.13463 6.85932
145 2 10.8285 0.00935513 5.44821
146 2 10.8178 2.74444 8.1711
147 2 13.5387 0.0126815 8.16071
148 2 13.5389 2.72397 5.44928
149 2 12.1764 1.3771 6.81081
150 2 12.1281 4.13699 9.53602
151 2 14.8851 1.38003 9.52191
152 2 14.8855 4.08693 6.81166
153 2 16.2595 0.00399757 5.44626
154 2 16.2518 2.72657 8.16137
155 2 18.9783 0.00327583 8.16025
156 2 18.9765 2.71752 5.44557
157 2 17.6148 1.36432 6.80712
158 2 17.6174 4.07813 9.51778
159 2 20.3407 1.36139 9.51713
160 2 20.339 4.07435 6.80343
161 2 21.7012 5.43213 5.44717
162 2 21.7011 8.14251 8.15884
163 2 2.70668 5.43691 8.16371
164 2 2.71827 8.1499 5.47183
165 2 1.34212 6.78743 6.80627
166 2 1.33802 9.49621 9.51622
167 2 4.07439 6.79553 9.51986
168 2 4.10387 9.47846 6.85702
169 2 5.41065 5.43712 5.45996
170 2 5.50787 8.1566 8.26146
171 2 8.12773 5.53838 8.26254
172 2 8.11472 8.14386 5.45426
173 2 6.76703 6.79654 6.82741
176 2 9.46134 9.49256 6.82829
177 2 10.8159 5.44562 5.46774
178 2 10.7235 8.13534 8.26306
179 2 13.5199 5.44746 8.1719
180 2 13.5109 8.13761 5.47421
181 2 12.1261 6.81054 6.86049
182 2 12.1597 9.49321 9.52355
183 2 14.8977 6.79366 9.51861
184 2 14.8886 9.50014 6.80676
185 2 16.2515 5.43385 5.4493
186 2 16.2561 8.14731 8.15889
187 2 18.9775 5.43289 8.15927
188 2 18.9774 8.1444 5.44367
189 2 17.616 6.78997 6.80227
190 2 17.6186 9.50317 9.5132
191 2 20.3401 6.78776 9.51614
192 2 20.34 9.49876 6.80132
193 2 21.7035 10.8537 5.44535
194 2 21.7048 13.5655 8.15397
195 2 2.71192 10.8424 8.16753
196 2 2.69423 13.5619 5.44437
197 2 1.34639 12.2016 6.8069
198 2 1.34763 14.912 9.51486
199 2 4.10456 12.1532 9.53125
200 2 4.05592 14.9098 6.80622
201 2 5.41445 10.842 5.46438
202 2 5.41575 13.5454 8.16777
203 2 8.10091 10.751 8.26265
204 2 8.10552 13.5398 5.47217
205 2 6.77821 12.1529 6.85668
206 2 6.76286 14.9205 9.51572
207 2 9.46241 12.1849 9.52155
208 2 9.46937 14.9173 6.80528
209 2 10.8183 10.8508 5.4611
210 2 10.8193 13.5543 8.16527
211 2 13.5252 10.8507 8.16484
212 2 13.5391 13.5719 5.44575
213 2 12.1812 12.2119 6.80374
214 2 12.1779 14.919 9.5158
215 2 14.8896 12.2092 9.51429
216 2 14.8985 14.9313 6.80087
217 2 16.2513 10.8551 5.44573
218 2 16.2524 13.5697 8.15862
219 2 18.9784 10.8584 8.15474
220 2 18.9771 13.5705 5.44141
221 2 17.614 12.214 6.7995
222 2 17.6151 14.93 9.51117
223 2 20.3411 12.2131 9.51153
224 2 20.3398 14.9263 6.79991
225 2 21.6961 16.2848 5.43973
226 2 21.6985 19.0052 8.15416
227 2 2.69459 16.2776 8.15352
228 2 2.68891 19.0023 5.43999
229 2 1.3328 17.641 6.79873
230 2 1.33361 20.3672 9.51107
231 2 4.04885 17.6409 9.51052
232 2 4.04701 20.3649 6.79707
233 2 5.40336 16.2762 5.44415
234 2 5.4038 19.0026 8.15315
235 2 8.11627 16.2823 8.15877
236 2 8.1153 19.0044 5.44213
237 2 6.76023 17.64 6.79823
238 2 6.76076 20.3655 9.50923
239 2 9.47286 17.6454 9.51312
240 2 9.47184 20.3672 6.79916
241 2 10.825 16.2835 5.44687
242 2 10.8291 19.0087 8.15805
243 2 13.5385 16.2842 8.16206
244 2 13.5429 19.0099 5.44561
245 2 12.1852 17.6461 6.80172
246 2 12.1847 20.3719 9.51476
247 2 14.8986 17.6473 9.5147
248 2 14.8982 20.3725 6.80519
249 2 16.2592 16.2897 5.44291
250 2 16.2578 19.0097 8.15972
251 2 18.9777 16.2874 8.15444
252 2 18.978 19.0065 5.44246
253 2 17.6175 17.6499 6.80062
254 2 17.6151 20.3715 9.51738
255 2 20.3393 17.6454 9.51155
256 2 20.3361 20.3659 6.80063
257 2 21.7065 0.00732585 10.8714
258 2 21.7088 2.72122 13.5823
259 2 2.69821 0.00700299 13.5796
260 2 2.72194 2.74518 10.8758
261 2 1.34993 1.37407 12.2201
262 2 1.35134 4.08396 14.9285
263 2 4.06163 1.37508 14.9258
264 2 4.10773 4.13117 12.2034
265 2 5.40823 0.00447746 10.8672
266 2 5.42103 2.74195 13.5673
267 2 8.1185 0.00758281 13.5805
268 2 8.1202 2.73038 10.868
269 2 6.76651 1.36707 12.2199
270 2 6.785 4.13445 14.878
271 2 9.47353 1.37472 14.9325
272 2 9.46625 4.10506 12.2168
273 2 10.8288 0.00874897 10.8712
274 2 10.8245 2.74064 13.5767
275 2 13.5416 0.0120134 13.5825
276 2 13.5148 2.75363 10.8646
277 2 12.1812 1.3753 12.2259
278 2 12.1868 4.08265 14.9399
279 2 14.9028 1.36433 14.9426
280 2 14.8927 4.08568 12.2288
281 2 16.2527 0.0126913 10.8707
282 2 16.2565 2.72472 13.5845
283 2 18.9823 0.00313668 13.5833
284 2 18.9793 2.71979 10.8735
285 2 17.6177 1.36392 12.2306
286 2 17.6197 4.07746 14.944
287 2 20.3456 1.36164 14.9386
288 2 20.3425 4.07559 12.2299
289 2 21.7025 5.432 10.8716
290 2 21.7026 8.14397 13.5819
291 2 2.71715 5.44328 13.568
292 2 2.70151 8.14256 10.8682
293 2 1.33988 6.79042 12.2236
294 2 1.34417 9.49853 14.9333
295 2 4.10889 6.80714 14.8792
296 2 4.07426 9.49104 12.2155
297 2 5.5091 5.53545 10.8793
298 2 5.51018 8.13157 13.475
299 2 8.10772 5.5395 13.4765
512 2 20.3398 20.3644 17.6521
302 2 6.77154 9.49008 14.91
303 2 9.46838 6.79837 14.9104
305 2 10.7266 5.54155 10.86
307 2 13.5295 5.44484 13.5787
308 2 13.5347 8.14689 10.8719
309 2 12.1623 6.80019 12.2199
310 2 12.1315 9.48246 14.8822
311 2 14.8938 6.79402 14.9369
312 2 14.8974 9.50079 12.2246
313 2 16.2587 5.43707 10.8739
314 2 16.259 8.14862 13.5839
315 2 18.981 5.43302 13.5863
316 2 18.9795 8.14668 10.8708
317 2 17.6209 6.7916 12.2299
318 2 17.62 9.5038 14.9412
319 2 20.3435 6.78869 14.9419
320 2 20.341 9.50168 12.2272
321 2 21.7014 10.8555 10.8687
322 2 21.7024 13.5686 13.5765
323 2 2.70678 10.849 13.5733
324 2 2.7197 13.54 10.8587
325 2 1.34303 12.2076 12.2224
326 2 1.33267 14.9282 14.9361
327 2 4.0504 12.2096 14.9356
328 2 4.05307 14.9168 12.2226
329 2 5.50789 10.7512 10.856
330 2 5.41154 13.5529 13.5736
332 2 8.11592 13.5582 10.8694
333 2 6.76808 12.1846 12.2161
334 2 6.76215 14.9179 14.9324
335 2 9.45316 12.1554 14.8802
336 2 9.46898 14.9221 12.2229
338 2 10.8162 13.5475 13.5693
339 2 13.5206 10.8469 13.5699
340 2 13.5132 13.5429 10.8772
341 2 12.1282 12.1574 12.2057
342 2 12.1757 14.9148 14.928
343 2 14.8868 12.2069 14.9288
344 2 14.8851 14.9157 12.2195
345 2 16.2563 10.8581 10.8689
346 2 16.2527 13.5687 13.5794
347 2 18.9791 10.8596 13.5816
348 2 18.9788 13.5727 10.8651
349 2 17.6183 12.2159 12.223
350 2 17.6163 14.9291 14.9344
351 2 20.3416 12.2144 14.9377
352 2 20.3411 14.9286 12.2211
353 2 21.7044 16.2806 10.8619
354 2 21.6999 19.0058 13.5775
355 2 2.69324 16.282 13.5769
356 2 2.69188 19.0045 10.865
357 2 1.33422 17.6433 12.2211
358 2 1.33612 20.3675 14.9341
359 2 4.04886 17.6434 14.9365
360 2 4.05001 20.3666 12.2212
361 2 5.40607 16.2821 10.8688
362 2 5.40533 19.0066 13.5809
363 2 8.11736 16.2845 13.5819
364 2 8.11703 19.0068 10.8693
365 2 6.76111 17.6447 12.225
366 2 6.76207 20.3692 14.9366
367 2 9.47304 17.6473 14.9387
368 2 9.47354 20.3695 12.2252
369 2 10.8271 16.285 10.8713
370 2 10.8292 19.0102 13.5842
371 2 13.5383 16.282 13.5812
372 2 13.5421 19.0101 10.8716
373 2 12.1841 17.6479 12.2269
374 2 12.1861 20.373 14.9394
375 2 14.8982 17.6461 14.9364
376 2 14.8992 20.3728 12.228
377 2 16.2518 16.2827 10.871
378 2 16.2583 19.0083 13.5815
379 2 18.9782 16.2873 13.5769
380 2 18.9786 19.0082 10.8682
381 2 17.6153 17.6468 12.2225
382 2 17.6207 20.3663 14.9383
383 2 20.3377 17.6475 14.934
384 2 20.3416 20.3689 12.2232
385 2 21.7014 21.7239 16.295
386 2 21.7014 2.71431 19.012
387 2 2.69159 8.71663e-06 19.0118
388 2 2.69954 2.72113 16.29
389 2 1.33851 1.36053 17.6499
390 2 1.3362 4.07456 20.3678
391 2 4.05083 1.36043 20.3678
392 2 4.06164 4.08465 17.6372
393 2 5.40698 0.00932569 16.2908
394 2 5.40721 2.72192 19.005
395 2 8.1154 0.00995443 19.0071
396 2 8.11137 2.75061 16.2674
397 2 6.76799 1.37634 17.638
398 2 6.7628 4.07529 20.3702
399 2 9.47505 1.36179 20.371
400 2 9.47493 4.08365 17.6443
401 2 10.8277 0.0107251 16.2948
402 2 10.8281 2.72277 19.01
403 2 13.5455 0.00214913 19.0148
404 2 13.5449 2.72295 16.2992
405 2 12.1878 1.36344 17.6562
406 2 12.1881 4.07589 20.3727
407 2 14.9047 1.35934 20.3749
408 2 14.9043 4.07745 17.6584
409 2 16.2626 0.00191213 16.2979
410 2 16.2639 2.71687 19.0155
411 2 18.9822 21.7222 19.0132
412 2 18.9837 2.71746 16.2981
413 2 17.6239 1.3586 17.6568
414 2 17.6224 4.07461 20.3749
415 2 20.3406 1.35716 20.3719
416 2 20.3457 4.07564 17.6544
417 2 21.7084 5.43039 16.2922
418 2 21.7058 8.13931 19.0051
419 2 2.69691 5.43009 19.0037
420 2 2.7222 8.13429 16.2646
421 2 1.35044 6.79151 17.6378
422 2 1.33342 9.4986 20.3678
423 2 4.0493 6.78664 20.3681
424 2 4.05471 9.49804 17.6411
425 2 5.42134 5.44438 16.2707
426 2 5.40641 8.14347 19.0071
427 2 8.11917 5.43378 19.0101
428 2 8.12061 8.14423 16.2836
429 2 6.76741 6.79191 17.6467
430 2 6.761 9.50105 20.3679
431 2 9.47532 6.78909 20.3722
432 2 9.47219 9.49859 17.6472
433 2 10.8245 5.44375 16.2815
434 2 10.8295 8.14718 19.0111
435 2 13.5425 5.43683 19.0118
436 2 13.5164 8.15605 16.2702
437 2 12.1829 6.79317 17.6462
438 2 12.1864 9.50417 20.3721
439 2 14.902 6.79029 20.3745
440 2 14.8877 9.49935 17.6423
441 2 16.2573 5.43762 16.298
442 2 16.2536 8.14835 19.0094
443 2 18.9823 5.43077 19.0138
444 2 18.9803 8.14484 16.2985
445 2 17.6199 6.78986 17.6582
446 2 17.6162 9.50082 20.3727
447 2 20.3424 6.78852 20.3712
448 2 20.3417 9.50059 17.6549
449 2 21.7023 10.8533 16.2928
450 2 21.6943 13.5695 19.0119
451 2 2.69194 10.8519 19.0039
452 2 2.6905 13.5689 16.2931
453 2 1.33146 12.213 17.6522
454 2 1.32891 14.9284 20.3705
455 2 4.0463 12.2117 20.3647
456 2 4.04661 14.9287 17.6511
457 2 5.4136 10.848 16.2773
458 2 5.4059 13.5677 19.0041
459 2 8.1175 10.8571 19.0067
460 2 8.1257 13.5414 16.2653
461 2 6.76227 12.2078 17.6412
462 2 6.75943 14.9284 20.3658
463 2 9.47195 12.2163 20.3682
464 2 9.46803 14.9158 17.6368
465 2 10.8182 10.8462 16.2723
466 2 10.8286 13.5701 19.0047
467 2 13.5385 10.8605 19.0067
468 2 13.5388 13.5687 16.291
469 2 12.1764 12.2072 17.6391
470 2 12.1841 14.9311 20.3681
471 2 14.8984 12.2157 20.3709
472 2 14.8988 14.9294 17.6506
473 2 16.253 10.8597 16.293
474 2 16.2578 13.5731 19.0121
475 2 18.977 10.8563 19.0124
476 2 18.9771 13.5714 16.2938
477 2 17.6165 12.2145 17.6533
478 2 17.6179 14.9301 20.3715
479 2 20.3351 12.2128 20.3729
480 2 20.3365 14.9293 17.6525
481 2 21.696 16.2878 16.2931
482 2 21.6971 19.0045 19.0113
483 2 2.68809 16.2867 19.0113
484 2 2.69199 19.0062 16.2937
485 2 1.33201 17.6468 17.6514
486 2 1.33227 20.3638 20.3701
487 2 4.04586 17.6466 20.3699
488 2 4.05057 20.3687 17.6505
489 2 5.40742 16.2824 16.2925
490 2 5.40469 19.0065 19.0115
491 2 8.11933 16.2819 19.0044
492 2 8.11774 19.0091 16.2963
493 2 6.76126 17.6455 17.6517
494 2 6.76202 20.3687 20.3691
495 2 9.47136 17.6464 20.3679
496 2 9.47383 20.3712 17.6537
497 2 10.8296 16.2827 16.2912
498 2 10.8297 19.0087 19.0119
499 2 13.5443 16.2899 19.0117
500 2 13.5429 19.0087 16.2957
501 2 12.185 17.6466 17.652
502 2 12.1872 20.3671 20.3732
503 2 14.9026 17.6493 20.3711
504 2 14.9034 20.3661 17.6554
505 2 16.259 16.2886 16.2937
506 2 16.2625 19.0061 19.0123
507 2 18.977 16.2874 19.0112
508 2 18.98 19.006 16.2938
509 2 17.6195 17.6474 17.6517
510 2 17.6211 20.3648 20.372
511 2 20.3368 17.6457 20.3707
ITEM: TIMESTEP
77
ITEM: NUMBER OF ATOMS
504
ITEM: BOX BOUNDS pp pp pp
0.0000000000000000e+00 2.1724000000000000e+01
0.0000000000000000e+00 2.1724000000000000e+01
0.0000000000000000e+00 2.1724000000000000e+01
ITEM: ATOMS id type x y z
1 2 21.6963 21.7238 0.00702136
2 2 21.6971 2.71735 2.72564
3 2 2.68981 21.7245 2.72551
4 2 2.69007 2.71744 0.00745119
5 2 1.33105 1.35855 1.36603
6 2 1.33276 4.07524 4.08535
7 2 4.04767 1.36029 4.08524
8 2 4.04785 4.07531 1.36902
9 2 5.40525 21.7249 0.00711836
10 2 5.40752 2.72067 2.73108
11 2 8.12014 0.00690021 2.73177
12 2 8.11792 2.71822 0.00674865
13 2 6.76154 1.3608 1.36856
14 2 6.76291 4.08128 4.095
15 2 9.46956 1.37354 4.09837
16 2 9.474 4.07596 1.36806
17 2 10.83 0.00207194 0.00662027
18 2 10.83 2.72136 2.73178
19 2 13.5442 0.00115825 2.72601
20 2 13.5436 2.71902 0.00638855
21 2 12.1859 1.36155 1.36852
22 2 12.1796 4.08276 4.0968
23 2 14.9005 1.36108 4.08597
24 2 14.9006 4.07678 1.36826
25 2 16.261 21.7243 0.00720541
26 2 16.2602 2.71746 2.72569
27 2 18.9785 21.7239 2.7249
28 2 18.9784 2.7171 0.00696154
29 2 17.6194 1.35894 1.36646
30 2 17.6178 4.0761 4.08544
31 2 20.3375 1.35868 4.08369
32 2 20.3376 4.07497 1.36627
33 2 21.6974 5.43272 0.00720913
34 2 21.7031 8.14768 2.73167
35 2 2.6931 5.43497 2.73103
36 2 2.69043 8.14531 0.00650838
37 2 1.33318 6.78905 1.3686
38 2 1.34559 9.49713 4.09818
39 2 4.05358 6.79045 4.09492
40 2 4.04807 9.50148 1.36775
41 2 5.40427 5.43178 0.00650842
42 2 5.40578 8.14541 2.7288
43 2 8.11784 5.43363 2.729
44 2 8.11752 8.14531 0.00660846
45 2 6.76095 6.78858 1.36725
46 2 6.76371 9.5 4.08947
47 2 9.47231 6.79167 4.0897
48 2 9.47428 9.50217 1.36671
49 2 10.8309 5.43235 0.00649763
50 2 10.8299 8.1456 2.72807
51 2 13.5412 5.43268 2.73158
52 2 13.5435 8.14604 0.00554507
53 2 12.1873 6.7892 1.36758
54 2 12.1827 9.50071 4.09283
55 2 14.8906 6.79313 4.09664
56 2 14.9008 9.50186 1.36734
57 2 16.2585 5.43376 0.00570399
58 2 16.255 8.14392 2.73081
59 2 18.9786 5.43286 2.72606
60 2 18.9768 8.14626 0.00548871
61 2 17.6171 6.79008 1.36771
62 2 17.6156 9.50247 4.08718
63 2 20.34 6.78917 4.08584
64 2 20.3394 9.50059 1.36807
65 2 21.698 10.8574 0.00630073
66 2 21.697 13.5718 2.72554
67 2 2.69326 10.8574 2.7313
68 2 2.69088 13.571 0.00578499
69 2 1.33344 12.2134 1.3681
70 2 1.33286 14.9281 4.08542
71 2 4.0546 12.2072 4.09625
72 2 4.04863 14.9281 1.36758
73 2 5.4043 10.8584 0.00605724
74 2 5.40449 13.5687 2.73101
75 2 8.1175 10.8577 2.72783
76 2 8.1179 13.5713 0.00515384
77 2 6.7611 12.2149 1.36709
78 2 6.76493 14.9182 4.09603
79 2 9.47255 12.2107 4.09258
80 2 9.4737 14.9287 1.36695
81 2 10.8307 10.8587 0.00573475
82 2 10.8282 13.5702 2.72929
83 2 13.542 10.8565 2.72943
84 2 13.5436 13.5717 0.00426263
85 2 12.1871 12.2152 1.36743
86 2 12.1869 14.9286 4.08613
87 2 14.9004 12.2151 4.08625
88 2 14.9019 14.93 1.36497
89 2 16.2581 10.8582 0.00458593
90 2 16.2598 13.572 2.72553
91 2 18.9777 10.8576 2.72668
92 2 18.978 13.5725 0.00661943
93 2 17.6186 12.2145 1.36543
94 2 17.6192 14.9303 4.08413
95 2 20.3395 12.2135 4.08611
96 2 20.3375 14.9301 1.36617
97 2 21.6963 16.2885 0.00679316
98 2 21.6961 19.0061 2.72467
99 2 2.68939 16.2876 2.72513
100 2 2.68937 19.0058 0.00659936
101 2 1.33095 17.647 1.36599
102 2 1.33089 20.365 4.08345
103 2 4.04806 17.6453 4.08485
104 2 4.04726 20.3651 1.36591
105 2 5.40575 16.286 0.00517027
106 2 5.40507 19.0062 2.72574
107 2 8.11585 16.2829 2.73047
108 2 8.11852 19.0046 0.0053381
109 2 6.76209 17.6447 1.36718
110 2 6.76139 20.3677 4.08555
111 2 9.47442 17.6435 4.08688
112 2 9.47286 20.3673 1.36799
113 2 10.8302 16.2862 0.00446471
114 2 10.8298 19.0058 2.72678
115 2 13.5439 16.288 2.72557
116 2 13.5448 19.0061 0.00683118
117 2 12.1864 17.6467 1.36537
118 2 12.1857 20.3677 4.08629
119 2 14.9022 17.6475 4.08421
120 2 14.9024 20.3657 1.36646
121 2 16.2608 16.2889 0.00658764
122 2 16.2609 19.0063 2.72508
123 2 18.9783 16.2887 2.72489
124 2 18.9785 19.0063 0.00709021
125 2 17.6195 17.6476 1.36589
126 2 17.6193 20.3655 4.08382
127 2 20.3375 17.6471 4.08359
128 2 20.3373 20.3651 1.36593
129 2 21.697 21.7246 5.44238
130 2 21.7026 2.72079 8.1601
131 2 2.69318 0.00613029 8.15994
132 2 2.69242 2.71992 5.44492
133 2 1.33276 1.36036 6.80024
134 2 1.34256 4.08132 9.51551
135 2 4.05374 1.37009 9.51536
136 2 4.05152 4.07908 6.80401
137 2 5.40748 0.00612009 5.44559
138 2 5.41311 2.73461 8.16554
139 2 8.1179 0.00422697 8.15847
140 2 8.12575 2.74545 5.47031
141 2 6.76291 1.37012 6.80613
142 2 6.77083 4.10067 9.52326
143 2 9.47244 1.36499 9.51648
144 2 9.45568 4.12957 6.85439
145 2 10.8299 0.00693092 5.4462
146 2 10.8203 2.73788 8.16697
147 2 13.5412 0.00684105 8.15756
148 2 13.5413 2.72096 5.44582
149 2 12.1796 1.37197 6.80761
150 2 12.1407 4.12299 9.52832
151 2 14.8907 1.37188 9.51804
152 2 14.8922 4.08172 6.80662
153 2 16.2601 0.000786929 5.4424
154 2 16.2559 2.72061 8.15756
155 2 18.9787 0.00120056 8.15786
156 2 18.979 2.71769 5.44269
157 2 17.6178 1.3605 6.80109
158 2 17.6167 4.07649 9.51494
159 2 20.3401 1.36097 9.51418
160 2 20.3405 4.0755 6.80052
161 2 21.7025 5.43507 5.4457
162 2 21.7003 8.14551 8.15839
163 2 2.70697 5.44064 8.16552
164 2 2.71755 8.15326 5.47009
165 2 1.34241 6.79051 6.80619
166 2 1.33703 9.50002 9.51632
167 2 4.07298 6.79839 9.5232
168 2 4.10159 9.48325 6.8541
169 2 5.41299 5.44064 5.45944
170 2 5.50103 8.15468 8.25352
171 2 8.12698 5.52894 8.25367
172 2 8.11836 8.14627 5.4517
173 2 6.77067 6.79842 6.82543
176 2 9.46636 9.49433 6.82305
177 2 10.8202 5.44214 5.46258
178 2 10.7377 8.12775 8.24369
179 2 13.5274 5.44105 8.1658
180 2 13.5204 8.13883 5.46712
181 2 12.1406 6.80347 6.8477
182 2 12.1476 9.48819 9.5266
183 2 14.8939 6.79222 9.51701
184 2 14.8872 9.50225 6.81057
185 2 16.2558 5.43261 5.44541
186 2 16.255 8.146 8.15936
187 2 18.978 5.43202 8.15692
188 2 18.978 8.14553 5.44309
189 2 17.6166 6.78995 6.80133
190 2 17.6172 9.50204 9.51404
191 2 20.3388 6.78873 9.51364
192 2 20.3392 9.50163 6.80074
193 2 21.7028 10.8575 5.44586
194 2 21.7026 13.5688 8.15707
195 2 2.70968 10.8479 8.16652
196 2 2.6927 13.5688 5.44521
197 2 1.34377 12.2072 6.80718
198 2 1.34365 14.9182 9.51748
199 2 4.09481 12.1683 9.52779
200 2 4.05349 14.9197 6.80594
201 2 5.41397 10.8479 5.46216
202 2 5.41277 13.555 8.16524
203 2 8.09958 10.7656 8.24346
204 2 8.11059 13.5483 5.46674
205 2 6.77528 12.1683 6.84722
206 2 6.76399 14.9216 9.51641
207 2 9.46002 12.1756 9.52634
208 2 9.47403 14.9152 6.8102
209 2 10.8233 10.8514 5.45612
210 2 10.8191 13.5464 8.17217
211 2 13.5182 10.8474 8.17231
212 2 13.5406 13.5688 5.4468
213 2 12.1815 12.2097 6.80599
214 2 12.1775 14.9128 9.51901
215 2 14.8846 12.2057 9.51912
216 2 14.8995 14.9277 6.80211
217 2 16.2523 10.8553 5.4484
218 2 16.2501 13.5664 8.16332
219 2 18.9776 10.8586 8.15695
220 2 18.9773 13.5712 5.44353
221 2 17.6142 12.215 6.80219
222 2 17.6138 14.9269 9.51465
223 2 20.3387 12.215 9.51374
224 2 20.3391 14.9283 6.80127
225 2 21.6966 16.2877 5.44196
226 2 21.6973 19.0063 8.15761
227 2 2.69246 16.2834 8.15697
228 2 2.68984 19.0064 5.44231
229 2 1.33241 17.6454 6.8006
230 2 1.33317 20.3677 9.51391
231 2 4.04843 17.6443 9.51432
232 2 4.0477 20.3681 6.80013
233 2 5.4045 16.2834 5.44488
234 2 5.40416 19.0056 8.15657
235 2 8.11786 16.2829 8.15903
236 2 8.11769 19.0058 5.44295
237 2 6.76189 17.6443 6.8008
238 2 6.76095 20.3665 9.51331
239 2 9.474 17.6451 9.51374
240 2 9.47383 20.3672 6.80067
241 2 10.8272 16.2805 5.44831
242 2 10.8308 19.0057 8.15706
243 2 13.5382 16.2784 8.16337
244 2 13.5433 19.0055 5.44378
245 2 12.1869 17.6424 6.80216
246 2 12.1872 20.3668 9.51392
247 2 14.8989 17.642 9.51473
248 2 14.9004 20.3674 6.80159
249 2 16.2592 16.2874 5.44349
250 2 16.2583 19.0049 8.15857
251 2 18.9767 16.2862 8.15836
252 2 18.9781 19.006 5.44199
253 2 17.6188 17.6469 6.80043
254 2 17.617 20.3669 9.51494
255 2 20.3388 17.6448 9.51469
256 2 20.3375 20.3653 6.7999
257 2 21.7033 0.00692411 10.8727
258 2 21.7033 2.72124 13.5825
259 2 2.69374 0.0067062 13.5824
260 2 2.71789 2.74537 10.8782
261 2 1.34596 1.37347 12.2221
262 2 1.3443 4.08257 14.9322
263 2 4.05513 1.37171 14.9321
264 2 4.10196 4.12944 12.2082
265 2 5.40607 0.00413444 10.8703
266 2 5.41449 2.73764 13.5728
267 2 8.11794 0.00336433 13.5825
268 2 8.11868 2.72712 10.8711
269 2 6.76407 1.36488 12.2248
270 2 6.77579 4.12275 14.8932
271 2 9.47303 1.36816 14.9355
272 2 9.46671 4.0985 12.2192
273 2 10.8301 0.00350433 10.8704
274 2 10.8238 2.73171 13.5763
275 2 13.5424 0.00497541 13.5813
276 2 13.5207 2.74257 10.8637
277 2 12.183 1.36829 12.2255
278 2 12.182 4.08158 14.9345
279 2 14.9009 1.36175 14.9399
280 2 14.8875 4.08599 12.2272
281 2 16.2552 0.00617507 10.8688
282 2 16.2528 2.7239 13.5802
283 2 18.9781 0.00209389 13.5825
284 2 18.9783 2.71839 10.8705
285 2 17.6159 1.36251 12.2274
286 2 17.6147 4.07762 14.94
287 2 20.34 1.36148 14.9385
288 2 20.3396 4.07602 12.2267
289 2 21.7005 5.43364 10.8704
290 2 21.6995 8.14547 13.5825
291 2 2.71009 5.44191 13.5728
292 2 2.69922 8.14617 10.8709
293 2 1.33725 6.79159 12.2249
294 2 1.3403 9.50051 14.9353
295 2 4.09518 6.80322 14.8931
296 2 4.07059 9.49419 12.2189
297 2 5.50122 5.52885 10.8795
298 2 5.49118 8.12752 13.4902
299 2 8.09998 5.51899 13.4904
512 2 20.3379 20.3656 17.6549
302 2 6.77406 9.48797 14.9001
303 2 9.46039 6.80192 14.9003
305 2 10.7379 5.51913 10.8525
307 2 13.5186 5.4479 13.5722
308 2 13.5273 8.14436 10.869
309 2 12.1478 6.80206 12.213
310 2 12.1038 9.47398 14.8564
311 2 14.885 6.79464 14.9306
312 2 14.8912 9.49709 12.2217
313 2 16.2552 5.43473 10.8709
314 2 16.2543 8.14631 13.5801
315 2 18.978 5.43237 13.5836
316 2 18.9781 8.14544 10.8702
317 2 17.6174 6.78934 12.2269
318 2 17.6152 9.50159 14.9381
319 2 20.339 6.78913 14.94
320 2 20.3382 9.50219 12.227
321 2 21.6993 10.8577 10.8701
322 2 21.7008 13.57 13.5808
323 2 2.70359 10.8512 13.5758
324 2 2.71429 13.5482 10.8631
325 2 1.34015 12.2106 12.2251
326 2 1.33363 14.9283 14.9394
327 2 4.05347 12.2094 14.934
328 2 4.0578 14.915 12.2265
329 2 5.49099 10.7655 10.8521
330 2 5.41966 13.5462 13.5716
332 2 8.1161 13.5551 10.8686
333 2 6.7739 12.1754 12.2125
334 2 6.76651 14.9126 14.9299
335 2 9.44594 12.1316 14.8562
336 2 9.46893 14.9191 12.2214
338 2 10.8119 13.5375 13.5644
339 2 13.5094 10.8401 13.5646
340 2 13.4995 13.5277 10.884
341 2 12.1037 12.1317 12.1985
342 2 12.1726 14.9071 14.9251
343 2 14.8791 12.2007 14.9253
344 2 14.8776 14.9057 12.2202
345 2 16.2541 10.8554 10.8708
346 2 16.2482 13.5644 13.5818
347 2 18.9772 10.8587 13.5833
348 2 18.9767 13.5714 10.8705
349 2 17.615 12.2134 12.2262
350 2 17.6129 14.9258 14.9367
351 2 20.3389 12.2151 14.9397
352 2 20.3385 14.9287 12.2263
353 2 21.702 16.2828 10.8684
354 2 21.6983 19.0057 13.5822
355 2 2.69582 16.2802 13.5796
356 2 2.69055 19.0058 10.8701
357 2 1.33449 17.6435 12.2269
358 2 1.33382 20.3675 14.9382
359 2 4.04968 17.6421 14.9394
360 2 4.0483 20.3671 12.2262
361 2 5.40659 16.2828 10.8703
362 2 5.40459 19.0055 13.5832
363 2 8.11824 16.2821 13.5797
364 2 8.1176 19.006 10.87
365 2 6.76134 17.645 12.2264
366 2 6.76145 20.3666 14.9396
367 2 9.47363 17.643 14.9378
368 2 9.47444 20.3661 12.2268
369 2 10.8273 16.2822 10.8707
370 2 10.8309 19.0053 13.5834
371 2 13.5363 16.2764 13.5818
372 2 13.5435 19.0049 10.8707
373 2 12.1854 17.6431 12.2261
374 2 12.1874 20.367 14.9399
375 2 14.8978 17.641 14.9368
376 2 14.901 20.3667 12.2266
377 2 16.2478 16.2759 10.8747
378 2 16.2583 19.004 13.5829
379 2 18.976 16.2862 13.5827
380 2 18.9769 19.0048 10.8711
381 2 17.6136 17.6416 12.2246
382 2 17.6189 20.3648 14.9392
383 2 20.3369 17.6466 14.939
384 2 20.3396 20.3673 12.2254
385 2 21.6975 21.7249 16.2967
386 2 21.6971 2.71722 19.0127
387 2 2.6898 0.000445056 19.0126
388 2 2.69327 2.72062 16.2938
389 2 1.3334 1.36081 17.653
390 2 1.33278 4.07587 20.3704
391 2 4.04843 1.36019 20.3703
392 2 4.05401 4.08139 17.6447
393 2 5.40501 0.00650127 16.2936
394 2 5.40494 2.72026 19.0084
395 2 8.11624 0.00591925 19.0077
396 2 8.11114 2.74231 16.2732
397 2 6.76545 1.37157 17.6431
398 2 6.76226 4.07621 20.3692
399 2 9.47479 1.36234 20.3684
400 2 9.47455 4.08578 17.64
401 2 10.8287 0.00487009 16.2949
402 2 10.8276 2.72377 19.0053
403 2 13.5443 0.0010024 19.0128
404 2 13.5411 2.72237 16.2937
405 2 12.1873 1.36168 17.6534
406 2 12.1873 4.07758 20.3673
407 2 14.9026 1.35956 20.3723
408 2 14.9 4.0776 17.6527
409 2 16.2603 0.00101091 16.2969
410 2 16.2597 2.71884 19.0123
411 2 18.9786 21.7242 19.0136
412 2 18.9778 2.71894 16.2961
413 2 17.6197 1.35953 17.6552
414 2 17.6192 4.07571 20.3719
415 2 20.3378 1.35883 20.372
416 2 20.3397 4.07664 17.6533
417 2 21.703 5.43246 16.2938
418 2 21.7022 8.14369 19.0076
419 2 2.69278 5.43228 19.0083
420 2 2.71453 8.13852 16.273
421 2 1.34402 6.79288 17.6432
422 2 1.33449 9.50226 20.3682
423 2 4.04864 6.78967 20.3691
424 2 4.05795 9.50195 17.6398
425 2 5.41321 5.44071 16.2799
426 2 5.40671 8.14568 19.0076
427 2 8.1182 5.43447 19.0078
428 2 8.11634 8.14412 16.2798
429 2 6.76437 6.79192 17.6464
430 2 6.76136 9.50182 20.3696
431 2 9.47425 6.7892 20.3699
432 2 9.46911 9.49693 17.6437
433 2 10.8195 5.44778 16.2712
434 2 10.8274 8.14621 19.0069
435 2 13.5386 5.43881 19.0032
436 2 13.4998 8.15956 16.2524
437 2 12.1779 6.79457 17.6376
438 2 12.1854 9.50158 20.3677
439 2 14.8991 6.79012 20.3668
440 2 14.8778 9.49576 17.6305
441 2 16.2506 5.43882 16.2912
442 2 16.2479 8.1501 19.0006
443 2 18.9771 5.43366 19.0111
444 2 18.9769 8.14595 16.2961
445 2 17.6142 6.79009 17.6518
446 2 17.6136 9.49998 20.3663
447 2 20.339 6.78998 20.3697
448 2 20.3387 9.50172 17.6535
449 2 21.7008 10.8562 16.2946
450 2 21.6969 13.5718 19.0124
451 2 2.69574 10.855 19.0049
452 2 2.6942 13.5685 16.2931
453 2 1.33362 12.2148 17.653
454 2 1.33146 14.93 20.3718
455 2 4.04952 12.2148 20.3667
456 2 4.04951 14.9274 17.652
457 2 5.41971 10.847 16.2708
458 2 5.41069 13.5661 19.0026
459 2 8.11819 10.8552 19.0067
460 2 8.13142 13.5275 16.252
461 2 6.76652 12.2054 17.6371
462 2 6.76202 14.9267 20.3662
463 2 9.47352 12.2133 20.3675
464 2 9.46767 14.9056 17.63
465 2 10.812 10.84 16.262
466 2 10.8292 13.5643 19.0008
467 2 13.5363 10.8573 19.0009
468 2 13.5365 13.5646 16.2891
469 2 12.1727 12.2007 17.6317
470 2 12.1841 14.9258 20.3654
471 2 14.8977 12.2122 20.3655
472 2 14.8971 14.9252 17.6496
473 2 16.2483 10.8573 16.289
474 2 16.2582 13.5719 19.0108
475 2 18.9759 10.8581 19.0108
476 2 18.9757 13.5716 16.2961
477 2 17.6129 12.2122 17.6504
478 2 17.6183 14.9297 20.3709
479 2 20.3368 12.2144 20.3713
480 2 20.3364 14.9299 17.6544
481 2 21.697 16.2878 16.2964
482 2 21.6965 19.0061 19.0133
483 2 2.69085 16.2871 19.0117
484 2 2.69122 19.0052 16.2958
485 2 1.33162 17.6472 17.6547
486 2 1.33117 20.3653 20.3718
487 2 4.04778 17.6466 20.3712
488 2 4.04901 20.3671 17.6529
489 2 5.4108 16.2781 16.2907
490 2 5.40596 19.0046 19.0108
491 2 8.12211 16.2757 19.0002
492 2 8.11821 19.0047 16.2959
493 2 6.76217 17.6417 17.6513
494 2 6.7623 20.3666 20.3694