ITEM: TIMESTEP
1
ITEM: NUMBER OF ATOMS
511
ITEM: BOX BOUNDS
0.0 21.724
0.0 21.724
0.0 21.724
ITEM: ATOMS id type x y z 
174 1 7.08418 9.17728 9.83669 
175 1 9.14957 7.11194 9.83673 
301 1 7.08421 7.11192 11.9021 
304 1 9.14958 9.17731 11.9021 
306 1 10.724 8.15655 13.4765 
331 1 8.12877 10.7517 13.4765 
337 1 10.7239 10.7517 10.8813 
1 2 21.6963 21.724 0.00679477 
2 2 21.6964 2.71679 2.72492 
3 2 2.68909 21.7241 2.7249 
4 2 2.69007 2.71774 0.00622411 
5 2 1.33108 1.35877 1.36522 
6 2 1.33187 4.07445 4.08441 
7 2 4.04675 1.35956 4.08438 
8 2 4.04707 4.07476 1.36907 
9 2 5.40431 0.00216573 0.00670741 
10 2 5.40658 2.72033 2.73116 
11 2 8.11944 0.00829575 2.73311 
12 2 8.11689 2.71784 0.00742325 
13 2 6.76062 1.36083 1.36902 
14 2 6.76172 4.08084 4.09535 
15 2 9.46811 1.37549 4.10029 
16 2 9.47285 4.07547 1.36908 
17 2 10.8294 0.00222664 0.00811374 
18 2 10.829 2.72254 2.73392 
19 2 13.544 0.00224134 2.72705 
20 2 13.5437 2.71783 0.00863066 
21 2 12.1847 1.36205 1.37054 
22 2 12.1762 4.0853 4.10045 
23 2 14.8985 1.36301 4.08782 
24 2 14.8995 4.07678 1.37056 
25 2 16.2614 8.69579e-05 0.00803849 
26 2 16.2593 2.71754 2.72706 
27 2 18.9783 21.7241 2.72488 
28 2 18.9789 2.71652 0.00743157 
29 2 17.6191 1.35938 1.36726 
30 2 17.6158 4.07676 4.08687 
31 2 20.3367 1.35879 4.08363 
32 2 20.3376 4.0751 1.36611 
33 2 21.6985 5.432 0.00672686 
34 2 21.7045 8.14714 2.73309 
35 2 2.69263 5.43426 2.73115 
36 2 2.6901 8.14456 0.00738149 
37 2 1.33312 6.78832 1.36903 
38 2 1.34772 9.49582 4.10026 
39 2 4.05312 6.78941 4.09534 
40 2 4.04771 9.50053 1.36903 
41 2 5.40339 5.43108 0.00697859 
42 2 5.40535 8.14425 2.7296 
43 2 8.11654 5.4331 2.72963 
44 2 8.11687 8.14461 0.0074095 
45 2 6.76008 6.78779 1.36761 
46 2 6.76378 9.49765 4.09086 
47 2 9.46993 6.79154 4.0909 
48 2 9.47365 9.5014 1.36762 
49 2 10.8304 5.43114 0.0078705 
50 2 10.8284 8.14495 2.72964 
51 2 13.539 5.43249 2.73393 
52 2 13.5436 8.14465 0.00744632 
53 2 12.186 6.78867 1.36911 
54 2 12.1806 9.49978 4.09538 
55 2 14.886 6.79339 4.10034 
56 2 14.9006 9.5009 1.36908 
57 2 16.2593 5.43206 0.00813414 
58 2 16.2532 8.14205 2.73314 
59 2 18.9782 5.43202 2.72703 
60 2 18.9789 8.1446 0.00741835 
61 2 17.6168 6.7896 1.36949 
62 2 17.6172 9.50087 4.08568 
63 2 20.3405 6.78834 4.08567 
64 2 20.3409 9.49962 1.36945 
65 2 21.6984 10.8571 0.00805573 
66 2 21.6984 13.5717 2.72697 
67 2 2.69474 10.8567 2.73383 
68 2 2.69002 13.5714 0.00851991 
69 2 1.33425 12.2124 1.37047 
70 2 1.33519 14.9262 4.08773 
71 2 4.05749 12.2039 4.10035 
72 2 4.04897 14.9272 1.37044 
73 2 5.40336 10.8581 0.0077915 
74 2 5.40467 13.5667 2.73383 
75 2 8.11716 10.8561 2.7296 
76 2 8.11684 13.5714 0.00737599 
77 2 6.76088 12.2137 1.36902 
78 2 6.76557 14.9137 4.10023 
79 2 9.47198 12.2084 4.09534 
80 2 9.47309 14.9284 1.36901 
81 2 10.8303 10.8581 0.00699101 
82 2 10.8271 13.5689 2.73116 
83 2 13.5411 10.8549 2.73118 
84 2 13.5437 13.5715 0.00624149 
85 2 12.1866 12.2144 1.36909 
86 2 12.1869 14.9296 4.0844 
87 2 14.9018 12.2148 4.08442 
88 2 14.9026 14.9304 1.36524 
89 2 16.2593 10.8572 0.00673991 
90 2 16.2613 13.5724 2.72492 
91 2 18.9795 10.8572 2.72699 
92 2 18.9788 13.5727 0.00738547 
93 2 17.6202 12.2141 1.36609 
94 2 17.621 14.9304 4.08361 
95 2 20.3419 12.2125 4.0868 
96 2 20.3387 14.9298 1.3672 
97 2 21.6963 16.2891 0.0079608 
98 2 21.6963 19.006 2.72484 
99 2 2.68975 16.287 2.72695 
100 2 2.68879 19.0066 0.00736259 
101 2 1.3316 17.6468 1.36717 
102 2 1.33105 20.3644 4.08358 
103 2 4.04897 17.6435 4.08676 
104 2 4.04737 20.3652 1.36604 
105 2 5.40428 16.287 0.00803562 
106 2 5.40428 19.0059 2.72697 
107 2 8.11426 16.2809 2.73308 
108 2 8.11686 19.0066 0.00738965 
109 2 6.76182 17.6445 1.3694 
110 2 6.7606 20.3682 4.08562 
111 2 9.47308 17.645 4.08563 
112 2 9.47188 20.3687 1.36944 
113 2 10.8294 16.287 0.00671887 
114 2 10.8294 19.0073 2.72701 
115 2 13.5446 16.2891 2.72493 
116 2 13.5449 19.0066 0.00742586 
117 2 12.1863 17.648 1.36608 
118 2 12.1847 20.3697 4.08683 
119 2 14.9026 17.6488 4.08362 
120 2 14.9021 20.3665 1.36725 
121 2 16.2614 16.2892 0.00680698 
122 2 16.2614 19.0072 2.72488 
123 2 18.9794 16.2891 2.72485 
124 2 18.9789 19.0066 0.00739868 
125 2 17.6201 17.6479 1.36615 
126 2 17.619 20.3664 4.08419 
127 2 20.3386 17.6468 4.08414 
128 2 20.3376 20.3653 1.36614 
129 2 21.6964 21.7241 5.44162 
130 2 21.7026 2.72035 8.15912 
131 2 2.69264 0.00633152 8.15909 
132 2 2.69077 2.71846 5.44329 
133 2 1.33187 1.35957 6.79928 
134 2 1.34284 4.08084 9.51426 
135 2 4.05314 1.37053 9.51423 
136 2 4.0496 4.0773 6.80212 
137 2 5.40657 0.00633055 5.44515 
138 2 5.41171 2.73507 8.16423 
139 2 8.11655 0.0048361 8.15791 
140 2 8.12489 2.7479 5.47271 
141 2 6.76172 1.37054 6.80565 
142 2 6.76929 4.10292 9.5218 
143 2 9.46995 1.36611 9.51635 
144 2 9.4521 4.13415 6.85896 
145 2 10.829 0.00910836 5.44735 
146 2 10.8164 2.74234 8.16992 
147 2 13.539 0.00913549 8.1573 
148 2 13.5384 2.72312 5.44793 
149 2 12.1762 1.37564 6.81011 
150 2 12.1274 4.13419 9.53423 
151 2 14.886 1.37554 9.5182 
152 2 14.8859 4.08531 6.81013 
153 2 16.2593 0.00223481 5.44236 
154 2 16.2524 2.72256 8.1573 
155 2 18.9782 0.0022102 8.15685 
156 2 18.9777 2.71778 5.44262 
157 2 17.6158 1.36204 6.80159 
158 2 17.6172 4.07549 9.51349 
159 2 20.3405 1.36086 9.51317 
160 2 20.3405 4.07479 6.79963 
161 2 21.7026 5.43428 5.44517 
162 2 21.7011 8.14426 8.15789 
163 2 2.70735 5.4394 8.16422 
164 2 2.72014 8.15258 5.47267 
165 2 1.34281 6.78942 6.80566 
166 2 1.33834 9.49765 9.51632 
167 2 4.0752 6.79698 9.52179 
168 2 4.10638 9.47979 6.85891 
169 2 5.41169 5.4394 5.45987 
170 2 5.5098 8.15647 8.26232 
171 2 8.12876 5.53756 8.26235 
172 2 8.11685 8.14461 5.45444 
173 2 6.76926 6.79699 6.82772 
176 2 9.46445 9.49222 6.82772 
177 2 10.8164 5.44511 5.46713 
178 2 10.7239 8.13277 8.26236 
179 2 13.5192 5.44514 8.16993 
180 2 13.5136 8.13663 5.47274 
181 2 12.1273 6.80942 6.85898 
182 2 12.1585 9.49225 9.52183 
183 2 14.8954 6.79159 9.51639 
184 2 14.8909 9.49979 6.8057 
185 2 16.2524 5.43248 5.44736 
186 2 16.2567 8.14497 8.15793 
187 2 18.9785 5.43113 8.15594 
188 2 18.9789 8.1446 5.44265 
189 2 17.6172 6.78866 6.8003 
190 2 17.6187 9.50143 9.51265 
191 2 20.3391 6.78782 9.51264 
192 2 20.3405 9.50056 6.80026 
193 2 21.7053 10.8567 5.44729 
194 2 21.7053 13.5667 8.15721 
195 2 2.71453 10.8441 8.16984 
196 2 2.69529 13.5661 5.44782 
197 2 1.34783 12.2039 6.81003 
198 2 1.34772 14.9137 9.5181 
199 2 4.10639 12.155 9.53413 
200 2 4.05749 14.9136 6.81001 
201 2 5.41731 10.8441 5.46705 
202 2 5.41731 13.5469 8.16983 
203 2 8.10496 10.7517 8.26233 
204 2 8.10881 13.5413 5.47267 
205 2 6.78161 12.155 6.8589 
206 2 6.76378 14.9231 9.51628 
207 2 9.46445 12.1863 9.52179 
208 2 9.47198 14.9187 6.80563 
209 2 10.822 10.8498 5.45989 
210 2 10.822 13.5542 8.16423 
211 2 13.5264 10.8498 8.16425 
212 2 13.5429 13.5707 5.44331 
213 2 12.1841 12.2119 6.80214 
214 2 12.1806 14.9187 9.51425 
215 2 14.8909 12.2084 9.51428 
216 2 14.9018 14.9296 6.7993 
217 2 16.2551 10.8549 5.44518 
218 2 16.2551 13.5689 8.15912 
219 2 18.9793 10.8581 8.15591 
220 2 18.98 13.5714 5.44257 
221 2 17.6172 12.2144 6.79961 
222 2 17.6172 14.9284 9.51315 
223 2 20.3405 12.2138 9.51343 
224 2 20.3419 14.9272 6.80152 
225 2 21.6984 16.287 5.44228 
226 2 21.6985 19.0059 8.15681 
227 2 2.69476 16.2801 8.1572 
228 2 2.69003 19.0054 5.44255 
229 2 1.33425 17.6435 6.8015 
230 2 1.33312 20.3682 9.51312 
231 2 4.04771 17.6449 9.51338 
232 2 4.04705 20.3682 6.79956 
233 2 5.40468 16.2801 5.44727 
234 2 5.40337 19.0062 8.15588 
235 2 8.11717 16.2844 8.15787 
236 2 8.11685 19.0066 5.44263 
237 2 6.76087 17.6449 6.80021 
238 2 6.76008 20.3668 9.51258 
239 2 9.47364 17.6464 9.51259 
240 2 9.47281 20.3683 6.80025 
241 2 10.8271 16.2829 5.44517 
242 2 10.8303 19.0071 8.15593 
243 2 13.5411 16.2829 8.15913 
244 2 13.5437 19.0078 5.44261 
245 2 12.1866 17.645 6.7996 
246 2 12.186 20.3683 9.51346 
247 2 14.9006 17.645 9.51317 
248 2 14.8994 20.3697 6.80158 
249 2 16.2613 16.2891 5.44164 
250 2 16.2593 19.0073 8.15686 
251 2 18.9795 16.287 8.15682 
252 2 18.9788 19.0066 5.44133 
253 2 17.6202 17.648 6.79992 
254 2 17.6168 20.3687 9.51441 
255 2 20.3409 17.6446 9.51436 
256 2 20.3375 20.3653 6.79992 
257 2 21.7046 0.00829825 10.872 
258 2 21.7054 2.72252 13.5816 
259 2 2.69483 0.00906722 13.5815 
260 2 2.7202 2.74789 10.8774 
261 2 1.34778 1.37547 12.2206 
262 2 1.34792 4.08526 14.9287 
263 2 4.05758 1.3756 14.9287 
264 2 4.10645 4.13413 12.2046 
265 2 5.4054 0.004819 10.8691 
266 2 5.4174 2.7423 13.5689 
267 2 8.11724 0.00485589 13.5809 
268 2 8.11691 2.72968 10.8694 
269 2 6.76384 1.36609 12.2225 
270 2 6.7817 4.13415 14.8799 
271 2 9.47207 1.3706 14.9332 
272 2 9.46451 4.10297 12.217 
273 2 10.8284 0.00488106 10.8698 
274 2 10.8221 2.73515 13.5746 
275 2 13.5411 0.00643836 13.5797 
276 2 13.5136 2.74797 10.8614 
277 2 12.1806 1.37062 12.2246 
278 2 12.1842 4.0774 14.9367 
279 2 14.9019 1.35967 14.9396 
280 2 14.891 4.08093 12.2246 
281 2 16.2532 0.0083604 10.8669 
282 2 16.2552 2.72043 13.5797 
283 2 18.9796 0.00222906 13.582 
284 2 18.9789 2.71786 10.8694 
285 2 17.6173 1.3609 12.2257 
286 2 17.6172 4.07485 14.9393 
287 2 20.342 1.36203 14.9373 
288 2 20.3406 4.07547 12.2254 
289 2 21.7011 5.4331 10.8691 
290 2 21.7011 8.14493 13.5809 
291 2 2.7146 5.44507 13.5689 
292 2 2.70192 8.14459 10.8694 
293 2 1.33838 6.79153 12.2225 
294 2 1.34285 9.49975 14.9331 
295 2 4.10645 6.80937 14.8799 
296 2 4.07521 9.49219 12.217 
297 2 5.50983 5.53754 10.8813 
298 2 5.50983 8.13273 13.4765 
299 2 8.10503 5.53758 13.4765 
512 2 20.3387 20.3664 17.6546 
302 2 6.7693 9.49221 14.9111 
303 2 9.46452 6.79704 14.9111 
305 2 10.724 5.5376 10.8576 
307 2 13.5264 5.43951 13.5746 
308 2 13.5319 8.14467 10.8694 
309 2 12.1586 6.79707 12.2171 
310 2 12.1274 9.47989 14.8799 
311 2 14.891 6.78952 14.9332 
312 2 14.8954 9.49774 12.2225 
313 2 16.2567 5.43316 10.8698 
314 2 16.2567 8.14434 13.5809 
315 2 18.9793 5.43114 13.5829 
316 2 18.9789 8.14463 10.8694 
317 2 17.6187 6.78786 12.2262 
318 2 17.6172 9.50062 14.9386 
319 2 20.3406 6.78866 14.9386 
320 2 20.3391 9.50141 12.2262 
321 2 21.7011 10.8561 10.8697 
322 2 21.7026 13.5688 13.5797 
323 2 2.70736 10.8498 13.5745 
324 2 2.72015 13.5413 10.8613 
325 2 1.34282 12.2083 12.2245 
326 2 1.33188 14.9296 14.9395 
327 2 4.04961 12.2119 14.9366 
328 2 4.05313 14.9186 12.2245 
329 2 5.50981 10.7517 10.8575 
330 2 5.4117 13.5541 13.5745 
332 2 8.11686 13.5596 10.8694 
333 2 6.76927 12.1863 12.217 
334 2 6.76173 14.9187 14.9331 
335 2 9.45211 12.1551 14.8799 
336 2 9.46993 14.9232 12.2224 
338 2 10.8164 13.547 13.5689 
339 2 13.5192 10.8442 13.569 
340 2 13.5136 13.5414 10.8774 
341 2 12.1273 12.1551 12.2046 
342 2 12.1762 14.9137 14.9287 
343 2 14.8859 12.204 14.9288 
344 2 14.886 14.9138 12.2207 
345 2 16.2567 10.8562 10.8691 
346 2 16.2524 13.5668 13.5816 
347 2 18.9785 10.8581 13.5829 
348 2 18.9789 13.5714 10.8694 
349 2 17.6172 12.2138 12.2254 
350 2 17.6158 14.9272 14.9373 
351 2 20.3406 12.2144 14.9392 
352 2 20.3405 14.9284 12.2256 
353 2 21.7046 16.2809 10.8668 
354 2 21.6985 19.0073 13.5819 
355 2 2.69265 16.2828 13.5796 
356 2 2.69012 19.0066 10.8694 
357 2 1.33312 17.645 12.2256 
358 2 1.33431 20.3697 14.9372 
359 2 4.04708 17.6449 14.9391 
360 2 4.04775 20.3682 12.2253 
361 2 5.40536 16.2844 10.8697 
362 2 5.40341 19.007 13.5829 
363 2 8.11656 16.2844 13.5809 
364 2 8.11688 19.0066 10.8694 
365 2 6.76009 17.6464 12.2261 
366 2 6.76094 20.3683 14.9385 
367 2 9.47285 17.645 14.9385 
368 2 9.47368 20.3669 12.2262 
369 2 10.8284 16.2844 10.8691 
370 2 10.8304 19.0062 13.5829 
371 2 13.539 16.2802 13.5816 
372 2 13.5436 19.0067 10.8694 
373 2 12.186 17.645 12.2254 
374 2 12.1867 20.3683 14.9392 
375 2 14.8995 17.6436 14.9373 
376 2 14.9006 20.3683 12.2257 
377 2 16.2532 16.281 10.872 
378 2 16.2593 19.006 13.582 
379 2 18.9782 16.287 13.5819 
380 2 18.9789 19.0066 10.8694 
381 2 17.6168 17.6446 12.2244 
382 2 17.6202 20.3653 14.9389 
383 2 20.3376 17.6479 14.9389 
384 2 20.3409 20.3687 12.2244 
385 2 21.6985 0.00220012 16.2965 
386 2 21.6985 2.71749 19.0118 
387 2 2.68982 0.0021742 19.0118 
388 2 2.69539 2.72306 16.2909 
389 2 1.33529 1.36296 17.651 
390 2 1.33431 4.07672 20.3683 
391 2 4.04904 1.36198 20.3683 
392 2 4.05759 4.08525 17.6384 
393 2 5.40476 0.00907488 16.2915 
394 2 5.40476 2.7225 19.0049 
395 2 8.11433 0.00831582 19.0057 
396 2 8.10891 2.74793 16.2661 
397 2 6.76566 1.37548 17.6385 
398 2 6.76094 4.07545 20.3697 
399 2 9.47315 1.36087 20.3698 
400 2 9.47207 4.0809 17.6435 
401 2 10.8272 0.00641982 16.2937 
402 2 10.8272 2.72041 19.0077 
403 2 13.5447 0.000169023 19.0139 
404 2 13.543 2.71857 16.2956 
405 2 12.187 1.35966 17.6544 
406 2 12.1867 4.07484 20.3698 
407 2 14.9027 1.35886 20.3736 
408 2 14.9019 4.07455 17.6545 
409 2 16.2614 0.000170021 16.2972 
410 2 16.2614 2.71687 19.0139 
411 2 18.9795 6.9868e-05 19.014 
412 2 18.9801 2.71781 16.2962 
413 2 17.6211 1.35885 17.6552 
414 2 17.6202 4.07514 20.3728 
415 2 20.3387 1.35936 20.3716 
416 2 20.342 4.07675 17.652 
417 2 21.7054 5.43245 16.2915 
418 2 21.7046 8.14201 19.0057 
419 2 2.69481 5.43242 19.0049 
420 2 2.72019 8.13657 16.2661 
421 2 1.34779 6.79334 17.6385 
422 2 1.33313 9.50083 20.3698 
423 2 4.04775 6.78861 20.3697 
424 2 4.05315 9.49974 17.6434 
425 2 5.41739 5.44508 16.2717 
426 2 5.40538 8.14491 19.0092 
427 2 8.11723 5.43311 19.0092 
428 2 8.1169 8.14463 16.2844 
429 2 6.76384 6.79154 17.6479 
430 2 6.76009 9.50138 20.3712 
431 2 9.47369 6.78784 20.3712 
432 2 9.46997 9.49771 17.6479 
433 2 10.8221 5.43949 16.279 
434 2 10.8284 8.14432 19.0092 
435 2 13.5411 5.43437 19.0077 
436 2 13.5136 8.15269 16.2662 
437 2 12.1807 6.78951 17.6435 
438 2 12.186 9.50062 20.3698 
439 2 14.9007 6.7884 20.3698 
440 2 14.886 9.49592 17.6386 
441 2 16.2552 5.43437 16.2937 
442 2 16.2532 8.14722 19.0057 
443 2 18.9796 5.43204 19.0118 
444 2 18.9789 8.14463 16.2962 
445 2 17.6173 6.7884 17.6532 
446 2 17.6168 9.49966 20.3694 
447 2 20.3409 6.78958 20.3694 
448 2 20.3405 9.50087 17.6532 
449 2 21.7026 10.8549 16.2936 
450 2 21.6964 13.5724 19.0138 
451 2 2.69263 10.8549 19.0076 
452 2 2.69077 13.5707 16.2955 
453 2 1.33188 12.2147 17.6544 
454 2 1.33106 14.9304 20.3735 
455 2 4.04706 12.2144 20.3697 
456 2 4.04676 14.9296 17.6543 
457 2 5.41171 10.8498 16.2789 
458 2 5.40657 13.5688 19.0076 
459 2 8.11655 10.8561 19.0092 
460 2 8.12489 13.5413 16.2661 
461 2 6.76173 12.2084 17.6434 
462 2 6.76061 14.9283 20.3697 
463 2 9.47283 12.2138 20.3697 
464 2 9.46813 14.9138 17.6385 
465 2 10.8164 10.8442 16.2717 
466 2 10.829 13.5667 19.0049 
467 2 13.539 10.8568 19.005 
468 2 13.5384 13.5662 16.2909 
469 2 12.1762 12.204 17.6384 
470 2 12.1847 14.9272 20.3683 
471 2 14.8995 12.2125 20.3683 
472 2 14.8985 14.9263 17.651 
473 2 16.2524 10.8568 16.2915 
474 2 16.2593 13.5717 19.0118 
475 2 18.9782 10.8572 19.0118 
476 2 18.9777 13.5714 16.2962 
477 2 17.6158 12.2125 17.652 
478 2 17.619 14.9299 20.3716 
479 2 20.3375 12.2141 20.3727 
480 2 20.3367 14.9304 17.6552 
481 2 21.6964 16.2891 16.2971 
482 2 21.6963 19.0072 19.0139 
483 2 2.68909 16.2891 19.0138 
484 2 2.69008 19.0078 16.2962 
485 2 1.33109 17.6488 17.6551 
486 2 1.33164 20.3664 20.3716 
487 2 4.04738 17.6479 20.3727 
488 2 4.04904 20.3697 17.652 
489 2 5.40659 16.2828 16.2936 
490 2 5.40432 19.0073 19.0118 
491 2 8.11944 16.2809 19.0057 
492 2 8.1169 19.0066 16.2962 
493 2 6.76063 17.645 17.6531 
494 2 6.76186 20.3686 20.3693 
495 2 9.47189 17.6446 20.3693 
496 2 9.47315 20.3683 17.6531 
497 2 10.829 16.2802 16.2915 
498 2 10.8295 19.006 19.0118 
499 2 13.544 16.2871 19.0118 
500 2 13.5437 19.0055 16.2962 
501 2 12.1847 17.6436 17.652 
502 2 12.1864 20.3653 20.3727 
503 2 14.9021 17.6468 20.3716 
504 2 14.9027 20.3645 17.6552 
505 2 16.2593 16.2871 16.2965 
506 2 16.2614 19.006 19.014 
507 2 18.9783 16.2892 19.0139 
508 2 18.9789 19.0066 16.2975 
509 2 17.6191 17.6468 17.6546 
510 2 17.6201 20.3654 20.3727 
511 2 20.3376 17.6479 20.3726 
ITEM: TIMESTEP
2
ITEM: NUMBER OF ATOMS
511
ITEM: BOX BOUNDS
0.0 21.724
0.0 21.724
0.0 21.724
ITEM: ATOMS id type x y z 
174 1 7.05824 9.2125 9.81075 
175 1 9.18469 7.08606 9.81079 
301 1 7.05828 7.08604 11.9372 
304 1 9.06592 9.09375 11.8185 
306 1 10.6858 8.16124 13.4383 
331 1 8.13338 10.7136 13.4383 
337 1 10.6857 10.7136 10.8859 
1 2 21.6963 21.724 0.00679477 
2 2 21.6964 2.71679 2.72492 
3 2 2.68909 21.7241 2.7249 
4 2 2.69007 2.71774 0.00622411 
5 2 1.33108 1.35877 1.36522 
6 2 1.33187 4.07445 4.08441 
7 2 4.04675 1.35956 4.08438 
8 2 4.04707 4.07476 1.36907 
9 2 5.40431 0.00216573 0.00670741 
10 2 5.40658 2.72033 2.73116 
11 2 8.11944 0.00829575 2.73311 
12 2 8.11689 2.71784 0.00742325 
13 2 6.76062 1.36083 1.36902 
14 2 6.76172 4.08084 4.09535 
15 2 9.46811 1.37549 4.10029 
16 2 9.47285 4.07547 1.36908 
17 2 10.8294 0.00222664 0.00811374 
18 2 10.829 2.72254 2.73392 
19 2 13.544 0.00224134 2.72705 
20 2 13.5437 2.71783 0.00863066 
21 2 12.1847 1.36205 1.37054 
22 2 12.1762 4.0853 4.10045 
23 2 14.8985 1.36301 4.08782 
24 2 14.8995 4.07678 1.37056 
25 2 16.2614 8.69579e-05 0.00803849 
26 2 16.2593 2.71754 2.72706 
27 2 18.9783 21.7241 2.72488 
28 2 18.9789 2.71652 0.00743157 
29 2 17.6191 1.35938 1.36726 
30 2 17.6158 4.07676 4.08687 
31 2 20.3367 1.35879 4.08363 
32 2 20.3376 4.0751 1.36611 
33 2 21.6985 5.432 0.00672686 
34 2 21.7045 8.14714 2.73309 
35 2 2.69263 5.43426 2.73115 
36 2 2.6901 8.14456 0.00738149 
37 2 1.33312 6.78832 1.36903 
38 2 1.34772 9.49582 4.10026 
39 2 4.05312 6.78941 4.09534 
40 2 4.04771 9.50053 1.36903 
41 2 5.40339 5.43108 0.00697859 
42 2 5.40535 8.14425 2.7296 
43 2 8.11654 5.4331 2.72963 
44 2 8.11687 8.14461 0.0074095 
45 2 6.76008 6.78779 1.36761 
46 2 6.76378 9.49765 4.09086 
47 2 9.46993 6.79154 4.0909 
48 2 9.47365 9.5014 1.36762 
49 2 10.8304 5.43114 0.0078705 
50 2 10.8284 8.14495 2.72964 
51 2 13.539 5.43249 2.73393 
52 2 13.5436 8.14465 0.00744632 
53 2 12.186 6.78867 1.36911 
54 2 12.1806 9.49978 4.09538 
55 2 14.886 6.79339 4.10034 
56 2 14.9006 9.5009 1.36908 
57 2 16.2593 5.43206 0.00813414 
58 2 16.2532 8.14205 2.73314 
59 2 18.9782 5.43202 2.72703 
60 2 18.9789 8.1446 0.00741835 
61 2 17.6168 6.7896 1.36949 
62 2 17.6172 9.50087 4.08568 
63 2 20.3405 6.78834 4.08567 
64 2 20.3409 9.49962 1.36945 
65 2 21.6984 10.8571 0.00805573 
66 2 21.6984 13.5717 2.72697 
67 2 2.69474 10.8567 2.73383 
68 2 2.69002 13.5714 0.00851991 
69 2 1.33425 12.2124 1.37047 
70 2 1.33519 14.9262 4.08773 
71 2 4.05749 12.2039 4.10035 
72 2 4.04897 14.9272 1.37044 
73 2 5.40336 10.8581 0.0077915 
74 2 5.40467 13.5667 2.73383 
75 2 8.11716 10.8561 2.7296 
76 2 8.11684 13.5714 0.00737599 
77 2 6.76088 12.2137 1.36902 
78 2 6.76557 14.9137 4.10023 
79 2 9.47198 12.2084 4.09534 
80 2 9.47309 14.9284 1.36901 
81 2 10.8303 10.8581 0.00699101 
82 2 10.8271 13.5689 2.73116 
83 2 13.5411 10.8549 2.73118 
84 2 13.5437 13.5715 0.00624149 
85 2 12.1866 12.2144 1.36909 
86 2 12.1869 14.9296 4.0844 
87 2 14.9018 12.2148 4.08442 
88 2 14.9026 14.9304 1.36524 
89 2 16.2593 10.8572 0.00673991 
90 2 16.2613 13.5724 2.72492 
91 2 18.9795 10.8572 2.72699 
92 2 18.9788 13.5727 0.00738547 
93 2 17.6202 12.2141 1.36609 
94 2 17.621 14.9304 4.08361 
95 2 20.3419 12.2125 4.0868 
96 2 20.3387 14.9298 1.3672 
97 2 21.6963 16.2891 0.0079608 
98 2 21.6963 19.006 2.72484 
99 2 2.68975 16.287 2.72695 
100 2 2.68879 19.0066 0.00736259 
101 2 1.3316 17.6468 1.36717 
102 2 1.33105 20.3644 4.08358 
103 2 4.04897 17.6435 4.08676 
104 2 4.04737 20.3652 1.36604 
105 2 5.40428 16.287 0.00803562 
106 2 5.40428 19.0059 2.72697 
107 2 8.11426 16.2809 2.73308 
108 2 8.11686 19.0066 0.00738965 
109 2 6.76182 17.6445 1.3694 
110 2 6.7606 20.3682 4.08562 
111 2 9.47308 17.645 4.08563 
112 2 9.47188 20.3687 1.36944 
113 2 10.8294 16.287 0.00671887 
114 2 10.8294 19.0073 2.72701 
115 2 13.5446 16.2891 2.72493 
116 2 13.5449 19.0066 0.00742586 
117 2 12.1863 17.648 1.36608 
118 2 12.1847 20.3697 4.08683 
119 2 14.9026 17.6488 4.08362 
120 2 14.9021 20.3665 1.36725 
121 2 16.2614 16.2892 0.00680698 
122 2 16.2614 19.0072 2.72488 
123 2 18.9794 16.2891 2.72485 
124 2 18.9789 19.0066 0.00739868 
125 2 17.6201 17.6479 1.36615 
126 2 17.619 20.3664 4.08419 
127 2 20.3386 17.6468 4.08414 
128 2 20.3376 20.3653 1.36614 
129 2 21.6964 21.7241 5.44162 
130 2 21.7026 2.72035 8.15912 
131 2 2.69264 0.00633152 8.15909 
132 2 2.69077 2.71846 5.44329 
133 2 1.33187 1.35957 6.79928 
134 2 1.34284 4.08084 9.51426 
135 2 4.05314 1.37053 9.51423 
136 2 4.0496 4.0773 6.80212 
137 2 5.40657 0.00633055 5.44515 
138 2 5.41171 2.73507 8.16423 
139 2 8.11655 0.0048361 8.15791 
140 2 8.12489 2.7479 5.47271 
141 2 6.76172 1.37054 6.80565 
142 2 6.76929 4.10292 9.5218 
143 2 9.46995 1.36611 9.51635 
144 2 9.4521 4.13415 6.85896 
145 2 10.829 0.00910836 5.44735 
146 2 10.8164 2.74234 8.16992 
147 2 13.539 0.00913549 8.1573 
148 2 13.5384 2.72312 5.44793 
149 2 12.1762 1.37564 6.81011 
150 2 12.1274 4.13419 9.53423 
151 2 14.886 1.37554 9.5182 
152 2 14.8859 4.08531 6.81013 
153 2 16.2593 0.00223481 5.44236 
154 2 16.2524 2.72256 8.1573 
155 2 18.9782 0.0022102 8.15685 
156 2 18.9777 2.71778 5.44262 
157 2 17.6158 1.36204 6.80159 
158 2 17.6172 4.07549 9.51349 
159 2 20.3405 1.36086 9.51317 
160 2 20.3405 4.07479 6.79963 
161 2 21.7026 5.43428 5.44517 
162 2 21.7011 8.14426 8.15789 
163 2 2.70735 5.4394 8.16422 
164 2 2.72014 8.15258 5.47267 
165 2 1.34281 6.78942 6.80566 
166 2 1.33834 9.49765 9.51632 
167 2 4.0752 6.79698 9.52179 
168 2 4.10638 9.47979 6.85891 
169 2 5.41169 5.4394 5.45987 
170 2 5.5098 8.15647 8.26232 
171 2 8.12876 5.53756 8.26235 
172 2 8.11685 8.14461 5.45444 
173 2 6.76926 6.79699 6.82772 
176 2 9.46445 9.49222 6.82772 
177 2 10.8164 5.44511 5.46713 
178 2 10.7239 8.13277 8.26236 
179 2 13.5192 5.44514 8.16993 
180 2 13.5136 8.13663 5.47274 
181 2 12.1273 6.80942 6.85898 
182 2 12.1585 9.49225 9.52183 
183 2 14.8954 6.79159 9.51639 
184 2 14.8909 9.49979 6.8057 
185 2 16.2524 5.43248 5.44736 
186 2 16.2567 8.14497 8.15793 
187 2 18.9785 5.43113 8.15594 
188 2 18.9789 8.1446 5.44265 
189 2 17.6172 6.78866 6.8003 
190 2 17.6187 9.50143 9.51265 
191 2 20.3391 6.78782 9.51264 
192 2 20.3405 9.50056 6.80026 
193 2 21.7053 10.8567 5.44729 
194 2 21.7053 13.5667 8.15721 
195 2 2.71453 10.8441 8.16984 
196 2 2.69529 13.5661 5.44782 
197 2 1.34783 12.2039 6.81003 
198 2 1.34772 14.9137 9.5181 
199 2 4.10639 12.155 9.53413 
200 2 4.05749 14.9136 6.81001 
201 2 5.41731 10.8441 5.46705 
202 2 5.41731 13.5469 8.16983 
203 2 8.10496 10.7517 8.26233 
204 2 8.10881 13.5413 5.47267 
205 2 6.78161 12.155 6.8589 
206 2 6.76378 14.9231 9.51628 
207 2 9.46445 12.1863 9.52179 
208 2 9.47198 14.9187 6.80563 
209 2 10.822 10.8498 5.45989 
210 2 10.822 13.5542 8.16423 
211 2 13.5264 10.8498 8.16425 
212 2 13.5429 13.5707 5.44331 
213 2 12.1841 12.2119 6.80214 
214 2 12.1806 14.9187 9.51425 
215 2 14.8909 12.2084 9.51428 
216 2 14.9018 14.9296 6.7993 
217 2 16.2551 10.8549 5.44518 
218 2 16.2551 13.5689 8.15912 
219 2 18.9793 10.8581 8.15591 
220 2 18.98 13.5714 5.44257 
221 2 17.6172 12.2144 6.79961 
222 2 17.6172 14.9284 9.51315 
223 2 20.3405 12.2138 9.51343 
224 2 20.3419 14.9272 6.80152 
225 2 21.6984 16.287 5.44228 
226 2 21.6985 19.0059 8.15681 
227 2 2.69476 16.2801 8.1572 
228 2 2.69003 19.0054 5.44255 
229 2 1.33425 17.6435 6.8015 
230 2 1.33312 20.3682 9.51312 
231 2 4.04771 17.6449 9.51338 
232 2 4.04705 20.3682 6.79956 
233 2 5.40468 16.2801 5.44727 
234 2 5.40337 19.0062 8.15588 
235 2 8.11717 16.2844 8.15787 
236 2 8.11685 19.0066 5.44263 
237 2 6.76087 17.6449 6.80021 
238 2 6.76008 20.3668 9.51258 
239 2 9.47364 17.6464 9.51259 
240 2 9.47281 20.3683 6.80025 
241 2 10.8271 16.2829 5.44517 
242 2 10.8303 19.0071 8.15593 
243 2 13.5411 16.2829 8.15913 
244 2 13.5437 19.0078 5.44261 
245 2 12.1866 17.645 6.7996 
246 2 12.186 20.3683 9.51346 
247 2 14.9006 17.645 9.51317 
248 2 14.8994 20.3697 6.80158 
249 2 16.2613 16.2891 5.44164 
250 2 16.2593 19.0073 8.15686 
251 2 18.9795 16.287 8.15682 
252 2 18.9788 19.0066 5.44133 
253 2 17.6202 17.648 6.79992 
254 2 17.6168 20.3687 9.51441 
255 2 20.3409 17.6446 9.51436 
256 2 20.3375 20.3653 6.79992 
257 2 21.7046 0.00829825 10.872 
258 2 21.7054 2.72252 13.5816 
259 2 2.69483 0.00906722 13.5815 
260 2 2.7202 2.74789 10.8774 
261 2 1.34778 1.37547 12.2206 
262 2 1.34792 4.08526 14.9287 
263 2 4.05758 1.3756 14.9287 
264 2 4.10645 4.13413 12.2046 
265 2 5.4054 0.004819 10.8691 
266 2 5.4174 2.7423 13.5689 
267 2 8.11724 0.00485589 13.5809 
268 2 8.11691 2.72968 10.8694 
269 2 6.76384 1.36609 12.2225 
270 2 6.7817 4.13415 14.8799 
271 2 9.47207 1.3706 14.9332 
272 2 9.46451 4.10297 12.217 
273 2 10.8284 0.00488106 10.8698 
274 2 10.8221 2.73515 13.5746 
275 2 13.5411 0.00643836 13.5797 
276 2 13.5136 2.74797 10.8614 
277 2 12.1806 1.37062 12.2246 
278 2 12.1842 4.0774 14.9367 
279 2 14.9019 1.35967 14.9396 
280 2 14.891 4.08093 12.2246 
281 2 16.2532 0.0083604 10.8669 
282 2 16.2552 2.72043 13.5797 
283 2 18.9796 0.00222906 13.582 
284 2 18.9789 2.71786 10.8694 
285 2 17.6173 1.3609 12.2257 
286 2 17.6172 4.07485 14.9393 
287 2 20.342 1.36203 14.9373 
288 2 20.3406 4.07547 12.2254 
289 2 21.7011 5.4331 10.8691 
290 2 21.7011 8.14493 13.5809 
291 2 2.7146 5.44507 13.5689 
292 2 2.70192 8.14459 10.8694 
293 2 1.33838 6.79153 12.2225 
294 2 1.34285 9.49975 14.9331 
295 2 4.10645 6.80937 14.8799 
296 2 4.07521 9.49219 12.217 
297 2 5.50983 5.53754 10.8813 
298 2 5.50983 8.13273 13.4765 
299 2 8.10503 5.53758 13.4765 
512 2 20.3387 20.3664 17.6546 
302 2 6.7693 9.49221 14.9111 
303 2 9.46452 6.79704 14.9111 
305 2 10.724 5.5376 10.8576 
307 2 13.5264 5.43951 13.5746 
308 2 13.5319 8.14467 10.8694 
309 2 12.1586 6.79707 12.2171 
310 2 12.1274 9.47989 14.8799 
311 2 14.891 6.78952 14.9332 
312 2 14.8954 9.49774 12.2225 
313 2 16.2567 5.43316 10.8698 
314 2 16.2567 8.14434 13.5809 
315 2 18.9793 5.43114 13.5829 
316 2 18.9789 8.14463 10.8694 
317 2 17.6187 6.78786 12.2262 
318 2 17.6172 9.50062 14.9386 
319 2 20.3406 6.78866 14.9386 
320 2 20.3391 9.50141 12.2262 
321 2 21.7011 10.8561 10.8697 
322 2 21.7026 13.5688 13.5797 
323 2 2.70736 10.8498 13.5745 
324 2 2.72015 13.5413 10.8613 
325 2 1.34282 12.2083 12.2245 
326 2 1.33188 14.9296 14.9395 
327 2 4.04961 12.2119 14.9366 
328 2 4.05313 14.9186 12.2245 
329 2 5.50981 10.7517 10.8575 
330 2 5.4117 13.5541 13.5745 
332 2 8.11686 13.5596 10.8694 
333 2 6.76927 12.1863 12.217 
334 2 6.76173 14.9187 14.9331 
335 2 9.45211 12.1551 14.8799 
336 2 9.46993 14.9232 12.2224 
338 2 10.8164 13.547 13.5689 
339 2 13.5192 10.8442 13.569 
340 2 13.5136 13.5414 10.8774 
341 2 12.1273 12.1551 12.2046 
342 2 12.1762 14.9137 14.9287 
343 2 14.8859 12.204 14.9288 
344 2 14.886 14.9138 12.2207 
345 2 16.2567 10.8562 10.8691 
346 2 16.2524 13.5668 13.5816 
347 2 18.9785 10.8581 13.5829 
348 2 18.9789 13.5714 10.8694 
349 2 17.6172 12.2138 12.2254 
350 2 17.6158 14.9272 14.9373 
351 2 20.3406 12.2144 14.9392 
352 2 20.3405 14.9284 12.2256 
353 2 21.7046 16.2809 10.8668 
354 2 21.6985 19.0073 13.5819 
355 2 2.69265 16.2828 13.5796 
356 2 2.69012 19.0066 10.8694 
357 2 1.33312 17.645 12.2256 
358 2 1.33431 20.3697 14.9372 
359 2 4.04708 17.6449 14.9391 
360 2 4.04775 20.3682 12.2253 
361 2 5.40536 16.2844 10.8697 
362 2 5.40341 19.007 13.5829 
363 2 8.11656 16.2844 13.5809 
364 2 8.11688 19.0066 10.8694 
365 2 6.76009 17.6464 12.2261 
366 2 6.76094 20.3683 14.9385 
367 2 9.47285 17.645 14.9385 
368 2 9.47368 20.3669 12.2262 
369 2 10.8284 16.2844 10.8691 
370 2 10.8304 19.0062 13.5829 
371 2 13.539 16.2802 13.5816 
372 2 13.5436 19.0067 10.8694 
373 2 12.186 17.645 12.2254 
374 2 12.1867 20.3683 14.9392 
375 2 14.8995 17.6436 14.9373 
376 2 14.9006 20.3683 12.2257 
377 2 16.2532 16.281 10.872 
378 2 16.2593 19.006 13.582 
379 2 18.9782 16.287 13.5819 
380 2 18.9789 19.0066 10.8694 
381 2 17.6168 17.6446 12.2244 
382 2 17.6202 20.3653 14.9389 
383 2 20.3376 17.6479 14.9389 
384 2 20.3409 20.3687 12.2244 
385 2 21.6985 0.00220012 16.2965 
386 2 21.6985 2.71749 19.0118 
387 2 2.68982 0.0021742 19.0118 
388 2 2.69539 2.72306 16.2909 
389 2 1.33529 1.36296 17.651 
390 2 1.33431 4.07672 20.3683 
391 2 4.04904 1.36198 20.3683 
392 2 4.05759 4.08525 17.6384 
393 2 5.40476 0.00907488 16.2915 
394 2 5.40476 2.7225 19.0049 
395 2 8.11433 0.00831582 19.0057 
396 2 8.10891 2.74793 16.2661 
397 2 6.76566 1.37548 17.6385 
398 2 6.76094 4.07545 20.3697 
399 2 9.47315 1.36087 20.3698 
400 2 9.47207 4.0809 17.6435 
401 2 10.8272 0.00641982 16.2937 
402 2 10.8272 2.72041 19.0077 
403 2 13.5447 0.000169023 19.0139 
404 2 13.543 2.71857 16.2956 
405 2 12.187 1.35966 17.6544 
406 2 12.1867 4.07484 20.3698 
407 2 14.9027 1.35886 20.3736 
408 2 14.9019 4.07455 17.6545 
409 2 16.2614 0.000170021 16.2972 
410 2 16.2614 2.71687 19.0139 
411 2 18.9795 6.9868e-05 19.014 
412 2 18.9801 2.71781 16.2962 
413 2 17.6211 1.35885 17.6552 
414 2 17.6202 4.07514 20.3728 
415 2 20.3387 1.35936 20.3716 
416 2 20.342 4.07675 17.652 
417 2 21.7054 5.43245 16.2915 
418 2 21.7046 8.14201 19.0057 
419 2 2.69481 5.43242 19.0049 
420 2 2.72019 8.13657 16.2661 
421 2 1.34779 6.79334 17.6385 
422 2 1.33313 9.50083 20.3698 
423 2 4.04775 6.78861 20.3697 
424 2 4.05315 9.49974 17.6434 
425 2 5.41739 5.44508 16.2717 
426 2 5.40538 8.14491 19.0092 
427 2 8.11723 5.43311 19.0092 
428 2 8.1169 8.14463 16.2844 
429 2 6.76384 6.79154 17.6479 
430 2 6.76009 9.50138 20.3712 
431 2 9.47369 6.78784 20.3712 
432 2 9.46997 9.49771 17.6479 
433 2 10.8221 5.43949 16.279 
434 2 10.8284 8.14432 19.0092 
435 2 13.5411 5.43437 19.0077 
436 2 13.5136 8.15269 16.2662 
437 2 12.1807 6.78951 17.6435 
438 2 12.186 9.50062 20.3698 
439 2 14.9007 6.7884 20.3698 
440 2 14.886 9.49592 17.6386 
441 2 16.2552 5.43437 16.2937 
442 2 16.2532 8.14722 19.0057 
443 2 18.9796 5.43204 19.0118 
444 2 18.9789 8.14463 16.2962 
445 2 17.6173 6.7884 17.6532 
446 2 17.6168 9.49966 20.3694 
447 2 20.3409 6.78958 20.3694 
448 2 20.3405 9.50087 17.6532 
449 2 21.7026 10.8549 16.2936 
450 2 21.6964 13.5724 19.0138 
451 2 2.69263 10.8549 19.0076 
452 2 2.69077 13.5707 16.2955 
453 2 1.33188 12.2147 17.6544 