ITEM: TIMESTEP
0
ITEM: NUMBER OF ATOMS
504
ITEM: BOX BOUNDS pp pp pp
0.0000000000000000e+00 2.1724000000000000e+01
0.0000000000000000e+00 2.1724000000000000e+01
0.0000000000000000e+00 2.1724000000000000e+01
ITEM: ATOMS id type x y z
1 2 21.6973 21.721 0.00688225
2 2 21.6969 2.71493 2.72619
3 2 2.68745 21.7205 2.72477
4 2 2.69088 2.71495 0.00630037
5 2 1.33124 1.35658 1.36548
6 2 1.33187 4.07362 4.0858
7 2 4.0455 1.35692 4.08394
8 2 4.0483 4.07206 1.36949
9 2 5.40358 21.724 0.00751835
10 2 5.40732 2.71783 2.73233
11 2 8.11877 0.00678071 2.73421
12 2 8.11782 2.71709 0.0091092
13 2 6.76084 1.35864 1.36924
14 2 6.76167 4.07952 4.09599
15 2 9.46794 1.37418 4.10031
16 2 9.47402 4.07461 1.37142
17 2 10.8297 0.0021368 0.00990572
18 2 10.8296 2.72181 2.73604
19 2 13.5441 0.00241007 2.72871
20 2 13.5457 2.71794 0.0107972
21 2 12.1852 1.36252 1.37221
22 2 12.1758 4.08487 4.10209
23 2 14.8989 1.36373 4.08939
24 2 14.9 4.07789 1.37327
25 2 16.263 21.7239 0.00874342
26 2 16.2605 2.71804 2.72856
27 2 18.9788 21.7229 2.72683
28 2 18.9815 2.71514 0.00829986
29 2 17.6208 1.35907 1.36846
30 2 17.6157 4.07805 4.08923
31 2 20.3365 1.35835 4.08599
32 2 20.3386 4.07428 1.36745
33 2 21.7 5.42945 0.00718387
34 2 21.7026 8.14432 2.73181
35 2 2.69281 5.43167 2.73109
36 2 2.69029 8.14175 0.00552514
37 2 1.33372 6.78625 1.36899
38 2 1.34647 9.49239 4.09852
39 2 4.05248 6.78736 4.09537
40 2 4.0482 9.49761 1.36666
41 2 5.40397 5.42992 0.00741903
42 2 5.40477 8.14158 2.72905
43 2 8.11653 5.43192 2.73081
44 2 8.11626 8.14489 0.00694921
45 2 6.76113 6.78632 1.36769
46 2 6.76207 9.49594 4.08983
47 2 9.4689 6.79126 4.09125
48 2 9.47293 9.5019 1.36743
49 2 10.8308 5.43189 0.0104455
50 2 10.8266 8.1452 2.73044
51 2 13.5383 5.43272 2.73627
52 2 13.5427 8.1464 0.0102018
53 2 12.1862 6.78937 1.37164
54 2 12.1772 9.50034 4.09737
55 2 14.884 6.79407 4.10295
56 2 14.8988 9.50238 1.37236
57 2 16.2604 5.43145 0.0103244
58 2 16.2509 8.1421 2.73527
59 2 18.9779 5.4314 2.7278
60 2 18.9779 8.14298 0.00836771
61 2 17.6158 6.78987 1.37184
62 2 17.6146 9.50084 4.08753
63 2 20.3395 6.78711 4.08726
64 2 20.3392 9.49817 1.36886
65 2 21.6965 10.8534 0.00552137
66 2 21.6956 13.5679 2.72487
67 2 2.69262 10.8521 2.73029
68 2 2.68784 13.5676 0.00340759
69 2 1.33208 12.209 1.3675
70 2 1.333 14.9221 4.0855
71 2 4.05544 12.2001 4.09579
72 2 4.04623 14.9239 1.3653
73 2 5.40228 10.8559 0.00409466
74 2 5.40224 13.5642 2.72943
75 2 8.11471 10.8546 2.72912
76 2 8.1139 13.5719 0.00565944
77 2 6.75949 12.2112 1.36619
78 2 6.76397 14.9106 4.09673
79 2 9.46892 12.208 4.09475
80 2 9.47098 14.929 1.36714
81 2 10.8283 10.8612 0.00760532
82 2 10.8238 13.5699 2.73128
83 2 13.5374 10.8557 2.73351
84 2 13.5414 13.5749 0.00778613
85 2 12.1854 12.2164 1.37034
86 2 12.1842 14.9304 4.08549
87 2 14.8981 12.2162 4.08619
88 2 14.9011 14.9329 1.36669
89 2 16.2566 10.8583 0.00912664
90 2 16.2584 13.5735 2.726
91 2 18.977 10.8557 2.72685
92 2 18.9756 13.5711 0.00736887
93 2 17.6175 12.2145 1.36759
94 2 17.6184 14.9314 4.08396
95 2 20.3398 12.2107 4.08609
96 2 20.3358 14.9281 1.36662
97 2 21.6945 16.286 0.00613419
98 2 21.6941 19.0033 2.72404
99 2 2.68717 16.283 2.72309
100 2 2.68705 19.0032 0.00638053
101 2 1.32854 17.6442 1.36533
102 2 1.32868 20.3616 4.08288
103 2 4.04667 17.639 4.08395
104 2 4.04538 20.3623 1.36487
105 2 5.40179 16.2848 0.00451572
106 2 5.4019 19.0026 2.7254
107 2 8.11177 16.2805 2.731
108 2 8.11563 19.006 0.00690771
109 2 6.75924 17.643 1.36592
110 2 6.75879 20.3649 4.08426
111 2 9.47178 17.6438 4.08453
112 2 9.47053 20.368 1.36948
113 2 10.8277 16.2893 0.00681783
114 2 10.8285 19.0079 2.72794
115 2 13.5425 16.2906 2.72663
116 2 13.5452 19.008 0.00777545
117 2 12.1857 17.6498 1.36618
118 2 12.1839 20.37 4.08797
119 2 14.9013 17.65 4.08564
120 2 14.9026 20.367 1.36811
121 2 16.2601 16.2899 0.00681262
122 2 16.2611 19.0077 2.72704
123 2 18.9769 16.288 2.72469
124 2 18.9788 19.0049 0.00693457
125 2 17.6191 17.6482 1.36676
126 2 17.6188 20.3671 4.08685
127 2 20.3354 17.6459 4.08355
128 2 20.3367 20.3638 1.36629
129 2 21.6963 21.7223 5.44234
130 2 21.7026 2.71923 8.16141
131 2 2.69429 0.00395357 8.15739
132 2 2.69017 2.71594 5.44387
133 2 1.33139 1.35796 6.80056
134 2 1.3433 4.07984 9.51578
135 2 4.05506 1.36844 9.51219
136 2 4.0495 4.07474 6.8023
137 2 5.4063 0.00391323 5.4437
138 2 5.41301 2.73247 8.16264
139 2 8.11754 0.0048164 8.15678
140 2 8.12566 2.74674 5.47217
141 2 6.76238 1.36859 6.80351
142 2 6.76999 4.10096 9.52033
143 2 9.47168 1.36658 9.5148
144 2 9.45163 4.13463 6.85932
145 2 10.8285 0.00935513 5.44821
146 2 10.8178 2.74444 8.1711
147 2 13.5387 0.0126815 8.16071
148 2 13.5389 2.72397 5.44928
149 2 12.1764 1.3771 6.81081
150 2 12.1281 4.13699 9.53602
151 2 14.8851 1.38003 9.52191
152 2 14.8855 4.08693 6.81166
153 2 16.2595 0.00399757 5.44626
154 2 16.2518 2.72657 8.16137
155 2 18.9783 0.00327583 8.16025
156 2 18.9765 2.71752 5.44557
157 2 17.6148 1.36432 6.80712
158 2 17.6174 4.07813 9.51778
159 2 20.3407 1.36139 9.51713
160 2 20.339 4.07435 6.80343
161 2 21.7012 5.43213 5.44717
162 2 21.7011 8.14251 8.15884
163 2 2.70668 5.43691 8.16371
164 2 2.71827 8.1499 5.47183
165 2 1.34212 6.78743 6.80627
166 2 1.33802 9.49621 9.51622
167 2 4.07439 6.79553 9.51986
168 2 4.10387 9.47846 6.85702
169 2 5.41065 5.43712 5.45996
170 2 5.50787 8.1566 8.26146
171 2 8.12773 5.53838 8.26254
172 2 8.11472 8.14386 5.45426
173 2 6.76703 6.79654 6.82741
176 2 9.46134 9.49256 6.82829
177 2 10.8159 5.44562 5.46774
178 2 10.7235 8.13534 8.26306
179 2 13.5199 5.44746 8.1719
180 2 13.5109 8.13761 5.47421
181 2 12.1261 6.81054 6.86049
182 2 12.1597 9.49321 9.52355
183 2 14.8977 6.79366 9.51861
184 2 14.8886 9.50014 6.80676
185 2 16.2515 5.43385 5.4493
186 2 16.2561 8.14731 8.15889
187 2 18.9775 5.43289 8.15927
188 2 18.9774 8.1444 5.44367
189 2 17.616 6.78997 6.80227
190 2 17.6186 9.50317 9.5132
191 2 20.3401 6.78776 9.51614
192 2 20.34 9.49876 6.80132
193 2 21.7035 10.8537 5.44535
194 2 21.7048 13.5655 8.15397
195 2 2.71192 10.8424 8.16753
196 2 2.69423 13.5619 5.44437
197 2 1.34639 12.2016 6.8069
198 2 1.34763 14.912 9.51486
199 2 4.10456 12.1532 9.53125
200 2 4.05592 14.9098 6.80622
201 2 5.41445 10.842 5.46438
202 2 5.41575 13.5454 8.16777
203 2 8.10091 10.751 8.26265
204 2 8.10552 13.5398 5.47217
205 2 6.77821 12.1529 6.85668
206 2 6.76286 14.9205 9.51572
207 2 9.46241 12.1849 9.52155
208 2 9.46937 14.9173 6.80528
209 2 10.8183 10.8508 5.4611
210 2 10.8193 13.5543 8.16527
211 2 13.5252 10.8507 8.16484
212 2 13.5391 13.5719 5.44575
213 2 12.1812 12.2119 6.80374
214 2 12.1779 14.919 9.5158
215 2 14.8896 12.2092 9.51429
216 2 14.8985 14.9313 6.80087
217 2 16.2513 10.8551 5.44573
218 2 16.2524 13.5697 8.15862
219 2 18.9784 10.8584 8.15474
220 2 18.9771 13.5705 5.44141
221 2 17.614 12.214 6.7995
222 2 17.6151 14.93 9.51117
223 2 20.3411 12.2131 9.51153
224 2 20.3398 14.9263 6.79991
225 2 21.6961 16.2848 5.43973
226 2 21.6985 19.0052 8.15416
227 2 2.69459 16.2776 8.15352
228 2 2.68891 19.0023 5.43999
229 2 1.3328 17.641 6.79873
230 2 1.33361 20.3672 9.51107
231 2 4.04885 17.6409 9.51052
232 2 4.04701 20.3649 6.79707
233 2 5.40336 16.2762 5.44415
234 2 5.4038 19.0026 8.15315
235 2 8.11627 16.2823 8.15877
236 2 8.1153 19.0044 5.44213
237 2 6.76023 17.64 6.79823
238 2 6.76076 20.3655 9.50923
239 2 9.47286 17.6454 9.51312
240 2 9.47184 20.3672 6.79916
241 2 10.825 16.2835 5.44687
242 2 10.8291 19.0087 8.15805
243 2 13.5385 16.2842 8.16206
244 2 13.5429 19.0099 5.44561
245 2 12.1852 17.6461 6.80172
246 2 12.1847 20.3719 9.51476
247 2 14.8986 17.6473 9.5147
248 2 14.8982 20.3725 6.80519
249 2 16.2592 16.2897 5.44291
250 2 16.2578 19.0097 8.15972
251 2 18.9777 16.2874 8.15444
252 2 18.978 19.0065 5.44246
253 2 17.6175 17.6499 6.80062
254 2 17.6151 20.3715 9.51738
255 2 20.3393 17.6454 9.51155
256 2 20.3361 20.3659 6.80063
257 2 21.7065 0.00732585 10.8714
258 2 21.7088 2.72122 13.5823
259 2 2.69821 0.00700299 13.5796
260 2 2.72194 2.74518 10.8758
261 2 1.34993 1.37407 12.2201
262 2 1.35134 4.08396 14.9285
263 2 4.06163 1.37508 14.9258
264 2 4.10773 4.13117 12.2034
265 2 5.40823 0.00447746 10.8672
266 2 5.42103 2.74195 13.5673
267 2 8.1185 0.00758281 13.5805
268 2 8.1202 2.73038 10.868
269 2 6.76651 1.36707 12.2199
270 2 6.785 4.13445 14.878
271 2 9.47353 1.37472 14.9325
272 2 9.46625 4.10506 12.2168
273 2 10.8288 0.00874897 10.8712
274 2 10.8245 2.74064 13.5767
275 2 13.5416 0.0120134 13.5825
276 2 13.5148 2.75363 10.8646
277 2 12.1812 1.3753 12.2259
278 2 12.1868 4.08265 14.9399
279 2 14.9028 1.36433 14.9426
280 2 14.8927 4.08568 12.2288
281 2 16.2527 0.0126913 10.8707
282 2 16.2565 2.72472 13.5845
283 2 18.9823 0.00313668 13.5833
284 2 18.9793 2.71979 10.8735
285 2 17.6177 1.36392 12.2306
286 2 17.6197 4.07746 14.944
287 2 20.3456 1.36164 14.9386
288 2 20.3425 4.07559 12.2299
289 2 21.7025 5.432 10.8716
290 2 21.7026 8.14397 13.5819
291 2 2.71715 5.44328 13.568
292 2 2.70151 8.14256 10.8682
293 2 1.33988 6.79042 12.2236
294 2 1.34417 9.49853 14.9333
295 2 4.10889 6.80714 14.8792
296 2 4.07426 9.49104 12.2155
297 2 5.5091 5.53545 10.8793
298 2 5.51018 8.13157 13.475
299 2 8.10772 5.5395 13.4765
512 2 20.3398 20.3644 17.6521
302 2 6.77154 9.49008 14.91
303 2 9.46838 6.79837 14.9104
305 2 10.7266 5.54155 10.86
307 2 13.5295 5.44484 13.5787
308 2 13.5347 8.14689 10.8719
309 2 12.1623 6.80019 12.2199
310 2 12.1315 9.48246 14.8822
311 2 14.8938 6.79402 14.9369
312 2 14.8974 9.50079 12.2246
313 2 16.2587 5.43707 10.8739
314 2 16.259 8.14862 13.5839
315 2 18.981 5.43302 13.5863
316 2 18.9795 8.14668 10.8708
317 2 17.6209 6.7916 12.2299
318 2 17.62 9.5038 14.9412
319 2 20.3435 6.78869 14.9419
320 2 20.341 9.50168 12.2272
321 2 21.7014 10.8555 10.8687
322 2 21.7024 13.5686 13.5765
323 2 2.70678 10.849 13.5733
324 2 2.7197 13.54 10.8587
325 2 1.34303 12.2076 12.2224
326 2 1.33267 14.9282 14.9361
327 2 4.0504 12.2096 14.9356
328 2 4.05307 14.9168 12.2226
329 2 5.50789 10.7512 10.856
330 2 5.41154 13.5529 13.5736
332 2 8.11592 13.5582 10.8694
333 2 6.76808 12.1846 12.2161
334 2 6.76215 14.9179 14.9324
335 2 9.45316 12.1554 14.8802
336 2 9.46898 14.9221 12.2229
338 2 10.8162 13.5475 13.5693
339 2 13.5206 10.8469 13.5699
340 2 13.5132 13.5429 10.8772
341 2 12.1282 12.1574 12.2057
342 2 12.1757 14.9148 14.928
343 2 14.8868 12.2069 14.9288
344 2 14.8851 14.9157 12.2195
345 2 16.2563 10.8581 10.8689
346 2 16.2527 13.5687 13.5794
347 2 18.9791 10.8596 13.5816
348 2 18.9788 13.5727 10.8651
349 2 17.6183 12.2159 12.223
350 2 17.6163 14.9291 14.9344
351 2 20.3416 12.2144 14.9377
352 2 20.3411 14.9286 12.2211
353 2 21.7044 16.2806 10.8619
354 2 21.6999 19.0058 13.5775
355 2 2.69324 16.282 13.5769
356 2 2.69188 19.0045 10.865
357 2 1.33422 17.6433 12.2211
358 2 1.33612 20.3675 14.9341
359 2 4.04886 17.6434 14.9365
360 2 4.05001 20.3666 12.2212
361 2 5.40607 16.2821 10.8688
362 2 5.40533 19.0066 13.5809
363 2 8.11736 16.2845 13.5819
364 2 8.11703 19.0068 10.8693
365 2 6.76111 17.6447 12.225
366 2 6.76207 20.3692 14.9366
367 2 9.47304 17.6473 14.9387
368 2 9.47354 20.3695 12.2252
369 2 10.8271 16.285 10.8713
370 2 10.8292 19.0102 13.5842
371 2 13.5383 16.282 13.5812
372 2 13.5421 19.0101 10.8716
373 2 12.1841 17.6479 12.2269
374 2 12.1861 20.373 14.9394
375 2 14.8982 17.6461 14.9364
376 2 14.8992 20.3728 12.228
377 2 16.2518 16.2827 10.871
378 2 16.2583 19.0083 13.5815
379 2 18.9782 16.2873 13.5769
380 2 18.9786 19.0082 10.8682
381 2 17.6153 17.6468 12.2225
382 2 17.6207 20.3663 14.9383
383 2 20.3377 17.6475 14.934
384 2 20.3416 20.3689 12.2232
385 2 21.7014 21.7239 16.295
386 2 21.7014 2.71431 19.012
387 2 2.69159 8.71663e-06 19.0118
388 2 2.69954 2.72113 16.29
389 2 1.33851 1.36053 17.6499
390 2 1.3362 4.07456 20.3678
391 2 4.05083 1.36043 20.3678
392 2 4.06164 4.08465 17.6372
393 2 5.40698 0.00932569 16.2908
394 2 5.40721 2.72192 19.005
395 2 8.1154 0.00995443 19.0071
396 2 8.11137 2.75061 16.2674
397 2 6.76799 1.37634 17.638
398 2 6.7628 4.07529 20.3702
399 2 9.47505 1.36179 20.371
400 2 9.47493 4.08365 17.6443
401 2 10.8277 0.0107251 16.2948
402 2 10.8281 2.72277 19.01
403 2 13.5455 0.00214913 19.0148
404 2 13.5449 2.72295 16.2992
405 2 12.1878 1.36344 17.6562
406 2 12.1881 4.07589 20.3727
407 2 14.9047 1.35934 20.3749
408 2 14.9043 4.07745 17.6584
409 2 16.2626 0.00191213 16.2979
410 2 16.2639 2.71687 19.0155
411 2 18.9822 21.7222 19.0132
412 2 18.9837 2.71746 16.2981
413 2 17.6239 1.3586 17.6568
414 2 17.6224 4.07461 20.3749
415 2 20.3406 1.35716 20.3719
416 2 20.3457 4.07564 17.6544
417 2 21.7084 5.43039 16.2922
418 2 21.7058 8.13931 19.0051
419 2 2.69691 5.43009 19.0037
420 2 2.7222 8.13429 16.2646
421 2 1.35044 6.79151 17.6378
422 2 1.33342 9.4986 20.3678
423 2 4.0493 6.78664 20.3681
424 2 4.05471 9.49804 17.6411
425 2 5.42134 5.44438 16.2707
426 2 5.40641 8.14347 19.0071
427 2 8.11917 5.43378 19.0101
428 2 8.12061 8.14423 16.2836
429 2 6.76741 6.79191 17.6467
430 2 6.761 9.50105 20.3679
431 2 9.47532 6.78909 20.3722
432 2 9.47219 9.49859 17.6472
433 2 10.8245 5.44375 16.2815
434 2 10.8295 8.14718 19.0111
435 2 13.5425 5.43683 19.0118
436 2 13.5164 8.15605 16.2702
437 2 12.1829 6.79317 17.6462
438 2 12.1864 9.50417 20.3721
439 2 14.902 6.79029 20.3745
440 2 14.8877 9.49935 17.6423
441 2 16.2573 5.43762 16.298
442 2 16.2536 8.14835 19.0094
443 2 18.9823 5.43077 19.0138
444 2 18.9803 8.14484 16.2985
445 2 17.6199 6.78986 17.6582
446 2 17.6162 9.50082 20.3727
447 2 20.3424 6.78852 20.3712
448 2 20.3417 9.50059 17.6549
449 2 21.7023 10.8533 16.2928
450 2 21.6943 13.5695 19.0119
451 2 2.69194 10.8519 19.0039
452 2 2.6905 13.5689 16.2931
453 2 1.33146 12.213 17.6522
454 2 1.32891 14.9284 20.3705
455 2 4.0463 12.2117 20.3647
456 2 4.04661 14.9287 17.6511
457 2 5.4136 10.848 16.2773
458 2 5.4059 13.5677 19.0041
459 2 8.1175 10.8571 19.0067
460 2 8.1257 13.5414 16.2653
461 2 6.76227 12.2078 17.6412
462 2 6.75943 14.9284 20.3658
463 2 9.47195 12.2163 20.3682
464 2 9.46803 14.9158 17.6368
465 2 10.8182 10.8462 16.2723
466 2 10.8286 13.5701 19.0047
467 2 13.5385 10.8605 19.0067
468 2 13.5388 13.5687 16.291
469 2 12.1764 12.2072 17.6391
470 2 12.1841 14.9311 20.3681
471 2 14.8984 12.2157 20.3709
472 2 14.8988 14.9294 17.6506
473 2 16.253 10.8597 16.293
474 2 16.2578 13.5731 19.0121
475 2 18.977 10.8563 19.0124
476 2 18.9771 13.5714 16.2938
477 2 17.6165 12.2145 17.6533
478 2 17.6179 14.9301 20.3715
479 2 20.3351 12.2128 20.3729
480 2 20.3365 14.9293 17.6525
481 2 21.696 16.2878 16.2931
482 2 21.6971 19.0045 19.0113
483 2 2.68809 16.2867 19.0113
484 2 2.69199 19.0062 16.2937
485 2 1.33201 17.6468 17.6514
486 2 1.33227 20.3638 20.3701
487 2 4.04586 17.6466 20.3699
488 2 4.05057 20.3687 17.6505
489 2 5.40742 16.2824 16.2925
490 2 5.40469 19.0065 19.0115
491 2 8.11933 16.2819 19.0044
492 2 8.11774 19.0091 16.2963
493 2 6.76126 17.6455 17.6517
494 2 6.76202 20.3687 20.3691
495 2 9.47136 17.6464 20.3679
496 2 9.47383 20.3712 17.6537
497 2 10.8296 16.2827 16.2912
498 2 10.8297 19.0087 19.0119
499 2 13.5443 16.2899 19.0117
500 2 13.5429 19.0087 16.2957
501 2 12.185 17.6466 17.652
502 2 12.1872 20.3671 20.3732
503 2 14.9026 17.6493 20.3711
504 2 14.9034 20.3661 17.6554
505 2 16.259 16.2886 16.2937
506 2 16.2625 19.0061 19.0123
507 2 18.977 16.2874 19.0112
508 2 18.98 19.006 16.2938
509 2 17.6195 17.6474 17.6517
510 2 17.6211 20.3648 20.372
511 2 20.3368 17.6457 20.3707
ITEM: TIMESTEP
77
ITEM: NUMBER OF ATOMS
504
ITEM: BOX BOUNDS pp pp pp
0.0000000000000000e+00 2.1724000000000000e+01
0.0000000000000000e+00 2.1724000000000000e+01
0.0000000000000000e+00 2.1724000000000000e+01
ITEM: ATOMS id type x y z
1 2 21.6964 21.7238 0.00713445
2 2 21.6975 2.7176 2.72611
3 2 2.69007 21.725 2.72597
4 2 2.69011 2.71748 0.00797864
5 2 1.33109 1.3586 1.36635
6 2 1.33355 4.0755 4.08614
7 2 4.04793 1.36107 4.08602
8 2 4.04823 4.0757 1.36902
9 2 5.40536 21.7249 0.00756644
10 2 5.4078 2.72161 2.73178
11 2 8.11997 0.00665701 2.73152
12 2 8.11808 2.71872 0.00641711
13 2 6.76158 1.36133 1.36871
14 2 6.76273 4.08305 4.09638
15 2 9.46945 1.37299 4.09782
16 2 9.47393 4.0763 1.36813
17 2 10.8297 0.00268323 0.00616466
18 2 10.8298 2.72114 2.73139
19 2 13.5441 0.00106364 2.72591
20 2 13.5433 2.71927 0.0058614
21 2 12.1859 1.36162 1.36823
22 2 12.1803 4.08207 4.09565
23 2 14.9007 1.36076 4.08566
24 2 14.9008 4.07659 1.36779
25 2 16.261 21.7244 0.00713758
26 2 16.2603 2.71744 2.72553
27 2 18.9786 21.724 2.72495
28 2 18.9784 2.71716 0.00699443
29 2 17.6195 1.35889 1.3664
30 2 17.6186 4.07581 4.08505
31 2 20.3378 1.35873 4.08374
32 2 20.3379 4.07485 1.36649
33 2 21.6974 5.43283 0.00765665
34 2 21.7028 8.1475 2.73142
35 2 2.69404 5.43524 2.73173
36 2 2.69094 8.14547 0.00617602
37 2 1.33371 6.78909 1.36874
38 2 1.34504 9.49703 4.09763
39 2 4.05535 6.79027 4.0963
40 2 4.04841 9.5014 1.36782
41 2 5.40469 5.4322 0.00605166
42 2 5.40639 8.14581 2.72948
43 2 8.11823 5.43424 2.72968
44 2 8.11763 8.14542 0.00660776
45 2 6.76118 6.78881 1.36749
46 2 6.76441 9.50095 4.09033
47 2 9.47325 6.79237 4.09056
48 2 9.47438 9.50227 1.36676
49 2 10.8309 5.43257 0.00629282
50 2 10.8304 8.14572 2.72788
51 2 13.5419 5.43269 2.73105
52 2 13.5437 8.14599 0.00556666
53 2 12.1875 6.78914 1.36741
54 2 12.1845 9.50151 4.09076
55 2 14.8945 6.7927 4.09374
56 2 14.9013 9.50201 1.36701
57 2 16.2585 5.43385 0.00536007
58 2 16.2567 8.14473 2.72965
59 2 18.9791 5.43296 2.72605
60 2 18.9767 8.14652 0.00531531
61 2 17.6176 6.78992 1.36725
62 2 17.6144 9.50328 4.08894
63 2 20.3401 6.78921 4.08638
64 2 20.3393 9.50079 1.36798
65 2 21.6986 10.8572 0.00584425
66 2 21.6969 13.5716 2.72544
67 2 2.69304 10.8572 2.73091
68 2 2.69114 13.5707 0.00525696
69 2 1.33351 12.2134 1.3678
70 2 1.33255 14.9283 4.08511
71 2 4.0539 12.2078 4.09509
72 2 4.04845 14.9283 1.36711
73 2 5.40453 10.8584 0.0058518
74 2 5.4045 13.5694 2.73047
75 2 8.11762 10.8582 2.72764
76 2 8.11785 13.5715 0.00517499
77 2 6.76104 12.2151 1.36692
78 2 6.7645 14.9221 4.09313
79 2 9.47336 12.2124 4.0905
80 2 9.47386 14.9292 1.36662
81 2 10.8309 10.8589 0.00595544
82 2 10.8292 13.571 2.72842
83 2 13.5429 10.8574 2.72856
84 2 13.5439 13.572 0.00417764
85 2 12.1875 12.2156 1.36701
86 2 12.187 14.9278 4.08789
87 2 14.8997 12.2152 4.08801
88 2 14.9019 14.93 1.36546
89 2 16.2586 10.8583 0.00463272
90 2 16.2594 13.5717 2.72633
91 2 18.9772 10.8574 2.72729
92 2 18.9782 13.5724 0.00682983
93 2 17.6186 12.2145 1.36585
94 2 17.6191 14.9302 4.08433
95 2 20.3392 12.2135 4.08617
96 2 20.3376 14.9301 1.36621
97 2 21.6964 16.2885 0.00672495
98 2 21.6962 19.0062 2.72472
99 2 2.68937 16.2878 2.72497
100 2 2.68943 19.0058 0.0066322
101 2 1.3309 17.647 1.36593
102 2 1.33094 20.3654 4.08349
103 2 4.04777 17.6462 4.08445
104 2 4.04714 20.3653 1.36613
105 2 5.40585 16.286 0.00482583
106 2 5.40518 19.0066 2.72572
107 2 8.11667 16.2845 2.72931
108 2 8.11878 19.0045 0.00516527
109 2 6.76193 17.6453 1.36672
110 2 6.76143 20.3678 4.08608
111 2 9.47524 17.6423 4.08864
112 2 9.47306 20.3672 1.3679
113 2 10.8302 16.2866 0.00451171
114 2 10.8296 19.0054 2.72739
115 2 13.5436 16.2877 2.72637
116 2 13.5446 19.0064 0.00704204
117 2 12.1865 17.6467 1.36578
118 2 12.1857 20.3674 4.08636
119 2 14.9021 17.6473 4.08441
120 2 14.9024 20.3657 1.3665
121 2 16.2608 16.2889 0.00689423
122 2 16.2608 19.0063 2.72518
123 2 18.9782 16.2886 2.72499
124 2 18.9786 19.0063 0.00711128
125 2 17.6196 17.6476 1.36602
126 2 17.6194 20.3655 4.08376
127 2 20.3374 17.6472 4.08354
128 2 20.3374 20.3651 1.36596
129 2 21.6975 21.7251 5.44263
130 2 21.7033 2.72173 8.16037
131 2 2.69412 0.00682941 8.16022
132 2 2.69436 2.72186 5.44686
133 2 1.33355 1.36114 6.8005
134 2 1.34395 4.08309 9.51532
135 2 4.05551 1.37147 9.51518
136 2 4.05461 4.08218 6.8071
137 2 5.40775 0.00681933 5.44653
138 2 5.4183 2.73999 8.17073
139 2 8.11829 0.00490174 8.15909
140 2 8.12475 2.74412 5.46899
141 2 6.76273 1.3715 6.8079
142 2 6.77869 4.10963 9.53112
143 2 9.47338 1.36585 9.51718
144 2 9.45728 4.12536 6.85017
145 2 10.8297 0.00654639 5.44598
146 2 10.8234 2.7368 8.16709
147 2 13.5419 0.00630628 8.15757
148 2 13.542 2.7206 5.44546
149 2 12.1803 1.37082 6.80692
150 2 12.1645 4.10721 9.52571
151 2 14.8946 1.36898 9.51761
152 2 14.8962 4.07997 6.80486
153 2 16.2603 0.000623489 5.44238
154 2 16.2577 2.71985 8.15771
155 2 18.9791 0.00118894 8.15797
156 2 18.9795 2.71773 5.44273
157 2 17.6186 1.3601 6.8008
158 2 17.6158 4.07744 9.51598
159 2 20.3403 1.3615 9.51422
160 2 20.3405 4.07589 6.8009
161 2 21.7032 5.43534 5.44664
162 2 21.701 8.1459 8.15901
163 2 2.71235 5.44583 8.17071
164 2 2.71622 8.15226 5.46876
165 2 1.34379 6.79033 6.80796
166 2 1.33789 9.50096 9.51702
167 2 4.08195 6.80625 9.53107
168 2 4.09736 9.48487 6.84987
169 2 5.41818 5.44583 5.46481
170 2 5.49705 8.16988 8.24955
171 2 8.14217 5.52498 8.24972
172 2 8.12181 8.14972 5.45344
173 2 6.77854 6.80628 6.8344
176 2 9.4733 9.50127 6.81923
177 2 10.8233 5.44225 5.46151
178 2 10.8017 8.15309 8.20679
179 2 13.5358 5.4392 8.16395
180 2 13.5302 8.14369 5.46031
181 2 12.1643 6.80085 6.83192
182 2 12.1133 9.51471 9.58731
183 2 14.89 6.7955 9.5203
184 2 14.8801 9.50737 6.82056
185 2 16.2576 5.43276 5.44464
186 2 16.2528 8.14694 8.16119
187 2 18.9776 5.43245 8.15734
188 2 18.9776 8.14569 5.44359
189 2 17.6157 6.79098 6.80228
190 2 17.6169 9.50224 9.51456
191 2 20.339 6.78896 9.51387
192 2 20.3393 9.50156 6.80108
193 2 21.7024 10.8573 5.44564
194 2 21.702 13.5695 8.15708
195 2 2.7086 10.8509 8.16664
196 2 2.69234 13.5695 5.44485
197 2 1.34262 12.2079 6.80648
198 2 1.34074 14.9221 9.51705
199 2 4.07901 12.192 9.52517
200 2 4.05173 14.9237 6.80418
201 2 5.41409 10.8509 5.46107
202 2 5.41092 13.5635 8.16339
203 2 8.12495 10.8297 8.20652
204 2 8.11545 13.5581 5.45993
205 2 6.77266 12.1921 6.83143
206 2 6.76728 14.9177 9.51969
207 2 9.48656 12.1412 9.58705
208 2 9.47915 14.9081 6.82019
209 2 10.8263 10.8545 5.45233
210 2 10.8181 13.531 8.19528
211 2 13.5029 10.8463 8.19542
212 2 13.539 13.5672 5.45052
213 2 12.1799 12.208 6.81366
214 2 12.178 14.9109 9.52319
215 2 14.8827 12.2062 9.5233
216 2 14.8991 14.9273 6.80291
217 2 16.2493 10.8548 5.45241
218 2 16.2485 13.5656 8.16453
219 2 18.9774 10.8586 8.15717
220 2 18.9768 13.5709 5.44378
221 2 17.6134 12.2151 6.80311
222 2 17.6132 14.9267 9.5146
223 2 20.3385 12.2152 9.51368
224 2 20.3387 14.9284 6.80109
225 2 21.6965 16.2879 5.44194
226 2 21.6973 19.0067 8.15772
227 2 2.69169 16.2852 8.15713
228 2 2.68988 19.007 5.44235
229 2 1.33201 17.6462 6.80031
230 2 1.3337 20.3679 9.51396
231 2 4.04938 17.6433 9.51535
232 2 4.04808 20.3681 6.80052
233 2 5.40465 16.2852 5.44411
234 2 5.40459 19.0052 8.15699
235 2 8.1188 16.2807 8.16086
236 2 8.11785 19.0055 5.44346
237 2 6.76292 17.6433 6.80175
238 2 6.76118 20.3667 9.51354
239 2 9.47419 17.6448 9.51427
240 2 9.47376 20.3673 6.80102
241 2 10.8267 16.2775 5.45232
242 2 10.8307 19.0055 8.15728
243 2 13.5375 16.2768 8.16458
244 2 13.5431 19.005 5.44403
245 2 12.187 17.6416 6.80308
246 2 12.1874 20.3667 9.51387
247 2 14.8986 17.6414 9.51469
248 2 14.9006 20.3669 6.80141
249 2 16.2589 16.287 5.44382
250 2 16.2583 19.0045 8.15867
251 2 18.9764 16.2862 8.15846
252 2 18.9782 19.006 5.44205
253 2 17.6187 17.6468 6.80035
254 2 17.6176 20.3664 9.51478
255 2 20.3383 17.6454 9.51453
256 2 20.3377 20.3655 6.79978
257 2 21.7031 0.00668064 10.8725
258 2 21.7029 2.72103 13.5823
259 2 2.69353 0.00632152 13.5822
260 2 2.71656 2.74404 10.8772
261 2 1.34542 1.37292 12.222
262 2 1.34315 4.08188 14.9329
263 2 4.05443 1.37055 14.9327
264 2 4.09774 4.12522 12.2098
265 2 5.40669 0.00480926 10.8707
266 2 5.41461 2.73656 13.5759
267 2 8.11806 0.00317483 13.583
268 2 8.12214 2.72886 10.8746
269 2 6.76477 1.36574 12.2258
270 2 6.77318 4.10696 14.917
271 2 9.47384 1.36608 14.9372
272 2 9.47366 4.09467 12.2261
273 2 10.8306 0.0033147 10.8705
274 2 10.8268 2.72791 13.5794
275 2 13.5433 0.00410046 13.5822
276 2 13.5305 2.73575 10.8686
277 2 12.1848 1.36621 12.2263
278 2 12.1804 4.08924 14.9329
279 2 14.9001 1.36351 14.94
280 2 14.8805 4.09597 12.2323
281 2 16.2569 0.00501943 10.8696
282 2 16.2498 2.72791 13.5798
283 2 18.9777 0.00270528 13.5823
284 2 18.9779 2.71889 10.8707
285 2 17.6147 1.36427 12.2282
286 2 17.614 4.07854 14.9401
287 2 20.3397 1.36155 14.9385
288 2 20.3397 4.07636 12.2266
289 2 21.7012 5.43426 10.8708
290 2 21.6993 8.14559 13.583
291 2 2.70901 5.44203 13.5758
292 2 2.70096 8.14963 10.8744
293 2 1.33811 6.79229 12.2259
294 2 1.33822 9.50131 14.9371
295 2 4.0794 6.8006 14.9169
296 2 4.06679 9.50112 12.2258
297 2 5.49727 5.52489 10.8947
298 2 5.45428 8.15286 13.5542
299 2 8.12536 5.48206 13.5544
512 2 20.3379 20.3656 17.6549
302 2 6.83476 9.51449 14.8658
303 2 9.48692 6.86264 14.866
305 2 10.8019 5.48222 10.8779
307 2 13.5032 5.47101 13.5711
308 2 13.5229 8.1512 10.8758
309 2 12.1134 6.86278 12.2395
310 2 12.0922 9.49025 14.8448
311 2 14.8831 6.79881 14.931
312 2 14.8925 9.50029 12.225
313 2 16.253 5.43656 10.8718
314 2 16.2549 8.14732 13.5807
315 2 18.9778 5.43259 13.5835
316 2 18.9781 8.14555 10.8703
317 2 17.6171 6.78987 12.2271
318 2 17.6157 9.50203 14.9387
319 2 20.3389 6.78907 14.9402
320 2 20.3383 9.50229 12.2271
321 2 21.6992 10.8582 10.8702
322 2 21.6999 13.5709 13.5818
323 2 2.69981 10.8543 13.5789
324 2 2.70747 13.558 10.868
325 2 1.33807 12.2123 12.2259
326 2 1.33539 14.9276 14.9395
327 2 4.06114 12.2078 14.9324
328 2 4.06778 14.908 12.2316
329 2 5.45406 10.8295 10.8775
330 2 5.44277 13.5308 13.5706
332 2 8.12295 13.5507 10.8754
333 2 6.83462 12.1411 12.239
334 2 6.77069 14.9107 14.9304
335 2 9.46223 12.12 14.8445
336 2 9.47214 14.9204 12.2246
338 2 10.8188 13.5448 13.5713
339 2 13.5167 10.8469 13.5714
340 2 13.4913 13.5195 10.8886
341 2 12.092 12.1201 12.2147
342 2 12.1773 14.9115 14.9298
343 2 14.8835 12.2054 14.9299
344 2 14.8748 14.9029 12.2191
345 2 16.2548 10.856 10.8718
346 2 16.2491 13.5658 13.5816
347 2 18.9774 10.8589 13.5835
348 2 18.9767 13.5716 10.8705
349 2 17.6156 12.2139 12.2266
350 2 17.6134 14.9266 14.9369
351 2 20.3385 12.2155 14.9401
352 2 20.3382 14.9292 12.2264
353 2 21.7009 16.2845 10.8692
354 2 21.6989 19.0052 13.582
355 2 2.69983 16.2772 13.5792
356 2 2.69105 19.0054 10.8703
357 2 1.33626 17.6422 12.2277
358 2 1.33389 20.3672 14.9382
359 2 4.0506 17.6414 14.9395
360 2 4.04864 20.3671 12.2262
361 2 5.40843 16.2806 10.8712
362 2 5.40481 19.0053 13.5831
363 2 8.11925 16.2827 13.5803
364 2 8.11771 19.006 10.8701
365 2 6.76187 17.6447 12.2266
366 2 6.76139 20.3664 14.9398
367 2 9.47407 17.6435 14.9383
368 2 9.47455 20.3662 12.227
369 2 10.8279 16.2829 10.8717
370 2 10.8311 19.0055 13.5836
371 2 13.5378 16.2773 13.5817
372 2 13.5438 19.0049 10.8707
373 2 12.1859 17.6436 12.2265
374 2 12.1878 20.3665 14.9403
375 2 14.8986 17.6415 14.9369
376 2 14.9014 20.3664 12.2268
377 2 16.2465 16.2746 10.8749
378 2 16.2588 19.0041 13.5829
379 2 18.976 16.2866 13.5828
380 2 18.9767 19.0046 10.8713
381 2 17.613 17.6411 12.2243
382 2 17.6189 20.3653 14.9393
383 2 20.3373 17.6466 14.939
384 2 20.3395 20.3672 12.2256
385 2 21.6974 21.7248 16.2966
386 2 21.6969 2.7172 19.0129
387 2 2.68977 0.000281706 19.0127
388 2 2.69291 2.72026 16.2945
389 2 1.33308 1.3605 17.6532
390 2 1.33239 4.07558 20.3712
391 2 4.04814 1.35979 20.3711
392 2 4.05225 4.07963 17.6487
393 2 5.40502 0.00596626 16.2943
394 2 5.40509 2.71949 19.0102
395 2 8.11705 0.00476344 19.0094
396 2 8.116 2.73549 16.283
397 2 6.76501 1.36867 17.647
398 2 6.76329 4.07716 20.3683
399 2 9.4756 1.3641 20.3672
400 2 9.47967 4.09576 17.633
401 2 10.8297 0.00399532 16.2958
402 2 10.8272 2.72779 19.0023
403 2 13.544 0.00180282 19.0124
404 2 13.5395 2.72609 16.2921
405 2 12.1875 1.36344 17.6526
406 2 12.1874 4.0785 20.3665
407 2 14.9025 1.35976 20.3721
408 2 14.8996 4.07839 17.6523
409 2 16.2599 0.00181134 16.2966
410 2 16.2593 2.71917 19.0119
411 2 18.9786 21.7243 19.0135
412 2 18.9773 2.7192 16.2959
413 2 17.6196 1.35973 17.6551
414 2 17.6191 4.07562 20.3717
415 2 20.3378 1.35878 20.3721
416 2 20.3392 4.07646 17.6534
417 2 21.7025 5.43247 16.2944
418 2 21.701 8.14451 19.0093
419 2 2.69201 5.43243 19.0102
420 2 2.70772 8.14337 16.2828
421 2 1.34112 6.79244 17.6471
422 2 1.33625 9.50307 20.367
423 2 4.04959 6.7907 20.3682
424 2 4.06793 9.50707 17.6327
425 2 5.41137 5.43886 16.2883
426 2 5.40854 8.14662 19.0053
427 2 8.11914 5.4363 19.0055
428 2 8.12319 8.15097 16.2754
429 2 6.76765 6.7952 17.6426
430 2 6.76188 9.50201 20.3694
431 2 9.47444 6.78972 20.3696
432 2 9.47232 9.50013 17.645
433 2 10.8185 5.47089 16.2558
434 2 10.828 8.14722 19.0075
435 2 13.5378 5.44002 19.0016
436 2 13.4915 8.16421 16.2442
437 2 12.1784 6.79875 17.6357
438 2 12.186 9.50202 20.3683
439 2 14.8989 6.79007 20.3663
440 2 14.875 9.49464 17.6276
441 2 16.249 5.44003 16.2905
442 2 16.2467 8.15031 18.9993
443 2 18.9767 5.43376 19.0111
444 2 18.9769 8.1459 16.2964
445 2 17.6136 6.79004 17.6516
446 2 17.6131 9.4997 20.3658
447 2 20.3386 6.78981 20.3703
448 2 20.3384 9.50187 17.654
449 2 21.6999 10.8572 16.2955
450 2 21.6977 13.5715 19.012
451 2 2.69975 10.8545 19.0019
452 2 2.69793 13.5669 16.2915
453 2 1.33538 12.2149 17.6522
454 2 1.33166 14.93 20.3716
455 2 4.05044 12.2149 20.3659
456 2 4.0503 14.927 17.6516
457 2 5.44282 10.846 16.2554
458 2 5.4119 13.5653 19.001
459 2 8.1192 10.8558 19.0073
460 2 8.13607 13.5193 16.2438
461 2 6.77069 12.2059 17.6352
462 2 6.76197 14.9265 20.3656
463 2 9.47396 12.2138 20.368
464 2 9.46655 14.9028 17.6272
465 2 10.8188 10.8468 16.2693
466 2 10.829 13.5658 19.0017
467 2 13.5378 10.8572 19.0018
468 2 13.5394 13.5675 16.2919
469 2 12.1773 12.2053 17.636
470 2 12.1843 14.9266 20.3659
471 2 14.8986 12.2124 20.366
472 2 14.8989 14.927 17.6514
473 2 16.2492 10.8572 16.2904
474 2 16.2589 13.5721 19.0115
475 2 18.976 10.8582 19.0112
476 2 18.9756 13.5719 16.2965
477 2 17.6134 12.2124 17.6512
478 2 17.6187 14.93 20.3713
479 2 20.3372 12.2144 20.3713
480 2 20.3369 14.9299 17.6544
481 2 21.6978 16.2874 16.2961
482 2 21.6966 19.006 19.0133
483 2 2.69119 16.2867 19.0114
484 2 2.69148 19.0047 16.2955
485 2 1.33182 17.647 17.6546
486 2 1.33112 20.3652 20.3719
487 2 4.0477 17.6465 20.3711
488 2 4.04882 20.3666 17.653
489 2 5.41202 16.2765 16.2899
490 2 5.40606 19.0042 19.0108
491 2 8.12231 16.2744 18.999
492 2 8.11816 19.0047 16.2962
493 2 6.76212 17.6412 17.651
494 2 6.76214 20.3661 20.37