ITEM: TIMESTEP
0
ITEM: NUMBER OF ATOMS
7
ITEM: BOX BOUNDS pp pp pp
0.0000000000000000e+00 2.1724000000000000e+01
0.0000000000000000e+00 2.1724000000000000e+01
0.0000000000000000e+00 2.1724000000000000e+01
ITEM: ATOMS id type x y z
174 1 6.89835 9.45352 9.65164
175 1 9.41964 6.93641 9.65383
301 1 6.90061 6.93555 12.1718
304 1 8.54401 8.58221 11.2972
306 1 10.5429 8.43815 13.2932
331 1 8.39765 10.5732 13.2937
337 1 10.5428 10.5737 11.151
ITEM: TIMESTEP
77
ITEM: NUMBER OF ATOMS
7
ITEM: BOX BOUNDS pp pp pp
0.0000000000000000e+00 2.1724000000000000e+01
0.0000000000000000e+00 2.1724000000000000e+01
0.0000000000000000e+00 2.1724000000000000e+01
ITEM: ATOMS id type x y z
174 1 6.91179 9.48184 9.66424
175 1 9.45409 6.93973 9.66448
301 1 6.91204 6.93962 12.2066
304 1 8.54241 8.57038 11.2949
306 1 10.5383 8.42718 13.291
331 1 8.39907 10.5662 13.2908
337 1 10.5382 10.5663 11.1516
ITEM: TIMESTEP
132
ITEM: NUMBER OF ATOMS
7
ITEM: BOX BOUNDS pp pp pp
0.0000000000000000e+00 2.1724000000000000e+01
0.0000000000000000e+00 2.1724000000000000e+01
0.0000000000000000e+00 2.1724000000000000e+01
ITEM: ATOMS id type x y z
174 1 6.9153 9.47882 9.66781
175 1 9.45101 6.94312 9.66786
301 1 6.91534 6.9431 12.2035
304 1 8.5532 8.58103 11.3057
306 1 10.5406 8.42014 13.2932
331 1 8.39229 10.5685 13.2932
337 1 10.5406 10.5685 11.1448
