ITEM: TIMESTEP
0
ITEM: NUMBER OF ATOMS
7
ITEM: BOX BOUNDS pp pp pp
0.0000000000000000e+00 2.1724000000000000e+01
0.0000000000000000e+00 2.1724000000000000e+01
0.0000000000000000e+00 2.1724000000000000e+01
ITEM: ATOMS id type x y z
174 1 7.08193 9.17509 9.83735
175 1 9.15099 7.1123 9.83776
301 1 7.08405 7.11101 11.9002
304 1 9.15212 9.17675 11.9013
306 1 10.7279 8.1596 13.478
331 1 8.13015 10.7516 13.4758
337 1 10.7252 10.754 10.8817
ITEM: TIMESTEP
77
ITEM: NUMBER OF ATOMS
7
ITEM: BOX BOUNDS pp pp pp
0.0000000000000000e+00 2.1724000000000000e+01
0.0000000000000000e+00 2.1724000000000000e+01
0.0000000000000000e+00 2.1724000000000000e+01
ITEM: ATOMS id type x y z
174 1 7.08414 9.17716 9.83659
175 1 9.14961 7.11201 9.83678
301 1 7.08432 7.11191 11.9021
304 1 9.14967 9.17733 11.9021
306 1 10.7241 8.15678 13.4767
331 1 8.12881 10.7517 13.4764
337 1 10.7239 10.7519 10.8814
ITEM: TIMESTEP
132
ITEM: NUMBER OF ATOMS
7
ITEM: BOX BOUNDS pp pp pp
0.0000000000000000e+00 2.1724000000000000e+01
0.0000000000000000e+00 2.1724000000000000e+01
0.0000000000000000e+00 2.1724000000000000e+01
ITEM: ATOMS id type x y z
174 1 7.08418 9.17728 9.83669
175 1 9.14957 7.11194 9.83673
301 1 7.08421 7.11192 11.9021
304 1 9.14958 9.17731 11.9021
306 1 10.724 8.15655 13.4765
331 1 8.12877 10.7517 13.4765
337 1 10.7239 10.7517 10.8813
