ITEM: TIMESTEP
0
ITEM: NUMBER OF ATOMS
504
ITEM: BOX BOUNDS pp pp pp
0.0000000000000000e+00 2.1724000000000000e+01
0.0000000000000000e+00 2.1724000000000000e+01
0.0000000000000000e+00 2.1724000000000000e+01
ITEM: ATOMS id type x y z
1 2 21.6973 21.721 0.00688225
2 2 21.6969 2.71493 2.72619
3 2 2.68745 21.7205 2.72477
4 2 2.69088 2.71495 0.00630037
5 2 1.33124 1.35658 1.36548
6 2 1.33187 4.07362 4.0858
7 2 4.0455 1.35692 4.08394
8 2 4.0483 4.07206 1.36949
9 2 5.40358 21.724 0.00751835
10 2 5.40732 2.71783 2.73233
11 2 8.11877 0.00678071 2.73421
12 2 8.11782 2.71709 0.0091092
13 2 6.76084 1.35864 1.36924
14 2 6.76167 4.07952 4.09599
15 2 9.46794 1.37418 4.10031
16 2 9.47402 4.07461 1.37142
17 2 10.8297 0.0021368 0.00990572
18 2 10.8296 2.72181 2.73604
19 2 13.5441 0.00241007 2.72871
20 2 13.5457 2.71794 0.0107972
21 2 12.1852 1.36252 1.37221
22 2 12.1758 4.08487 4.10209
23 2 14.8989 1.36373 4.08939
24 2 14.9 4.07789 1.37327
25 2 16.263 21.7239 0.00874342
26 2 16.2605 2.71804 2.72856
27 2 18.9788 21.7229 2.72683
28 2 18.9815 2.71514 0.00829986
29 2 17.6208 1.35907 1.36846
30 2 17.6157 4.07805 4.08923
31 2 20.3365 1.35835 4.08599
32 2 20.3386 4.07428 1.36745
33 2 21.7 5.42945 0.00718387
34 2 21.7026 8.14432 2.73181
35 2 2.69281 5.43167 2.73109
36 2 2.69029 8.14175 0.00552514
37 2 1.33372 6.78625 1.36899
38 2 1.34647 9.49239 4.09852
39 2 4.05248 6.78736 4.09537
40 2 4.0482 9.49761 1.36666
41 2 5.40397 5.42992 0.00741903
42 2 5.40477 8.14158 2.72905
43 2 8.11653 5.43192 2.73081
44 2 8.11626 8.14489 0.00694921
45 2 6.76113 6.78632 1.36769
46 2 6.76207 9.49594 4.08983
47 2 9.4689 6.79126 4.09125
48 2 9.47293 9.5019 1.36743
49 2 10.8308 5.43189 0.0104455
50 2 10.8266 8.1452 2.73044
51 2 13.5383 5.43272 2.73627
52 2 13.5427 8.1464 0.0102018
53 2 12.1862 6.78937 1.37164
54 2 12.1772 9.50034 4.09737
55 2 14.884 6.79407 4.10295
56 2 14.8988 9.50238 1.37236
57 2 16.2604 5.43145 0.0103244
58 2 16.2509 8.1421 2.73527
59 2 18.9779 5.4314 2.7278
60 2 18.9779 8.14298 0.00836771
61 2 17.6158 6.78987 1.37184
62 2 17.6146 9.50084 4.08753
63 2 20.3395 6.78711 4.08726
64 2 20.3392 9.49817 1.36886
65 2 21.6965 10.8534 0.00552137
66 2 21.6956 13.5679 2.72487
67 2 2.69262 10.8521 2.73029
68 2 2.68784 13.5676 0.00340759
69 2 1.33208 12.209 1.3675
70 2 1.333 14.9221 4.0855
71 2 4.05544 12.2001 4.09579
72 2 4.04623 14.9239 1.3653
73 2 5.40228 10.8559 0.00409466
74 2 5.40224 13.5642 2.72943
75 2 8.11471 10.8546 2.72912
76 2 8.1139 13.5719 0.00565944
77 2 6.75949 12.2112 1.36619
78 2 6.76397 14.9106 4.09673
79 2 9.46892 12.208 4.09475
80 2 9.47098 14.929 1.36714
81 2 10.8283 10.8612 0.00760532
82 2 10.8238 13.5699 2.73128
83 2 13.5374 10.8557 2.73351
84 2 13.5414 13.5749 0.00778613
85 2 12.1854 12.2164 1.37034
86 2 12.1842 14.9304 4.08549
87 2 14.8981 12.2162 4.08619
88 2 14.9011 14.9329 1.36669
89 2 16.2566 10.8583 0.00912664
90 2 16.2584 13.5735 2.726
91 2 18.977 10.8557 2.72685
92 2 18.9756 13.5711 0.00736887
93 2 17.6175 12.2145 1.36759
94 2 17.6184 14.9314 4.08396
95 2 20.3398 12.2107 4.08609
96 2 20.3358 14.9281 1.36662
97 2 21.6945 16.286 0.00613419
98 2 21.6941 19.0033 2.72404
99 2 2.68717 16.283 2.72309
100 2 2.68705 19.0032 0.00638053
101 2 1.32854 17.6442 1.36533
102 2 1.32868 20.3616 4.08288
103 2 4.04667 17.639 4.08395
104 2 4.04538 20.3623 1.36487
105 2 5.40179 16.2848 0.00451572
106 2 5.4019 19.0026 2.7254
107 2 8.11177 16.2805 2.731
108 2 8.11563 19.006 0.00690771
109 2 6.75924 17.643 1.36592
110 2 6.75879 20.3649 4.08426
111 2 9.47178 17.6438 4.08453
112 2 9.47053 20.368 1.36948
113 2 10.8277 16.2893 0.00681783
114 2 10.8285 19.0079 2.72794
115 2 13.5425 16.2906 2.72663
116 2 13.5452 19.008 0.00777545
117 2 12.1857 17.6498 1.36618
118 2 12.1839 20.37 4.08797
119 2 14.9013 17.65 4.08564
120 2 14.9026 20.367 1.36811
121 2 16.2601 16.2899 0.00681262
122 2 16.2611 19.0077 2.72704
123 2 18.9769 16.288 2.72469
124 2 18.9788 19.0049 0.00693457
125 2 17.6191 17.6482 1.36676
126 2 17.6188 20.3671 4.08685
127 2 20.3354 17.6459 4.08355
128 2 20.3367 20.3638 1.36629
129 2 21.6963 21.7223 5.44234
130 2 21.7026 2.71923 8.16141
131 2 2.69429 0.00395357 8.15739
132 2 2.69017 2.71594 5.44387
133 2 1.33139 1.35796 6.80056
134 2 1.3433 4.07984 9.51578
135 2 4.05506 1.36844 9.51219
136 2 4.0495 4.07474 6.8023
137 2 5.4063 0.00391323 5.4437
138 2 5.41301 2.73247 8.16264
139 2 8.11754 0.0048164 8.15678
140 2 8.12566 2.74674 5.47217
141 2 6.76238 1.36859 6.80351
142 2 6.76999 4.10096 9.52033
143 2 9.47168 1.36658 9.5148
144 2 9.45163 4.13463 6.85932
145 2 10.8285 0.00935513 5.44821
146 2 10.8178 2.74444 8.1711
147 2 13.5387 0.0126815 8.16071
148 2 13.5389 2.72397 5.44928
149 2 12.1764 1.3771 6.81081
150 2 12.1281 4.13699 9.53602
151 2 14.8851 1.38003 9.52191
152 2 14.8855 4.08693 6.81166
153 2 16.2595 0.00399757 5.44626
154 2 16.2518 2.72657 8.16137
155 2 18.9783 0.00327583 8.16025
156 2 18.9765 2.71752 5.44557
157 2 17.6148 1.36432 6.80712
158 2 17.6174 4.07813 9.51778
159 2 20.3407 1.36139 9.51713
160 2 20.339 4.07435 6.80343
161 2 21.7012 5.43213 5.44717
162 2 21.7011 8.14251 8.15884
163 2 2.70668 5.43691 8.16371
164 2 2.71827 8.1499 5.47183
165 2 1.34212 6.78743 6.80627
166 2 1.33802 9.49621 9.51622
167 2 4.07439 6.79553 9.51986
168 2 4.10387 9.47846 6.85702
169 2 5.41065 5.43712 5.45996
170 2 5.50787 8.1566 8.26146
171 2 8.12773 5.53838 8.26254
172 2 8.11472 8.14386 5.45426
173 2 6.76703 6.79654 6.82741
176 2 9.46134 9.49256 6.82829
177 2 10.8159 5.44562 5.46774
178 2 10.7235 8.13534 8.26306
179 2 13.5199 5.44746 8.1719
180 2 13.5109 8.13761 5.47421
181 2 12.1261 6.81054 6.86049
182 2 12.1597 9.49321 9.52355
183 2 14.8977 6.79366 9.51861
184 2 14.8886 9.50014 6.80676
185 2 16.2515 5.43385 5.4493
186 2 16.2561 8.14731 8.15889
187 2 18.9775 5.43289 8.15927
188 2 18.9774 8.1444 5.44367
189 2 17.616 6.78997 6.80227
190 2 17.6186 9.50317 9.5132
191 2 20.3401 6.78776 9.51614
192 2 20.34 9.49876 6.80132
193 2 21.7035 10.8537 5.44535
194 2 21.7048 13.5655 8.15397
195 2 2.71192 10.8424 8.16753
196 2 2.69423 13.5619 5.44437
197 2 1.34639 12.2016 6.8069
198 2 1.34763 14.912 9.51486
199 2 4.10456 12.1532 9.53125
200 2 4.05592 14.9098 6.80622
201 2 5.41445 10.842 5.46438
202 2 5.41575 13.5454 8.16777
203 2 8.10091 10.751 8.26265
204 2 8.10552 13.5398 5.47217
205 2 6.77821 12.1529 6.85668
206 2 6.76286 14.9205 9.51572
207 2 9.46241 12.1849 9.52155
208 2 9.46937 14.9173 6.80528
209 2 10.8183 10.8508 5.4611
210 2 10.8193 13.5543 8.16527
211 2 13.5252 10.8507 8.16484
212 2 13.5391 13.5719 5.44575
213 2 12.1812 12.2119 6.80374
214 2 12.1779 14.919 9.5158
215 2 14.8896 12.2092 9.51429
216 2 14.8985 14.9313 6.80087
217 2 16.2513 10.8551 5.44573
218 2 16.2524 13.5697 8.15862
219 2 18.9784 10.8584 8.15474
220 2 18.9771 13.5705 5.44141
221 2 17.614 12.214 6.7995
222 2 17.6151 14.93 9.51117
223 2 20.3411 12.2131 9.51153
224 2 20.3398 14.9263 6.79991
225 2 21.6961 16.2848 5.43973
226 2 21.6985 19.0052 8.15416
227 2 2.69459 16.2776 8.15352
228 2 2.68891 19.0023 5.43999
229 2 1.3328 17.641 6.79873
230 2 1.33361 20.3672 9.51107
231 2 4.04885 17.6409 9.51052
232 2 4.04701 20.3649 6.79707
233 2 5.40336 16.2762 5.44415
234 2 5.4038 19.0026 8.15315
235 2 8.11627 16.2823 8.15877
236 2 8.1153 19.0044 5.44213
237 2 6.76023 17.64 6.79823
238 2 6.76076 20.3655 9.50923
239 2 9.47286 17.6454 9.51312
240 2 9.47184 20.3672 6.79916
241 2 10.825 16.2835 5.44687
242 2 10.8291 19.0087 8.15805
243 2 13.5385 16.2842 8.16206
244 2 13.5429 19.0099 5.44561
245 2 12.1852 17.6461 6.80172
246 2 12.1847 20.3719 9.51476
247 2 14.8986 17.6473 9.5147
248 2 14.8982 20.3725 6.80519
249 2 16.2592 16.2897 5.44291
250 2 16.2578 19.0097 8.15972
251 2 18.9777 16.2874 8.15444
252 2 18.978 19.0065 5.44246
253 2 17.6175 17.6499 6.80062
254 2 17.6151 20.3715 9.51738
255 2 20.3393 17.6454 9.51155
256 2 20.3361 20.3659 6.80063
257 2 21.7065 0.00732585 10.8714
258 2 21.7088 2.72122 13.5823
259 2 2.69821 0.00700299 13.5796
260 2 2.72194 2.74518 10.8758
261 2 1.34993 1.37407 12.2201
262 2 1.35134 4.08396 14.9285
263 2 4.06163 1.37508 14.9258
264 2 4.10773 4.13117 12.2034
265 2 5.40823 0.00447746 10.8672
266 2 5.42103 2.74195 13.5673
267 2 8.1185 0.00758281 13.5805
268 2 8.1202 2.73038 10.868
269 2 6.76651 1.36707 12.2199
270 2 6.785 4.13445 14.878
271 2 9.47353 1.37472 14.9325
272 2 9.46625 4.10506 12.2168
273 2 10.8288 0.00874897 10.8712
274 2 10.8245 2.74064 13.5767
275 2 13.5416 0.0120134 13.5825
276 2 13.5148 2.75363 10.8646
277 2 12.1812 1.3753 12.2259
278 2 12.1868 4.08265 14.9399
279 2 14.9028 1.36433 14.9426
280 2 14.8927 4.08568 12.2288
281 2 16.2527 0.0126913 10.8707
282 2 16.2565 2.72472 13.5845
283 2 18.9823 0.00313668 13.5833
284 2 18.9793 2.71979 10.8735
285 2 17.6177 1.36392 12.2306
286 2 17.6197 4.07746 14.944
287 2 20.3456 1.36164 14.9386
288 2 20.3425 4.07559 12.2299
289 2 21.7025 5.432 10.8716
290 2 21.7026 8.14397 13.5819
291 2 2.71715 5.44328 13.568
292 2 2.70151 8.14256 10.8682
293 2 1.33988 6.79042 12.2236
294 2 1.34417 9.49853 14.9333
295 2 4.10889 6.80714 14.8792
296 2 4.07426 9.49104 12.2155
297 2 5.5091 5.53545 10.8793
298 2 5.51018 8.13157 13.475
299 2 8.10772 5.5395 13.4765
512 2 20.3398 20.3644 17.6521
302 2 6.77154 9.49008 14.91
303 2 9.46838 6.79837 14.9104
305 2 10.7266 5.54155 10.86
307 2 13.5295 5.44484 13.5787
308 2 13.5347 8.14689 10.8719
309 2 12.1623 6.80019 12.2199
310 2 12.1315 9.48246 14.8822
311 2 14.8938 6.79402 14.9369
312 2 14.8974 9.50079 12.2246
313 2 16.2587 5.43707 10.8739
314 2 16.259 8.14862 13.5839
315 2 18.981 5.43302 13.5863
316 2 18.9795 8.14668 10.8708
317 2 17.6209 6.7916 12.2299
318 2 17.62 9.5038 14.9412
319 2 20.3435 6.78869 14.9419
320 2 20.341 9.50168 12.2272
321 2 21.7014 10.8555 10.8687
322 2 21.7024 13.5686 13.5765
323 2 2.70678 10.849 13.5733
324 2 2.7197 13.54 10.8587
325 2 1.34303 12.2076 12.2224
326 2 1.33267 14.9282 14.9361
327 2 4.0504 12.2096 14.9356
328 2 4.05307 14.9168 12.2226
329 2 5.50789 10.7512 10.856
330 2 5.41154 13.5529 13.5736
332 2 8.11592 13.5582 10.8694
333 2 6.76808 12.1846 12.2161
334 2 6.76215 14.9179 14.9324
335 2 9.45316 12.1554 14.8802
336 2 9.46898 14.9221 12.2229
338 2 10.8162 13.5475 13.5693
339 2 13.5206 10.8469 13.5699
340 2 13.5132 13.5429 10.8772
341 2 12.1282 12.1574 12.2057
342 2 12.1757 14.9148 14.928
343 2 14.8868 12.2069 14.9288
344 2 14.8851 14.9157 12.2195
345 2 16.2563 10.8581 10.8689
346 2 16.2527 13.5687 13.5794
347 2 18.9791 10.8596 13.5816
348 2 18.9788 13.5727 10.8651
349 2 17.6183 12.2159 12.223
350 2 17.6163 14.9291 14.9344
351 2 20.3416 12.2144 14.9377
352 2 20.3411 14.9286 12.2211
353 2 21.7044 16.2806 10.8619
354 2 21.6999 19.0058 13.5775
355 2 2.69324 16.282 13.5769
356 2 2.69188 19.0045 10.865
357 2 1.33422 17.6433 12.2211
358 2 1.33612 20.3675 14.9341
359 2 4.04886 17.6434 14.9365
360 2 4.05001 20.3666 12.2212
361 2 5.40607 16.2821 10.8688
362 2 5.40533 19.0066 13.5809
363 2 8.11736 16.2845 13.5819
364 2 8.11703 19.0068 10.8693
365 2 6.76111 17.6447 12.225
366 2 6.76207 20.3692 14.9366
367 2 9.47304 17.6473 14.9387
368 2 9.47354 20.3695 12.2252
369 2 10.8271 16.285 10.8713
370 2 10.8292 19.0102 13.5842
371 2 13.5383 16.282 13.5812
372 2 13.5421 19.0101 10.8716
373 2 12.1841 17.6479 12.2269
374 2 12.1861 20.373 14.9394
375 2 14.8982 17.6461 14.9364
376 2 14.8992 20.3728 12.228
377 2 16.2518 16.2827 10.871
378 2 16.2583 19.0083 13.5815
379 2 18.9782 16.2873 13.5769
380 2 18.9786 19.0082 10.8682
381 2 17.6153 17.6468 12.2225
382 2 17.6207 20.3663 14.9383
383 2 20.3377 17.6475 14.934
384 2 20.3416 20.3689 12.2232
385 2 21.7014 21.7239 16.295
386 2 21.7014 2.71431 19.012
387 2 2.69159 8.71663e-06 19.0118
388 2 2.69954 2.72113 16.29
389 2 1.33851 1.36053 17.6499
390 2 1.3362 4.07456 20.3678
391 2 4.05083 1.36043 20.3678
392 2 4.06164 4.08465 17.6372
393 2 5.40698 0.00932569 16.2908
394 2 5.40721 2.72192 19.005
395 2 8.1154 0.00995443 19.0071
396 2 8.11137 2.75061 16.2674
397 2 6.76799 1.37634 17.638
398 2 6.7628 4.07529 20.3702
399 2 9.47505 1.36179 20.371
400 2 9.47493 4.08365 17.6443
401 2 10.8277 0.0107251 16.2948
402 2 10.8281 2.72277 19.01
403 2 13.5455 0.00214913 19.0148
404 2 13.5449 2.72295 16.2992
405 2 12.1878 1.36344 17.6562
406 2 12.1881 4.07589 20.3727
407 2 14.9047 1.35934 20.3749
408 2 14.9043 4.07745 17.6584
409 2 16.2626 0.00191213 16.2979
410 2 16.2639 2.71687 19.0155
411 2 18.9822 21.7222 19.0132
412 2 18.9837 2.71746 16.2981
413 2 17.6239 1.3586 17.6568
414 2 17.6224 4.07461 20.3749
415 2 20.3406 1.35716 20.3719
416 2 20.3457 4.07564 17.6544
417 2 21.7084 5.43039 16.2922
418 2 21.7058 8.13931 19.0051
419 2 2.69691 5.43009 19.0037
420 2 2.7222 8.13429 16.2646
421 2 1.35044 6.79151 17.6378
422 2 1.33342 9.4986 20.3678
423 2 4.0493 6.78664 20.3681
424 2 4.05471 9.49804 17.6411
425 2 5.42134 5.44438 16.2707
426 2 5.40641 8.14347 19.0071
427 2 8.11917 5.43378 19.0101
428 2 8.12061 8.14423 16.2836
429 2 6.76741 6.79191 17.6467
430 2 6.761 9.50105 20.3679
431 2 9.47532 6.78909 20.3722
432 2 9.47219 9.49859 17.6472
433 2 10.8245 5.44375 16.2815
434 2 10.8295 8.14718 19.0111
435 2 13.5425 5.43683 19.0118
436 2 13.5164 8.15605 16.2702
437 2 12.1829 6.79317 17.6462
438 2 12.1864 9.50417 20.3721
439 2 14.902 6.79029 20.3745
440 2 14.8877 9.49935 17.6423
441 2 16.2573 5.43762 16.298
442 2 16.2536 8.14835 19.0094
443 2 18.9823 5.43077 19.0138
444 2 18.9803 8.14484 16.2985
445 2 17.6199 6.78986 17.6582
446 2 17.6162 9.50082 20.3727
447 2 20.3424 6.78852 20.3712
448 2 20.3417 9.50059 17.6549
449 2 21.7023 10.8533 16.2928
450 2 21.6943 13.5695 19.0119
451 2 2.69194 10.8519 19.0039
452 2 2.6905 13.5689 16.2931
453 2 1.33146 12.213 17.6522
454 2 1.32891 14.9284 20.3705
455 2 4.0463 12.2117 20.3647
456 2 4.04661 14.9287 17.6511
457 2 5.4136 10.848 16.2773
458 2 5.4059 13.5677 19.0041
459 2 8.1175 10.8571 19.0067
460 2 8.1257 13.5414 16.2653
461 2 6.76227 12.2078 17.6412
462 2 6.75943 14.9284 20.3658
463 2 9.47195 12.2163 20.3682
464 2 9.46803 14.9158 17.6368
465 2 10.8182 10.8462 16.2723
466 2 10.8286 13.5701 19.0047
467 2 13.5385 10.8605 19.0067
468 2 13.5388 13.5687 16.291
469 2 12.1764 12.2072 17.6391
470 2 12.1841 14.9311 20.3681
471 2 14.8984 12.2157 20.3709
472 2 14.8988 14.9294 17.6506
473 2 16.253 10.8597 16.293
474 2 16.2578 13.5731 19.0121
475 2 18.977 10.8563 19.0124
476 2 18.9771 13.5714 16.2938
477 2 17.6165 12.2145 17.6533
478 2 17.6179 14.9301 20.3715
479 2 20.3351 12.2128 20.3729
480 2 20.3365 14.9293 17.6525
481 2 21.696 16.2878 16.2931
482 2 21.6971 19.0045 19.0113
483 2 2.68809 16.2867 19.0113
484 2 2.69199 19.0062 16.2937
485 2 1.33201 17.6468 17.6514
486 2 1.33227 20.3638 20.3701
487 2 4.04586 17.6466 20.3699
488 2 4.05057 20.3687 17.6505
489 2 5.40742 16.2824 16.2925
490 2 5.40469 19.0065 19.0115
491 2 8.11933 16.2819 19.0044
492 2 8.11774 19.0091 16.2963
493 2 6.76126 17.6455 17.6517
494 2 6.76202 20.3687 20.3691
495 2 9.47136 17.6464 20.3679
496 2 9.47383 20.3712 17.6537
497 2 10.8296 16.2827 16.2912
498 2 10.8297 19.0087 19.0119
499 2 13.5443 16.2899 19.0117
500 2 13.5429 19.0087 16.2957
501 2 12.185 17.6466 17.652
502 2 12.1872 20.3671 20.3732
503 2 14.9026 17.6493 20.3711
504 2 14.9034 20.3661 17.6554
505 2 16.259 16.2886 16.2937
506 2 16.2625 19.0061 19.0123
507 2 18.977 16.2874 19.0112
508 2 18.98 19.006 16.2938
509 2 17.6195 17.6474 17.6517
510 2 17.6211 20.3648 20.372
511 2 20.3368 17.6457 20.3707
ITEM: TIMESTEP
77
ITEM: NUMBER OF ATOMS
504
ITEM: BOX BOUNDS pp pp pp
0.0000000000000000e+00 2.1724000000000000e+01
0.0000000000000000e+00 2.1724000000000000e+01
0.0000000000000000e+00 2.1724000000000000e+01
ITEM: ATOMS id type x y z
1 2 21.6964 21.7238 0.00675315
2 2 21.6964 2.71653 2.72494
3 2 2.68905 21.7238 2.72481
4 2 2.69014 2.71746 0.00619293
5 2 1.33108 1.35853 1.36519
6 2 1.33184 4.0742 4.08442
7 2 4.04669 1.3593 4.0843
8 2 4.0471 4.07451 1.36903
9 2 5.40434 21.726 0.00664782
10 2 5.40658 2.72011 2.73115
11 2 8.11941 0.00820407 2.73314
12 2 8.11696 2.71777 0.0075181
13 2 6.76063 1.36067 1.36898
14 2 6.76169 4.08067 4.09534
15 2 9.46807 1.37545 4.10034
16 2 9.47289 4.07544 1.36919
17 2 10.8295 0.00229053 0.00824521
18 2 10.829 2.72258 2.7341
19 2 13.5439 0.00232846 2.72724
20 2 13.5438 2.71792 0.00887525
21 2 12.1848 1.36212 1.37071
22 2 12.1762 4.08537 4.10066
23 2 14.8985 1.3631 4.08805
24 2 14.8995 4.07687 1.37083
25 2 16.2615 21.7241 0.00818861
26 2 16.2593 2.71755 2.72727
27 2 18.9782 21.7239 2.72496
28 2 18.979 2.7164 0.00755028
29 2 17.6191 1.35938 1.36744
30 2 17.6158 4.07676 4.08709
31 2 20.3366 1.35866 4.08372
32 2 20.3376 4.07497 1.36623
33 2 21.6985 5.43176 0.00674091
34 2 21.7044 8.1469 2.73303
35 2 2.6926 5.43397 2.7311
36 2 2.69006 8.1443 0.00727275
37 2 1.33311 6.78809 1.36902
38 2 1.34757 9.49559 4.10016
39 2 4.05304 6.78916 4.09526
40 2 4.04763 9.5003 1.36888
41 2 5.40343 5.43088 0.00697154
42 2 5.40524 8.14403 2.7295
43 2 8.11652 5.43302 2.7297
44 2 8.11684 8.14456 0.00743221
45 2 6.76008 6.78764 1.36758
46 2 6.76364 9.49748 4.09074
47 2 9.46987 6.79152 4.09097
48 2 9.47358 9.5014 1.36762
49 2 10.8304 5.43121 0.00806808
50 2 10.8283 8.14501 2.72975
51 2 13.539 5.43257 2.73416
52 2 13.5436 8.14478 0.007641
53 2 12.186 6.78877 1.36931
54 2 12.1805 9.49987 4.09549
55 2 14.8859 6.79348 4.10057
56 2 14.9005 9.50103 1.36926
57 2 16.2594 5.4321 0.00835296
58 2 16.2531 8.14209 2.73328
59 2 18.9782 5.4319 2.72714
60 2 18.9788 8.14452 0.00748177
61 2 17.6168 6.78962 1.36971
62 2 17.6171 9.50089 4.08581
63 2 20.3404 6.78821 4.08577
64 2 20.3408 9.49952 1.36948
65 2 21.6983 10.8569 0.00791845
66 2 21.6982 13.5714 2.72677
67 2 2.69455 10.8564 2.73362
68 2 2.68986 13.5711 0.00826031
69 2 1.33409 12.2122 1.37028
70 2 1.33496 14.926 4.08751
71 2 4.05729 12.2036 4.10011
72 2 4.0488 14.9269 1.37016
73 2 5.40324 10.8579 0.00761922
74 2 5.40445 13.5664 2.73359
75 2 8.11697 10.856 2.72952
76 2 8.11669 13.5713 0.00724352
77 2 6.76073 12.2136 1.36882
78 2 6.76535 14.9135 4.09999
79 2 9.47178 12.2083 4.09525
80 2 9.47292 14.9284 1.36888
81 2 10.8302 10.8582 0.00703815
82 2 10.8269 13.5689 2.73114
83 2 13.5409 10.8551 2.73128
84 2 13.5435 13.5716 0.00628733
85 2 12.1865 12.2146 1.36913
86 2 12.1867 14.9297 4.0844
87 2 14.9016 12.2149 4.08452
88 2 14.9025 14.9306 1.36529
89 2 16.2592 10.8573 0.00682219
90 2 16.2611 13.5725 2.72495
91 2 18.9793 10.8571 2.72696
92 2 18.9787 13.5726 0.00730447
93 2 17.62 12.2142 1.36615
94 2 17.6208 14.9305 4.08363
95 2 20.3417 12.2123 4.08674
96 2 20.3385 14.9298 1.3671
97 2 21.6962 16.2889 0.00776762
98 2 21.6962 19.0057 2.72473
99 2 2.68955 16.2867 2.72671
100 2 2.68873 19.0063 0.00718089
101 2 1.33145 17.6465 1.36698
102 2 1.33093 20.3641 4.08348
103 2 4.04878 17.6432 4.08651
104 2 4.0473 20.365 1.36587
105 2 5.40415 16.2868 0.00781053
106 2 5.40416 19.0057 2.72682
107 2 8.11406 16.2808 2.73295
108 2 8.11681 19.0065 0.00732893
109 2 6.76168 17.6444 1.36918
110 2 6.76048 20.368 4.08549
111 2 9.47289 17.6449 4.08553
112 2 9.47182 20.3686 1.36941
113 2 10.8293 16.2871 0.0066997
114 2 10.8293 19.0074 2.72707
115 2 13.5444 16.2893 2.72499
116 2 13.5449 19.0068 0.00752169
117 2 12.1862 17.6481 1.36609
118 2 12.1846 20.3698 4.08692
119 2 14.9024 17.6489 4.08371
120 2 14.902 20.3666 1.36738
121 2 16.2613 16.2893 0.00682035
122 2 16.2613 19.0073 2.72498
123 2 18.9792 16.2891 2.72479
124 2 18.9788 19.0065 0.007373
125 2 17.62 17.6479 1.36618
126 2 17.6189 20.3665 4.08431
127 2 20.3384 17.6467 4.08408
128 2 20.3375 20.3652 1.36613
129 2 21.6963 21.7239 5.44161
130 2 21.7027 2.72022 8.15915
131 2 2.69268 0.00614709 8.159
132 2 2.69076 2.7182 5.44326
133 2 1.33184 1.35937 6.79926
134 2 1.34291 4.0807 9.51428
135 2 4.0532 1.37038 9.51413
136 2 4.04958 4.07709 6.80207
137 2 5.40654 0.00613821 5.44509
138 2 5.41177 2.73497 8.1642
139 2 8.11658 0.00486917 8.15792
140 2 8.12488 2.74786 5.47278
141 2 6.76169 1.37041 6.80559
142 2 6.76936 4.10288 9.52178
143 2 9.46999 1.36621 9.51639
144 2 9.45209 4.13417 6.85904
145 2 10.829 0.00919315 5.44748
146 2 10.8165 2.74252 8.17009
147 2 13.539 0.00935746 8.1575
148 2 13.5384 2.72325 5.44817
149 2 12.1762 1.37577 6.81027
150 2 12.1274 4.13439 9.53444
151 2 14.886 1.37575 9.51844
152 2 14.8859 4.08545 6.8104
153 2 16.2592 0.002305 5.44254
154 2 16.2525 2.72271 8.15754
155 2 18.9782 0.00221496 8.15694
156 2 18.9777 2.71771 5.44275
157 2 17.6157 1.36209 6.80179
158 2 17.6173 4.07561 9.51374
159 2 20.3406 1.36083 9.51326
160 2 20.3405 4.0747 6.79976
161 2 21.7026 5.43407 5.44518
162 2 21.701 8.14412 8.15784
163 2 2.70737 5.43923 8.16417
164 2 2.72002 8.15233 5.47255
165 2 1.34276 6.78922 6.80564
166 2 1.3383 9.4975 9.51624
167 2 4.07522 6.79682 9.52173
168 2 4.10625 9.47957 6.85875
169 2 5.41165 5.43922 5.45984
170 2 5.50973 8.15636 8.26222
171 2 8.12879 5.5376 8.26239
172 2 8.11674 8.14456 5.45443
173 2 6.76921 6.79686 6.82767
176 2 9.46433 9.49221 6.82771
177 2 10.8164 5.4452 5.46729
178 2 10.7239 8.13292 8.26246
179 2 13.5192 5.44535 8.17016
180 2 13.5135 8.13676 5.4729
181 2 12.1273 6.80952 6.85916
182 2 12.1585 9.4924 9.52195
183 2 14.8955 6.79178 9.51665
184 2 14.8908 9.49991 6.80586
185 2 16.2524 5.43254 5.44757
186 2 16.2566 8.1451 8.15808
187 2 18.9785 5.43113 8.15607
188 2 18.9787 8.14453 5.44269
189 2 17.6172 6.7887 6.80051
190 2 17.6186 9.50152 9.51278
191 2 20.3391 6.78778 9.51276
192 2 20.3404 9.50046 6.80028
193 2 21.7051 10.8565 5.44714
194 2 21.7052 13.5665 8.15702
195 2 2.7144 10.8439 8.16964
196 2 2.69507 13.5658 5.44756
197 2 1.34765 12.2037 6.80985
198 2 1.34761 14.9135 9.51788
199 2 4.10629 12.1548 9.53392
200 2 4.0573 14.9133 6.80974
201 2 5.41711 10.8439 5.46687
202 2 5.41715 13.5467 8.16962
203 2 8.10483 10.7517 8.26227
204 2 8.10858 13.5412 5.47255
205 2 6.78142 12.1549 6.85871
206 2 6.76366 14.923 9.51606
207 2 9.46434 12.1863 9.52172
208 2 9.47176 14.9186 6.80552
209 2 10.8218 10.8499 5.45991
210 2 10.8218 13.5543 8.16422
211 2 13.5262 10.85 8.16434
212 2 13.5427 13.5709 5.44336
213 2 12.1839 12.212 6.80218
214 2 12.1804 14.9188 9.51425
215 2 14.8908 12.2086 9.51436
216 2 14.9016 14.9298 6.79936
217 2 16.2549 10.855 5.44525
218 2 16.2549 13.569 8.15913
219 2 18.9791 10.8581 8.15587
220 2 18.9798 13.5714 5.44249
221 2 17.617 12.2145 6.79966
222 2 17.6171 14.9285 9.51315
223 2 20.3404 12.2137 9.51336
224 2 20.3417 14.9271 6.80142
225 2 21.6982 16.2868 5.44211
226 2 21.6984 19.0058 8.15669
227 2 2.69464 16.2799 8.15696
228 2 2.68992 19.0051 5.44238
229 2 1.33408 17.6433 6.80131
230 2 1.33312 20.3681 9.513
231 2 4.04764 17.6447 9.51312
232 2 4.04696 20.368 6.79939
233 2 5.40449 16.2799 5.44706
234 2 5.40333 19.006 8.15572
235 2 8.11703 16.2844 8.15776
236 2 8.11673 19.0065 5.44257
237 2 6.7607 17.6448 6.8
238 2 6.76007 20.3667 9.51243
239 2 9.47353 17.6465 9.51249
240 2 9.47271 20.3683 6.80022
241 2 10.8269 16.283 5.44517
242 2 10.8303 19.0072 8.15599
243 2 13.5409 16.2831 8.15919
244 2 13.5435 19.008 5.44275
245 2 12.1864 17.6451 6.79963
246 2 12.186 20.3685 9.51354
247 2 14.9005 17.6452 9.51323
248 2 14.8993 20.3699 6.80173
249 2 16.2611 16.2892 5.44168
250 2 16.2592 19.0075 8.15696
251 2 18.9794 16.287 8.15675
252 2 18.9787 19.0065 5.44134
253 2 17.62 17.648 6.79997
254 2 17.6168 20.3688 9.51451
255 2 20.3408 17.6445 9.51427
256 2 20.3374 20.3652 6.79993
257 2 21.7047 0.00822414 10.8719
258 2 21.7056 2.72246 13.5816
259 2 2.69503 0.00896556 13.5814
260 2 2.72036 2.74777 10.8774
261 2 1.34794 1.37538 12.2206
262 2 1.34816 4.08518 14.9288
263 2 4.0578 1.3755 14.9286
264 2 4.10661 4.13403 12.2046
265 2 5.40553 0.00477544 10.869
266 2 5.41762 2.74228 13.5689
267 2 8.11741 0.00499103 13.5809
268 2 8.11705 2.7298 10.8695
269 2 6.76399 1.3661 12.2224
270 2 6.78192 4.13416 14.8799
271 2 9.47226 1.37076 14.9332
272 2 9.46468 4.10312 12.2171
273 2 10.8285 0.00513171 10.8699
274 2 10.8223 2.73543 13.5748
275 2 13.5413 0.00675317 13.5799
276 2 13.5137 2.74828 10.8617
277 2 12.1808 1.37088 12.2248
278 2 12.1844 4.07766 14.937
279 2 14.9021 1.35994 14.9398
280 2 14.8911 4.08119 12.2249
281 2 16.2533 0.0085812 10.867
282 2 16.2554 2.72067 13.58
283 2 18.9798 0.00230763 13.582
284 2 18.9791 2.71793 10.8696
285 2 17.6174 1.36107 12.2259
286 2 17.6175 4.07502 14.9395
287 2 20.3422 1.36205 14.9373
288 2 20.3407 4.07549 12.2255
289 2 21.7012 5.43303 10.8691
290 2 21.7012 8.14488 13.5809
291 2 2.71479 5.44497 13.5689
292 2 2.70195 8.14446 10.8693
293 2 1.33851 6.79143 12.2225
294 2 1.34296 9.49967 14.9331
295 2 4.10664 6.80927 14.8798
296 2 4.07525 9.49206 12.2169
297 2 5.50994 5.53751 10.8813
298 2 5.50993 8.13269 13.4764
299 2 8.10522 5.53771 13.4766
512 2 20.3388 20.3664 17.6546
302 2 6.76942 9.49218 14.911
303 2 9.46472 6.79718 14.9112
305 2 10.7241 5.53785 10.8578
307 2 13.5266 5.43982 13.5749
308 2 13.5319 8.14493 10.8696
309 2 12.1587 6.7973 12.2173
310 2 12.1275 9.48012 14.8801
311 2 14.8912 6.78979 14.9335
312 2 14.8955 9.49796 12.2227
313 2 16.2568 5.43337 10.87
314 2 16.2568 8.14457 13.5811
315 2 18.9795 5.43123 13.5831
316 2 18.9789 8.14469 10.8695
317 2 17.6188 6.78802 12.2265
318 2 17.6174 9.5008 14.9388
319 2 20.3408 6.78869 14.9387
320 2 20.3392 9.50142 12.2262
321 2 21.701 10.856 10.8696
322 2 21.7026 13.5688 13.5794
323 2 2.70738 10.8497 13.5744
324 2 2.7201 13.5411 10.8611
325 2 1.34282 12.2082 12.2243
326 2 1.33191 14.9295 14.9392
327 2 4.04966 12.2118 14.9364
328 2 4.05311 14.9185 12.2242
329 2 5.50978 10.7516 10.8573
330 2 5.41171 13.5541 13.5743
332 2 8.11678 13.5596 10.8693
333 2 6.76927 12.1862 12.2168
334 2 6.76176 14.9186 14.9329
335 2 9.45217 12.1552 14.8798
336 2 9.46989 14.9232 12.2223
338 2 10.8164 13.5472 13.5689
339 2 13.5192 10.8445 13.5691
340 2 13.5135 13.5416 10.8775
341 2 12.1273 12.1553 12.2047
342 2 12.1762 14.9139 14.9287
343 2 14.8859 12.2043 14.9289
344 2 14.8859 14.914 12.2207
345 2 16.2566 10.8563 10.8692
346 2 16.2524 13.567 13.5815
347 2 18.9785 10.8582 13.5829
348 2 18.9788 13.5714 10.8693
349 2 17.6172 12.2139 12.2254
350 2 17.6158 14.9274 14.9372
351 2 20.3406 12.2145 14.9391
352 2 20.3405 14.9284 12.2255
353 2 21.7045 16.2808 10.8666
354 2 21.6986 19.0072 13.5818
355 2 2.69269 16.2827 13.5794
356 2 2.69018 19.0065 10.8692
357 2 1.33315 17.6449 12.2254
358 2 1.33446 20.3696 14.9371
359 2 4.04716 17.6448 14.9389
360 2 4.04785 20.3681 12.2251
361 2 5.40534 16.2843 10.8695
362 2 5.40353 19.007 13.5827
363 2 8.11658 16.2845 13.5808
364 2 8.11691 19.0067 10.8693
365 2 6.7601 17.6464 12.2259
366 2 6.76108 20.3683 14.9384
367 2 9.4729 17.6451 14.9384
368 2 9.47374 20.367 12.2261
369 2 10.8283 16.2846 10.8691
370 2 10.8305 19.0065 13.5829
371 2 13.539 16.2805 13.5816
372 2 13.5436 19.0069 10.8695
373 2 12.186 17.6452 12.2254
374 2 12.1868 20.3686 14.9393
375 2 14.8995 17.6438 14.9373
376 2 14.9007 20.3686 12.2258
377 2 16.2531 16.2811 10.872
378 2 16.2594 19.0062 13.582
379 2 18.9782 16.2871 13.5818
380 2 18.9789 19.0067 10.8694
381 2 17.6168 17.6448 12.2244
382 2 17.6203 20.3655 14.939
383 2 20.3376 17.648 14.9387
384 2 20.341 20.3687 12.2244
385 2 21.6987 21.7261 16.2964
386 2 21.6987 2.71731 19.0118
387 2 2.68995 0.00196112 19.0117
388 2 2.69563 2.72291 16.2909
389 2 1.33548 1.36283 17.651
390 2 1.33444 4.07652 20.3683
391 2 4.04914 1.36178 20.3682
392 2 4.0578 4.08512 17.6384
393 2 5.40496 0.00901661 16.2914
394 2 5.40492 2.72236 19.0049
395 2 8.11445 0.00832749 19.0057
396 2 8.10913 2.74803 16.2662
397 2 6.76585 1.37545 17.6385
398 2 6.76107 4.07534 20.3698
399 2 9.47325 1.3609 20.3699
400 2 9.47229 4.081 17.6436
401 2 10.8274 0.00664854 16.2938
402 2 10.8274 2.72055 19.0079
403 2 13.5448 0.000347767 19.0141
404 2 13.5432 2.71884 16.2958
405 2 12.1872 1.35987 17.6546
406 2 12.1869 4.07498 20.37
407 2 14.9028 1.359 20.3738
408 2 14.9021 4.07477 17.6548
409 2 16.2616 0.000354067 16.2973
410 2 16.2616 2.71696 19.0142
411 2 18.9796 21.724 19.014
412 2 18.9803 2.71784 16.2964
413 2 17.6213 1.35897 17.6554
414 2 17.6204 4.0752 20.373
415 2 20.3388 1.35927 20.3717
416 2 20.3422 4.07673 17.6522
417 2 21.7056 5.43235 16.2915
418 2 21.7046 8.14186 19.0057
419 2 2.69495 5.43221 19.0049
420 2 2.72031 8.13644 16.266
421 2 1.34796 6.79322 17.6385
422 2 1.33314 9.50068 20.3697
423 2 4.04784 6.78842 20.3697
424 2 4.05325 9.49961 17.6433
425 2 5.41759 5.44501 16.2717
426 2 5.40544 8.14478 19.0091
427 2 8.11737 5.43312 19.0093
428 2 8.11703 8.1447 16.2844
429 2 6.76402 6.79149 17.6479
430 2 6.76012 9.50129 20.3711
431 2 9.47379 6.78788 20.3713
432 2 9.47009 9.4978 17.648
433 2 10.8223 5.43971 16.2792
434 2 10.8285 8.14447 19.0094
435 2 13.5413 5.43455 19.008
436 2 13.5138 8.15294 16.2664
437 2 12.1809 6.78972 17.6437
438 2 12.1861 9.50079 20.3699
439 2 14.9008 6.78857 20.3701
440 2 14.8862 9.49616 17.6388
441 2 16.2554 5.43455 16.2939
442 2 16.2533 8.14735 19.0059
443 2 18.9797 5.432 19.012
444 2 18.979 8.14468 16.2963
445 2 17.6175 6.78854 17.6535
446 2 17.6169 9.49976 20.3696
447 2 20.341 6.78952 20.3695
448 2 20.3406 9.50089 17.6532
449 2 21.7027 10.8548 16.2935
450 2 21.6963 13.5722 19.0136
451 2 2.6926 10.8547 19.0074
452 2 2.69077 13.5706 16.2952
453 2 1.3319 12.2146 17.6542
454 2 1.33098 14.9302 20.3733
455 2 4.047 12.2142 20.3694
456 2 4.04676 14.9295 17.6541
457 2 5.41175 10.8497 16.2788
458 2 5.40651 13.5687 19.0074
459 2 8.11654 10.8561 19.0091
460 2 8.12491 13.5414 16.266
461 2 6.76177 12.2083 17.6432
462 2 6.76053 14.9283 20.3695
463 2 9.47279 12.2138 20.3697
464 2 9.46814 14.9139 17.6384
465 2 10.8165 10.8444 16.2718
466 2 10.829 13.5669 19.0049
467 2 13.539 10.857 19.0051
468 2 13.5384 13.5665 16.291
469 2 12.1763 12.2042 17.6385
470 2 12.1847 14.9274 20.3683
471 2 14.8994 12.2127 20.3684
472 2 14.8985 14.9265 17.6511
473 2 16.2525 10.857 16.2916
474 2 16.2592 13.5719 19.0118
475 2 18.9782 10.8572 19.0118
476 2 18.9777 13.5715 16.2961
477 2 17.6158 12.2127 17.6521
478 2 17.619 14.93 20.3716
479 2 20.3375 12.2141 20.3727
480 2 20.3367 14.9304 17.655
481 2 21.6964 16.289 16.2969
482 2 21.6964 19.007 19.0138
483 2 2.68906 16.2889 19.0136
484 2 2.6902 19.0076 16.296
485 2 1.33113 17.6487 17.6549
486 2 1.33167 20.3662 20.3714
487 2 4.04733 17.6477 20.3724
488 2 4.04916 20.3696 17.6518
489 2 5.40663 16.2828 16.2934
490 2 5.40436 19.0071 19.0116
491 2 8.11941 16.2809 19.0055
492 2 8.117 19.0067 16.2961
493 2 6.76067 17.6449 17.6529
494 2 6.76189 20.3685 20.3692