ITEM: TIMESTEP
0
ITEM: NUMBER OF ATOMS
7
ITEM: BOX BOUNDS pp pp pp
0.0000000000000000e+00 2.1724000000000000e+01
0.0000000000000000e+00 2.1724000000000000e+01
0.0000000000000000e+00 2.1724000000000000e+01
ITEM: ATOMS id type x y z
174 1 7.02074 9.2679 9.77545
175 1 9.24054 7.05367 9.77645
301 1 7.02291 7.05252 11.9908
304 1 8.94942 8.97857 11.6999
306 1 10.6663 8.25245 13.4164
331 1 8.21932 10.6922 13.4151
337 1 10.6644 10.6939 10.9715
ITEM: TIMESTEP
77
ITEM: NUMBER OF ATOMS
7
ITEM: BOX BOUNDS pp pp pp
0.0000000000000000e+00 2.1724000000000000e+01
0.0000000000000000e+00 2.1724000000000000e+01
0.0000000000000000e+00 2.1724000000000000e+01
ITEM: ATOMS id type x y z
174 1 7.03124 9.2759 9.78367
175 1 9.24813 7.05911 9.78389
301 1 7.03145 7.05901 12.0006
304 1 8.95562 8.98354 11.7081
306 1 10.6503 8.19921 13.4029
331 1 8.17112 10.6781 13.4027
337 1 10.6501 10.6783 10.9236
ITEM: TIMESTEP
132
ITEM: NUMBER OF ATOMS
7
ITEM: BOX BOUNDS pp pp pp
0.0000000000000000e+00 2.1724000000000000e+01
0.0000000000000000e+00 2.1724000000000000e+01
0.0000000000000000e+00 2.1724000000000000e+01
ITEM: ATOMS id type x y z
174 1 7.03527 9.2671 9.78778
175 1 9.23928 7.06308 9.78782
301 1 7.0353 7.06306 11.9918
304 1 8.97163 8.99946 11.7242
306 1 10.6552 8.191 13.4078
331 1 8.16315 10.683 13.4077
337 1 10.6552 10.6831 10.9157
