ITEM: TIMESTEP
0
ITEM: NUMBER OF ATOMS
504
ITEM: BOX BOUNDS pp pp pp
0.0000000000000000e+00 2.1724000000000000e+01
0.0000000000000000e+00 2.1724000000000000e+01
0.0000000000000000e+00 2.1724000000000000e+01
ITEM: ATOMS id type x y z
1 2 21.6973 21.721 0.00688225
2 2 21.6969 2.71493 2.72619
3 2 2.68745 21.7205 2.72477
4 2 2.69088 2.71495 0.00630037
5 2 1.33124 1.35658 1.36548
6 2 1.33187 4.07362 4.0858
7 2 4.0455 1.35692 4.08394
8 2 4.0483 4.07206 1.36949
9 2 5.40358 21.724 0.00751835
10 2 5.40732 2.71783 2.73233
11 2 8.11877 0.00678071 2.73421
12 2 8.11782 2.71709 0.0091092
13 2 6.76084 1.35864 1.36924
14 2 6.76167 4.07952 4.09599
15 2 9.46794 1.37418 4.10031
16 2 9.47402 4.07461 1.37142
17 2 10.8297 0.0021368 0.00990572
18 2 10.8296 2.72181 2.73604
19 2 13.5441 0.00241007 2.72871
20 2 13.5457 2.71794 0.0107972
21 2 12.1852 1.36252 1.37221
22 2 12.1758 4.08487 4.10209
23 2 14.8989 1.36373 4.08939
24 2 14.9 4.07789 1.37327
25 2 16.263 21.7239 0.00874342
26 2 16.2605 2.71804 2.72856
27 2 18.9788 21.7229 2.72683
28 2 18.9815 2.71514 0.00829986
29 2 17.6208 1.35907 1.36846
30 2 17.6157 4.07805 4.08923
31 2 20.3365 1.35835 4.08599
32 2 20.3386 4.07428 1.36745
33 2 21.7 5.42945 0.00718387
34 2 21.7026 8.14432 2.73181
35 2 2.69281 5.43167 2.73109
36 2 2.69029 8.14175 0.00552514
37 2 1.33372 6.78625 1.36899
38 2 1.34647 9.49239 4.09852
39 2 4.05248 6.78736 4.09537
40 2 4.0482 9.49761 1.36666
41 2 5.40397 5.42992 0.00741903
42 2 5.40477 8.14158 2.72905
43 2 8.11653 5.43192 2.73081
44 2 8.11626 8.14489 0.00694921
45 2 6.76113 6.78632 1.36769
46 2 6.76207 9.49594 4.08983
47 2 9.4689 6.79126 4.09125
48 2 9.47293 9.5019 1.36743
49 2 10.8308 5.43189 0.0104455
50 2 10.8266 8.1452 2.73044
51 2 13.5383 5.43272 2.73627
52 2 13.5427 8.1464 0.0102018
53 2 12.1862 6.78937 1.37164
54 2 12.1772 9.50034 4.09737
55 2 14.884 6.79407 4.10295
56 2 14.8988 9.50238 1.37236
57 2 16.2604 5.43145 0.0103244
58 2 16.2509 8.1421 2.73527
59 2 18.9779 5.4314 2.7278
60 2 18.9779 8.14298 0.00836771
61 2 17.6158 6.78987 1.37184
62 2 17.6146 9.50084 4.08753
63 2 20.3395 6.78711 4.08726
64 2 20.3392 9.49817 1.36886
65 2 21.6965 10.8534 0.00552137
66 2 21.6956 13.5679 2.72487
67 2 2.69262 10.8521 2.73029
68 2 2.68784 13.5676 0.00340759
69 2 1.33208 12.209 1.3675
70 2 1.333 14.9221 4.0855
71 2 4.05544 12.2001 4.09579
72 2 4.04623 14.9239 1.3653
73 2 5.40228 10.8559 0.00409466
74 2 5.40224 13.5642 2.72943
75 2 8.11471 10.8546 2.72912
76 2 8.1139 13.5719 0.00565944
77 2 6.75949 12.2112 1.36619
78 2 6.76397 14.9106 4.09673
79 2 9.46892 12.208 4.09475
80 2 9.47098 14.929 1.36714
81 2 10.8283 10.8612 0.00760532
82 2 10.8238 13.5699 2.73128
83 2 13.5374 10.8557 2.73351
84 2 13.5414 13.5749 0.00778613
85 2 12.1854 12.2164 1.37034
86 2 12.1842 14.9304 4.08549
87 2 14.8981 12.2162 4.08619
88 2 14.9011 14.9329 1.36669
89 2 16.2566 10.8583 0.00912664
90 2 16.2584 13.5735 2.726
91 2 18.977 10.8557 2.72685
92 2 18.9756 13.5711 0.00736887
93 2 17.6175 12.2145 1.36759
94 2 17.6184 14.9314 4.08396
95 2 20.3398 12.2107 4.08609
96 2 20.3358 14.9281 1.36662
97 2 21.6945 16.286 0.00613419
98 2 21.6941 19.0033 2.72404
99 2 2.68717 16.283 2.72309
100 2 2.68705 19.0032 0.00638053
101 2 1.32854 17.6442 1.36533
102 2 1.32868 20.3616 4.08288
103 2 4.04667 17.639 4.08395
104 2 4.04538 20.3623 1.36487
105 2 5.40179 16.2848 0.00451572
106 2 5.4019 19.0026 2.7254
107 2 8.11177 16.2805 2.731
108 2 8.11563 19.006 0.00690771
109 2 6.75924 17.643 1.36592
110 2 6.75879 20.3649 4.08426
111 2 9.47178 17.6438 4.08453
112 2 9.47053 20.368 1.36948
113 2 10.8277 16.2893 0.00681783
114 2 10.8285 19.0079 2.72794
115 2 13.5425 16.2906 2.72663
116 2 13.5452 19.008 0.00777545
117 2 12.1857 17.6498 1.36618
118 2 12.1839 20.37 4.08797
119 2 14.9013 17.65 4.08564
120 2 14.9026 20.367 1.36811
121 2 16.2601 16.2899 0.00681262
122 2 16.2611 19.0077 2.72704
123 2 18.9769 16.288 2.72469
124 2 18.9788 19.0049 0.00693457
125 2 17.6191 17.6482 1.36676
126 2 17.6188 20.3671 4.08685
127 2 20.3354 17.6459 4.08355
128 2 20.3367 20.3638 1.36629
129 2 21.6963 21.7223 5.44234
130 2 21.7026 2.71923 8.16141
131 2 2.69429 0.00395357 8.15739
132 2 2.69017 2.71594 5.44387
133 2 1.33139 1.35796 6.80056
134 2 1.3433 4.07984 9.51578
135 2 4.05506 1.36844 9.51219
136 2 4.0495 4.07474 6.8023
137 2 5.4063 0.00391323 5.4437
138 2 5.41301 2.73247 8.16264
139 2 8.11754 0.0048164 8.15678
140 2 8.12566 2.74674 5.47217
141 2 6.76238 1.36859 6.80351
142 2 6.76999 4.10096 9.52033
143 2 9.47168 1.36658 9.5148
144 2 9.45163 4.13463 6.85932
145 2 10.8285 0.00935513 5.44821
146 2 10.8178 2.74444 8.1711
147 2 13.5387 0.0126815 8.16071
148 2 13.5389 2.72397 5.44928
149 2 12.1764 1.3771 6.81081
150 2 12.1281 4.13699 9.53602
151 2 14.8851 1.38003 9.52191
152 2 14.8855 4.08693 6.81166
153 2 16.2595 0.00399757 5.44626
154 2 16.2518 2.72657 8.16137
155 2 18.9783 0.00327583 8.16025
156 2 18.9765 2.71752 5.44557
157 2 17.6148 1.36432 6.80712
158 2 17.6174 4.07813 9.51778
159 2 20.3407 1.36139 9.51713
160 2 20.339 4.07435 6.80343
161 2 21.7012 5.43213 5.44717
162 2 21.7011 8.14251 8.15884
163 2 2.70668 5.43691 8.16371
164 2 2.71827 8.1499 5.47183
165 2 1.34212 6.78743 6.80627
166 2 1.33802 9.49621 9.51622
167 2 4.07439 6.79553 9.51986
168 2 4.10387 9.47846 6.85702
169 2 5.41065 5.43712 5.45996
170 2 5.50787 8.1566 8.26146
171 2 8.12773 5.53838 8.26254
172 2 8.11472 8.14386 5.45426
173 2 6.76703 6.79654 6.82741
176 2 9.46134 9.49256 6.82829
177 2 10.8159 5.44562 5.46774
178 2 10.7235 8.13534 8.26306
179 2 13.5199 5.44746 8.1719
180 2 13.5109 8.13761 5.47421
181 2 12.1261 6.81054 6.86049
182 2 12.1597 9.49321 9.52355
183 2 14.8977 6.79366 9.51861
184 2 14.8886 9.50014 6.80676
185 2 16.2515 5.43385 5.4493
186 2 16.2561 8.14731 8.15889
187 2 18.9775 5.43289 8.15927
188 2 18.9774 8.1444 5.44367
189 2 17.616 6.78997 6.80227
190 2 17.6186 9.50317 9.5132
191 2 20.3401 6.78776 9.51614
192 2 20.34 9.49876 6.80132
193 2 21.7035 10.8537 5.44535
194 2 21.7048 13.5655 8.15397
195 2 2.71192 10.8424 8.16753
196 2 2.69423 13.5619 5.44437
197 2 1.34639 12.2016 6.8069
198 2 1.34763 14.912 9.51486
199 2 4.10456 12.1532 9.53125
200 2 4.05592 14.9098 6.80622
201 2 5.41445 10.842 5.46438
202 2 5.41575 13.5454 8.16777
203 2 8.10091 10.751 8.26265
204 2 8.10552 13.5398 5.47217
205 2 6.77821 12.1529 6.85668
206 2 6.76286 14.9205 9.51572
207 2 9.46241 12.1849 9.52155
208 2 9.46937 14.9173 6.80528
209 2 10.8183 10.8508 5.4611
210 2 10.8193 13.5543 8.16527
211 2 13.5252 10.8507 8.16484
212 2 13.5391 13.5719 5.44575
213 2 12.1812 12.2119 6.80374
214 2 12.1779 14.919 9.5158
215 2 14.8896 12.2092 9.51429
216 2 14.8985 14.9313 6.80087
217 2 16.2513 10.8551 5.44573
218 2 16.2524 13.5697 8.15862
219 2 18.9784 10.8584 8.15474
220 2 18.9771 13.5705 5.44141
221 2 17.614 12.214 6.7995
222 2 17.6151 14.93 9.51117
223 2 20.3411 12.2131 9.51153
224 2 20.3398 14.9263 6.79991
225 2 21.6961 16.2848 5.43973
226 2 21.6985 19.0052 8.15416
227 2 2.69459 16.2776 8.15352
228 2 2.68891 19.0023 5.43999
229 2 1.3328 17.641 6.79873
230 2 1.33361 20.3672 9.51107
231 2 4.04885 17.6409 9.51052
232 2 4.04701 20.3649 6.79707
233 2 5.40336 16.2762 5.44415
234 2 5.4038 19.0026 8.15315
235 2 8.11627 16.2823 8.15877
236 2 8.1153 19.0044 5.44213
237 2 6.76023 17.64 6.79823
238 2 6.76076 20.3655 9.50923
239 2 9.47286 17.6454 9.51312
240 2 9.47184 20.3672 6.79916
241 2 10.825 16.2835 5.44687
242 2 10.8291 19.0087 8.15805
243 2 13.5385 16.2842 8.16206
244 2 13.5429 19.0099 5.44561
245 2 12.1852 17.6461 6.80172
246 2 12.1847 20.3719 9.51476
247 2 14.8986 17.6473 9.5147
248 2 14.8982 20.3725 6.80519
249 2 16.2592 16.2897 5.44291
250 2 16.2578 19.0097 8.15972
251 2 18.9777 16.2874 8.15444
252 2 18.978 19.0065 5.44246
253 2 17.6175 17.6499 6.80062
254 2 17.6151 20.3715 9.51738
255 2 20.3393 17.6454 9.51155
256 2 20.3361 20.3659 6.80063
257 2 21.7065 0.00732585 10.8714
258 2 21.7088 2.72122 13.5823
259 2 2.69821 0.00700299 13.5796
260 2 2.72194 2.74518 10.8758
261 2 1.34993 1.37407 12.2201
262 2 1.35134 4.08396 14.9285
263 2 4.06163 1.37508 14.9258
264 2 4.10773 4.13117 12.2034
265 2 5.40823 0.00447746 10.8672
266 2 5.42103 2.74195 13.5673
267 2 8.1185 0.00758281 13.5805
268 2 8.1202 2.73038 10.868
269 2 6.76651 1.36707 12.2199
270 2 6.785 4.13445 14.878
271 2 9.47353 1.37472 14.9325
272 2 9.46625 4.10506 12.2168
273 2 10.8288 0.00874897 10.8712
274 2 10.8245 2.74064 13.5767
275 2 13.5416 0.0120134 13.5825
276 2 13.5148 2.75363 10.8646
277 2 12.1812 1.3753 12.2259
278 2 12.1868 4.08265 14.9399
279 2 14.9028 1.36433 14.9426
280 2 14.8927 4.08568 12.2288
281 2 16.2527 0.0126913 10.8707
282 2 16.2565 2.72472 13.5845
283 2 18.9823 0.00313668 13.5833
284 2 18.9793 2.71979 10.8735
285 2 17.6177 1.36392 12.2306
286 2 17.6197 4.07746 14.944
287 2 20.3456 1.36164 14.9386
288 2 20.3425 4.07559 12.2299
289 2 21.7025 5.432 10.8716
290 2 21.7026 8.14397 13.5819
291 2 2.71715 5.44328 13.568
292 2 2.70151 8.14256 10.8682
293 2 1.33988 6.79042 12.2236
294 2 1.34417 9.49853 14.9333
295 2 4.10889 6.80714 14.8792
296 2 4.07426 9.49104 12.2155
297 2 5.5091 5.53545 10.8793
298 2 5.51018 8.13157 13.475
299 2 8.10772 5.5395 13.4765
512 2 20.3398 20.3644 17.6521
302 2 6.77154 9.49008 14.91
303 2 9.46838 6.79837 14.9104
305 2 10.7266 5.54155 10.86
307 2 13.5295 5.44484 13.5787
308 2 13.5347 8.14689 10.8719
309 2 12.1623 6.80019 12.2199
310 2 12.1315 9.48246 14.8822
311 2 14.8938 6.79402 14.9369
312 2 14.8974 9.50079 12.2246
313 2 16.2587 5.43707 10.8739
314 2 16.259 8.14862 13.5839
315 2 18.981 5.43302 13.5863
316 2 18.9795 8.14668 10.8708
317 2 17.6209 6.7916 12.2299
318 2 17.62 9.5038 14.9412
319 2 20.3435 6.78869 14.9419
320 2 20.341 9.50168 12.2272
321 2 21.7014 10.8555 10.8687
322 2 21.7024 13.5686 13.5765
323 2 2.70678 10.849 13.5733
324 2 2.7197 13.54 10.8587
325 2 1.34303 12.2076 12.2224
326 2 1.33267 14.9282 14.9361
327 2 4.0504 12.2096 14.9356
328 2 4.05307 14.9168 12.2226
329 2 5.50789 10.7512 10.856
330 2 5.41154 13.5529 13.5736
332 2 8.11592 13.5582 10.8694
333 2 6.76808 12.1846 12.2161
334 2 6.76215 14.9179 14.9324
335 2 9.45316 12.1554 14.8802
336 2 9.46898 14.9221 12.2229
338 2 10.8162 13.5475 13.5693
339 2 13.5206 10.8469 13.5699
340 2 13.5132 13.5429 10.8772
341 2 12.1282 12.1574 12.2057
342 2 12.1757 14.9148 14.928
343 2 14.8868 12.2069 14.9288
344 2 14.8851 14.9157 12.2195
345 2 16.2563 10.8581 10.8689
346 2 16.2527 13.5687 13.5794
347 2 18.9791 10.8596 13.5816
348 2 18.9788 13.5727 10.8651
349 2 17.6183 12.2159 12.223
350 2 17.6163 14.9291 14.9344
351 2 20.3416 12.2144 14.9377
352 2 20.3411 14.9286 12.2211
353 2 21.7044 16.2806 10.8619
354 2 21.6999 19.0058 13.5775
355 2 2.69324 16.282 13.5769
356 2 2.69188 19.0045 10.865
357 2 1.33422 17.6433 12.2211
358 2 1.33612 20.3675 14.9341
359 2 4.04886 17.6434 14.9365
360 2 4.05001 20.3666 12.2212
361 2 5.40607 16.2821 10.8688
362 2 5.40533 19.0066 13.5809
363 2 8.11736 16.2845 13.5819
364 2 8.11703 19.0068 10.8693
365 2 6.76111 17.6447 12.225
366 2 6.76207 20.3692 14.9366
367 2 9.47304 17.6473 14.9387
368 2 9.47354 20.3695 12.2252
369 2 10.8271 16.285 10.8713
370 2 10.8292 19.0102 13.5842
371 2 13.5383 16.282 13.5812
372 2 13.5421 19.0101 10.8716
373 2 12.1841 17.6479 12.2269
374 2 12.1861 20.373 14.9394
375 2 14.8982 17.6461 14.9364
376 2 14.8992 20.3728 12.228
377 2 16.2518 16.2827 10.871
378 2 16.2583 19.0083 13.5815
379 2 18.9782 16.2873 13.5769
380 2 18.9786 19.0082 10.8682
381 2 17.6153 17.6468 12.2225
382 2 17.6207 20.3663 14.9383
383 2 20.3377 17.6475 14.934
384 2 20.3416 20.3689 12.2232
385 2 21.7014 21.7239 16.295
386 2 21.7014 2.71431 19.012
387 2 2.69159 8.71663e-06 19.0118
388 2 2.69954 2.72113 16.29
389 2 1.33851 1.36053 17.6499
390 2 1.3362 4.07456 20.3678
391 2 4.05083 1.36043 20.3678
392 2 4.06164 4.08465 17.6372
393 2 5.40698 0.00932569 16.2908
394 2 5.40721 2.72192 19.005
395 2 8.1154 0.00995443 19.0071
396 2 8.11137 2.75061 16.2674
397 2 6.76799 1.37634 17.638
398 2 6.7628 4.07529 20.3702
399 2 9.47505 1.36179 20.371
400 2 9.47493 4.08365 17.6443
401 2 10.8277 0.0107251 16.2948
402 2 10.8281 2.72277 19.01
403 2 13.5455 0.00214913 19.0148
404 2 13.5449 2.72295 16.2992
405 2 12.1878 1.36344 17.6562
406 2 12.1881 4.07589 20.3727
407 2 14.9047 1.35934 20.3749
408 2 14.9043 4.07745 17.6584
409 2 16.2626 0.00191213 16.2979
410 2 16.2639 2.71687 19.0155
411 2 18.9822 21.7222 19.0132
412 2 18.9837 2.71746 16.2981
413 2 17.6239 1.3586 17.6568
414 2 17.6224 4.07461 20.3749
415 2 20.3406 1.35716 20.3719
416 2 20.3457 4.07564 17.6544
417 2 21.7084 5.43039 16.2922
418 2 21.7058 8.13931 19.0051
419 2 2.69691 5.43009 19.0037
420 2 2.7222 8.13429 16.2646
421 2 1.35044 6.79151 17.6378
422 2 1.33342 9.4986 20.3678
423 2 4.0493 6.78664 20.3681
424 2 4.05471 9.49804 17.6411
425 2 5.42134 5.44438 16.2707
426 2 5.40641 8.14347 19.0071
427 2 8.11917 5.43378 19.0101
428 2 8.12061 8.14423 16.2836
429 2 6.76741 6.79191 17.6467
430 2 6.761 9.50105 20.3679
431 2 9.47532 6.78909 20.3722
432 2 9.47219 9.49859 17.6472
433 2 10.8245 5.44375 16.2815
434 2 10.8295 8.14718 19.0111
435 2 13.5425 5.43683 19.0118
436 2 13.5164 8.15605 16.2702
437 2 12.1829 6.79317 17.6462
438 2 12.1864 9.50417 20.3721
439 2 14.902 6.79029 20.3745
440 2 14.8877 9.49935 17.6423
441 2 16.2573 5.43762 16.298
442 2 16.2536 8.14835 19.0094
443 2 18.9823 5.43077 19.0138
444 2 18.9803 8.14484 16.2985
445 2 17.6199 6.78986 17.6582
446 2 17.6162 9.50082 20.3727
447 2 20.3424 6.78852 20.3712
448 2 20.3417 9.50059 17.6549
449 2 21.7023 10.8533 16.2928
450 2 21.6943 13.5695 19.0119
451 2 2.69194 10.8519 19.0039
452 2 2.6905 13.5689 16.2931
453 2 1.33146 12.213 17.6522
454 2 1.32891 14.9284 20.3705
455 2 4.0463 12.2117 20.3647
456 2 4.04661 14.9287 17.6511
457 2 5.4136 10.848 16.2773
458 2 5.4059 13.5677 19.0041
459 2 8.1175 10.8571 19.0067
460 2 8.1257 13.5414 16.2653
461 2 6.76227 12.2078 17.6412
462 2 6.75943 14.9284 20.3658
463 2 9.47195 12.2163 20.3682
464 2 9.46803 14.9158 17.6368
465 2 10.8182 10.8462 16.2723
466 2 10.8286 13.5701 19.0047
467 2 13.5385 10.8605 19.0067
468 2 13.5388 13.5687 16.291
469 2 12.1764 12.2072 17.6391
470 2 12.1841 14.9311 20.3681
471 2 14.8984 12.2157 20.3709
472 2 14.8988 14.9294 17.6506
473 2 16.253 10.8597 16.293
474 2 16.2578 13.5731 19.0121
475 2 18.977 10.8563 19.0124
476 2 18.9771 13.5714 16.2938
477 2 17.6165 12.2145 17.6533
478 2 17.6179 14.9301 20.3715
479 2 20.3351 12.2128 20.3729
480 2 20.3365 14.9293 17.6525
481 2 21.696 16.2878 16.2931
482 2 21.6971 19.0045 19.0113
483 2 2.68809 16.2867 19.0113
484 2 2.69199 19.0062 16.2937
485 2 1.33201 17.6468 17.6514
486 2 1.33227 20.3638 20.3701
487 2 4.04586 17.6466 20.3699
488 2 4.05057 20.3687 17.6505
489 2 5.40742 16.2824 16.2925
490 2 5.40469 19.0065 19.0115
491 2 8.11933 16.2819 19.0044
492 2 8.11774 19.0091 16.2963
493 2 6.76126 17.6455 17.6517
494 2 6.76202 20.3687 20.3691
495 2 9.47136 17.6464 20.3679
496 2 9.47383 20.3712 17.6537
497 2 10.8296 16.2827 16.2912
498 2 10.8297 19.0087 19.0119
499 2 13.5443 16.2899 19.0117
500 2 13.5429 19.0087 16.2957
501 2 12.185 17.6466 17.652
502 2 12.1872 20.3671 20.3732
503 2 14.9026 17.6493 20.3711
504 2 14.9034 20.3661 17.6554
505 2 16.259 16.2886 16.2937
506 2 16.2625 19.0061 19.0123
507 2 18.977 16.2874 19.0112
508 2 18.98 19.006 16.2938
509 2 17.6195 17.6474 17.6517
510 2 17.6211 20.3648 20.372
511 2 20.3368 17.6457 20.3707
ITEM: TIMESTEP
77
ITEM: NUMBER OF ATOMS
504
ITEM: BOX BOUNDS pp pp pp
0.0000000000000000e+00 2.1724000000000000e+01
0.0000000000000000e+00 2.1724000000000000e+01
0.0000000000000000e+00 2.1724000000000000e+01
ITEM: ATOMS id type x y z
1 2 21.6963 21.7238 0.00708042
2 2 21.6973 2.71749 2.72587
3 2 2.68995 21.7247 2.72574
4 2 2.6901 2.71748 0.0077117
5 2 1.33108 1.35859 1.3662
6 2 1.33314 4.0754 4.08573
7 2 4.04783 1.36066 4.08561
8 2 4.04805 4.07552 1.36904
9 2 5.40532 21.7249 0.00733411
10 2 5.40769 2.72109 2.73139
11 2 8.12009 0.00683839 2.73171
12 2 8.11801 2.71848 0.00660558
13 2 6.76159 1.36105 1.36863
14 2 6.76295 4.08198 4.09557
15 2 9.46952 1.37341 4.09824
16 2 9.474 4.07615 1.36809
17 2 10.8299 0.00234875 0.00641955
18 2 10.8299 2.72128 2.73161
19 2 13.5442 0.001115 2.72597
20 2 13.5434 2.7192 0.00611236
21 2 12.1859 1.3616 1.36837
22 2 12.18 4.08245 4.09635
23 2 14.9006 1.36091 4.08581
24 2 14.9007 4.07672 1.36803
25 2 16.261 21.7244 0.00716673
26 2 16.2603 2.71746 2.72561
27 2 18.9786 21.724 2.72493
28 2 18.9784 2.71715 0.00697322
29 2 17.6195 1.35892 1.36643
30 2 17.6182 4.07598 4.08526
31 2 20.3376 1.35871 4.08372
32 2 20.3377 4.07492 1.36638
33 2 21.6974 5.43279 0.0074243
34 2 21.703 8.14763 2.7316
35 2 2.69352 5.43513 2.73134
36 2 2.6907 8.1454 0.0063645
37 2 1.33343 6.7891 1.36867
38 2 1.34547 9.4971 4.09806
39 2 4.05428 6.79049 4.09549
40 2 4.04826 9.50148 1.36778
41 2 5.40449 5.432 0.006314
42 2 5.4061 8.14563 2.72912
43 2 8.11805 5.43394 2.72932
44 2 8.11761 8.14539 0.00660477
45 2 6.76109 6.78873 1.36737
46 2 6.76406 9.50049 4.08985
47 2 9.47279 6.79201 4.09009
48 2 9.47436 9.50225 1.36675
49 2 10.8309 5.43249 0.00639303
50 2 10.8301 8.14569 2.72801
51 2 13.5415 5.43271 2.73138
52 2 13.5436 8.14606 0.0055312
53 2 12.1874 6.7892 1.36751
54 2 12.1835 9.50107 4.0921
55 2 14.8921 6.79304 4.09556
56 2 14.9011 9.50195 1.36719
57 2 16.2585 5.43385 0.00550615
58 2 16.2557 8.14429 2.73036
59 2 18.9788 5.43293 2.72605
60 2 18.9767 8.14641 0.00537259
61 2 17.6173 6.79002 1.3675
62 2 17.6151 9.50283 4.08795
63 2 20.3401 6.78921 4.0861
64 2 20.3394 9.50068 1.36803
65 2 21.6983 10.8574 0.0060989
66 2 21.6969 13.5717 2.7255
67 2 2.69318 10.8574 2.73114
68 2 2.69106 13.5708 0.00550785
69 2 1.33349 12.2134 1.36795
70 2 1.3327 14.9282 4.08526
71 2 4.05428 12.2075 4.09579
72 2 4.04858 14.9282 1.36736
73 2 5.40445 10.8584 0.00595202
74 2 5.40452 13.5691 2.7308
75 2 8.11759 10.858 2.72777
76 2 8.11792 13.5714 0.0051397
77 2 6.7611 12.215 1.36702
78 2 6.76484 14.9198 4.09495
79 2 9.47291 12.2114 4.09185
80 2 9.4738 14.929 1.3668
81 2 10.8308 10.8588 0.00583531
82 2 10.8286 13.5705 2.72896
83 2 13.5424 10.8568 2.72911
84 2 13.5437 13.5719 0.0042031
85 2 12.1873 12.2154 1.36726
86 2 12.1869 14.9283 4.08688
87 2 14.9001 12.2151 4.087
88 2 14.9019 14.93 1.3652
89 2 16.2583 10.8583 0.00455957
90 2 16.2596 13.5719 2.7259
91 2 18.9775 10.8575 2.72696
92 2 18.9781 13.5725 0.00672008
93 2 17.6186 12.2145 1.36562
94 2 17.6191 14.9302 4.08425
95 2 20.3394 12.2135 4.08616
96 2 20.3376 14.9301 1.36619
97 2 21.6963 16.2885 0.00675403
98 2 21.6961 19.0061 2.7247
99 2 2.6894 16.2877 2.72504
100 2 2.68942 19.0058 0.00661104
101 2 1.33093 17.647 1.36596
102 2 1.33092 20.3652 4.08348
103 2 4.04793 17.6457 4.08466
104 2 4.04721 20.3652 1.36602
105 2 5.40585 16.286 0.00497209
106 2 5.40514 19.0064 2.72573
107 2 8.11622 16.2836 2.73002
108 2 8.11867 19.0045 0.00522262
109 2 6.76204 17.6449 1.36697
110 2 6.76144 20.3677 4.08581
111 2 9.47479 17.6431 4.08765
112 2 9.47295 20.3672 1.36795
113 2 10.8302 16.2863 0.00443867
114 2 10.8297 19.0056 2.72705
115 2 13.5438 16.2879 2.72593
116 2 13.5447 19.0062 0.00693243
117 2 12.1865 17.6467 1.36555
118 2 12.1857 20.3675 4.08634
119 2 14.9022 17.6474 4.08433
120 2 14.9024 20.3657 1.36648
121 2 16.2608 16.2889 0.00674049
122 2 16.2608 19.0063 2.72515
123 2 18.9782 16.2886 2.72496
124 2 18.9785 19.0063 0.00710249
125 2 17.6196 17.6476 1.36596
126 2 17.6193 20.3655 4.08379
127 2 20.3374 17.6471 4.08356
128 2 20.3373 20.3651 1.36595
129 2 21.6973 21.7249 5.44251
130 2 21.7029 2.7212 8.16026
131 2 2.69359 0.00644094 8.16011
132 2 2.69326 2.72076 5.44576
133 2 1.33313 1.36073 6.8004
134 2 1.34313 4.08202 9.51554
135 2 4.05444 1.37066 9.5154
136 2 4.05276 4.08033 6.80525
137 2 5.40764 0.00643079 5.44601
138 2 5.41491 2.73642 8.16734
139 2 8.11811 0.00454089 8.15879
140 2 8.12557 2.74523 5.47009
141 2 6.76295 1.37069 6.80683
142 2 6.77335 4.10313 9.52578
143 2 9.47292 1.36538 9.51682
144 2 9.45604 4.12883 6.85364
145 2 10.8299 0.00676956 5.44612
146 2 10.8214 2.73749 8.16686
147 2 13.5415 0.00663819 8.15758
148 2 13.5417 2.72078 5.44565
149 2 12.1799 1.37152 6.80729
150 2 12.1487 4.11781 9.5269
151 2 14.8922 1.3708 9.51795
152 2 14.8939 4.08096 6.80585
153 2 16.2602 0.00070145 5.4424
154 2 16.2567 2.72028 8.15766
155 2 18.9789 0.00119189 8.15793
156 2 18.9792 2.71772 5.44272
157 2 17.6182 1.36031 6.80097
158 2 17.6163 4.07695 9.51542
159 2 20.3402 1.36122 9.51423
160 2 20.3405 4.07571 6.80072
161 2 21.7028 5.43523 5.44611
162 2 21.7006 8.14572 8.15871
163 2 2.70878 5.44245 8.16733
164 2 2.71733 8.15309 5.46986
165 2 1.34298 6.79055 6.80689
166 2 1.33741 9.5005 9.51667
167 2 4.07544 6.80091 9.52572
168 2 4.10084 9.48362 6.85335
169 2 5.41479 5.44244 5.46125
170 2 5.50028 8.1575 8.25278
171 2 8.12979 5.52819 8.25293
172 2 8.11981 8.14772 5.45238
173 2 6.77319 6.80094 6.82789
176 2 9.46887 9.49685 6.82213
177 2 10.8213 5.44202 5.4622
178 2 10.7555 8.1329 8.23289
179 2 13.5308 5.4403 8.16505
180 2 13.5239 8.14056 5.46487
181 2 12.1485 6.80204 6.84253
182 2 12.1394 9.49437 9.54116
183 2 14.8927 6.79359 9.51838
184 2 14.8848 9.50421 6.81416
185 2 16.2566 5.43271 5.44507
186 2 16.2542 8.14648 8.16016
187 2 18.9778 5.43225 8.15714
188 2 18.9778 8.14562 5.44335
189 2 17.6162 6.79043 6.80179
190 2 17.617 9.50221 9.51434
191 2 20.3389 6.78887 9.51378
192 2 20.3393 9.50163 6.80093
193 2 21.7026 10.8574 5.44578
194 2 21.7024 13.5691 8.1571
195 2 2.7093 10.849 8.1664
196 2 2.69253 13.5692 5.44503
197 2 1.34332 12.2075 6.80686
198 2 1.34257 14.9198 9.51739
199 2 4.08963 12.1762 9.52636
200 2 4.05272 14.9215 6.80517
201 2 5.41385 10.849 5.46177
202 2 5.41202 13.5584 8.16449
203 2 8.10474 10.7835 8.23264
204 2 8.11232 13.5518 5.46449
205 2 6.77385 12.1763 6.84204
206 2 6.76536 14.9203 9.51778
207 2 9.46619 12.1674 9.54089
208 2 9.47599 14.9127 6.81379
209 2 10.8245 10.8526 5.45489
210 2 10.8192 13.5417 8.17942
211 2 13.5136 10.8474 8.17956
212 2 13.54 13.5682 5.44827
213 2 12.181 12.2091 6.80866
214 2 12.1778 14.9117 9.52113
215 2 14.8835 12.2059 9.52125
216 2 14.8993 14.9275 6.80258
217 2 16.2512 10.8552 5.45
218 2 16.2492 13.566 8.16413
219 2 18.9775 10.8586 8.15709
220 2 18.977 13.5711 5.44371
221 2 17.6138 12.2151 6.80272
222 2 17.6135 14.9268 9.51472
223 2 20.3386 12.2151 9.51374
224 2 20.3389 14.9283 6.80122
225 2 21.6966 16.2878 5.44196
226 2 21.6973 19.0065 8.15768
227 2 2.69212 16.2842 8.15707
228 2 2.68987 19.0067 5.44234
229 2 1.33222 17.6458 6.80048
230 2 1.33343 20.3678 9.51396
231 2 4.04889 17.6439 9.51479
232 2 4.0479 20.3681 6.80034
233 2 5.40459 16.2842 5.44454
234 2 5.40438 19.0054 8.15679
235 2 8.11834 16.282 8.15983
236 2 8.11778 19.0057 5.44322
237 2 6.76236 17.6439 6.80126
238 2 6.76109 20.3666 9.51345
239 2 9.47416 17.6449 9.51404
240 2 9.47383 20.3672 6.80087
241 2 10.8271 16.2793 5.44991
242 2 10.8308 19.0056 8.1572
243 2 13.5379 16.2775 8.16418
244 2 13.5432 19.0053 5.44396
245 2 12.187 17.642 6.80269
246 2 12.1873 20.3668 9.51392
247 2 14.8987 17.6417 9.51481
248 2 14.9005 20.3672 6.80153
249 2 16.259 16.2872 5.44371
250 2 16.2583 19.0047 8.15866
251 2 18.9765 16.2862 8.15845
252 2 18.9781 19.006 5.44204
253 2 17.6187 17.6469 6.80041
254 2 17.6173 20.3667 9.51488
255 2 20.3386 17.6451 9.51464
256 2 20.3376 20.3654 6.79984
257 2 21.7033 0.00686223 10.8726
258 2 21.7031 2.72117 13.5824
259 2 2.69366 0.00654468 13.5823
260 2 2.71767 2.74515 10.8781
261 2 1.34584 1.37335 12.2221
262 2 1.34384 4.08226 14.9325
263 2 4.05481 1.37125 14.9324
264 2 4.10122 4.12869 12.2085
265 2 5.40639 0.00444832 10.8705
266 2 5.41437 2.73725 13.5739
267 2 8.11803 0.00330864 13.5828
268 2 8.12014 2.7278 10.8726
269 2 6.76442 1.36527 12.2253
270 2 6.77437 4.11757 14.9012
271 2 9.4734 1.36743 14.9362
272 2 9.46923 4.09758 12.2217
273 2 10.8304 0.0034486 10.8705
274 2 10.825 2.73048 13.5775
275 2 13.5428 0.0046458 13.5817
276 2 13.5242 2.74032 10.8654
277 2 12.1838 1.36755 12.2259
278 2 12.1815 4.08424 14.934
279 2 14.9006 1.3625 14.94
280 2 14.8851 4.08958 12.2291
281 2 16.2559 0.00572353 10.8692
282 2 16.2517 2.72551 13.5801
283 2 18.9779 0.00237088 13.5824
284 2 18.9781 2.71865 10.8706
285 2 17.6154 1.36328 12.2278
286 2 17.6143 4.07816 14.9401
287 2 20.3399 1.36153 14.9385
288 2 20.3396 4.07621 12.2267
289 2 21.7008 5.43396 10.8706
290 2 21.6995 8.14556 13.5827
291 2 2.7097 5.44179 13.5739
292 2 2.69991 8.14763 10.8724
293 2 1.33763 6.79193 12.2254
294 2 1.33957 9.50087 14.9361
295 2 4.09001 6.80179 14.9011
296 2 4.06968 9.4967 12.2214
297 2 5.50048 5.52811 10.8823
298 2 5.48038 8.13267 13.5081
299 2 8.10514 5.50817 13.5083
512 2 20.3379 20.3656 17.6549
302 2 6.78863 9.49415 14.8919
303 2 9.46656 6.81648 14.8922
305 2 10.7558 5.50832 10.8577
307 2 13.5139 5.45515 13.5723
308 2 13.5259 8.14676 10.8714
309 2 12.1396 6.81663 12.2192
310 2 12.096 9.47762 14.8486
311 2 14.8839 6.79676 14.9308
312 2 14.8915 9.49832 12.223
313 2 16.2544 5.43552 10.8713
314 2 16.2545 8.14685 13.5803
315 2 18.9779 5.43251 13.5836
316 2 18.9781 8.14552 10.8703
317 2 17.6172 6.78965 12.2271
318 2 17.6154 9.50185 14.9384
319 2 20.339 6.78913 14.9401
320 2 20.3383 9.50227 12.227
321 2 21.6993 10.858 10.8702
322 2 21.7004 13.5704 13.5812
323 2 2.70237 10.8524 13.577
324 2 2.71204 13.5517 10.8648
325 2 1.33942 12.2113 12.2255
326 2 1.33438 14.9281 14.9394
327 2 4.05614 12.2089 14.9335
328 2 4.06138 14.9126 12.2285
329 2 5.48018 10.7834 10.8573
330 2 5.42691 13.5415 13.5717
332 2 8.1185 13.5537 10.871
333 2 6.78847 12.1673 12.2187
334 2 6.76864 14.9114 14.9302
335 2 9.4496 12.1238 14.8484
336 2 9.47016 14.9194 12.2226
338 2 10.8134 13.5383 13.566
339 2 13.5102 10.8416 13.5661
340 2 13.4951 13.5233 10.8871
341 2 12.0959 12.1239 12.2021
342 2 12.1739 14.908 14.9264
343 2 14.8799 12.202 14.9265
344 2 14.876 14.9041 12.2199
345 2 16.2543 10.8556 10.8714
346 2 16.2484 13.5648 13.5818
347 2 18.9773 10.8588 13.5834
348 2 18.9767 13.5715 10.8705
349 2 17.6152 12.2136 12.2264
350 2 17.613 14.9261 14.9368
351 2 20.3387 12.2153 14.9399
352 2 20.3384 14.929 12.2264
353 2 21.7016 16.2835 10.8687
354 2 21.6986 19.0055 13.5822
355 2 2.69743 16.2791 13.5795
356 2 2.69081 19.0056 10.8702
357 2 1.33526 17.643 12.2273
358 2 1.33387 20.3673 14.9382
359 2 4.05021 17.6417 14.9395
360 2 4.04849 20.3671 12.2262
361 2 5.40739 16.282 10.8708
362 2 5.40473 19.0054 13.5832
363 2 8.11878 16.2823 13.58
364 2 8.11768 19.006 10.8701
365 2 6.76165 17.6448 12.2266
366 2 6.76145 20.3665 14.9397
367 2 9.47388 17.6432 14.938
368 2 9.47452 20.3662 12.2269
369 2 10.8275 16.2824 10.8713
370 2 10.831 19.0054 13.5835
371 2 13.5367 16.2765 13.5819
372 2 13.5436 19.0049 10.8708
373 2 12.1856 17.6433 12.2264
374 2 12.1876 20.3668 14.9401
375 2 14.8981 17.6411 14.9368
376 2 14.9012 20.3666 12.2267
377 2 16.247 16.2751 10.8749
378 2 16.2585 19.004 13.583
379 2 18.9759 16.2863 13.5828
380 2 18.9768 19.0046 10.8712
381 2 17.6132 17.6413 12.2245
382 2 17.6189 20.365 14.9392
383 2 20.3371 17.6466 14.939
384 2 20.3395 20.3673 12.2255
385 2 21.6974 21.7249 16.2966
386 2 21.697 2.71723 19.0128
387 2 2.6898 0.000359645 19.0126
388 2 2.6931 2.72045 16.2941
389 2 1.33323 1.36065 17.6531
390 2 1.3326 4.07574 20.3708
391 2 4.04831 1.36 20.3707
392 2 4.05324 4.08062 17.6465
393 2 5.40503 0.00629826 16.2939
394 2 5.40503 2.71992 19.0092
395 2 8.1166 0.00546758 19.0084
396 2 8.11287 2.74006 16.2767
397 2 6.76535 1.37049 17.6446
398 2 6.76274 4.07667 20.3688
399 2 9.47516 1.36311 20.3679
400 2 9.47651 4.08937 17.6376
401 2 10.8291 0.00454053 16.2953
402 2 10.8275 2.72538 19.0042
403 2 13.5442 0.00136823 19.0127
404 2 13.5405 2.72383 16.2931
405 2 12.1874 1.36243 17.6531
406 2 12.1874 4.07811 20.3669
407 2 14.9025 1.35968 20.3722
408 2 14.8998 4.07806 17.6525
409 2 16.2601 0.00137682 16.2967
410 2 16.2595 2.71906 19.0121
411 2 18.9786 21.7243 19.0135
412 2 18.9776 2.71912 16.296
413 2 17.6196 1.35965 17.6551
414 2 17.6192 4.07568 20.3718
415 2 20.3378 1.3588 20.3721
416 2 20.3394 4.07658 17.6533
417 2 21.7028 5.43248 16.2941
418 2 21.7017 8.14406 19.0083
419 2 2.69245 5.43238 19.0092
420 2 2.71228 8.14024 16.2765
421 2 1.34294 6.79278 17.6447
422 2 1.33526 9.50262 20.3677
423 2 4.0491 6.79014 20.3687
424 2 4.06153 9.50391 17.6373
425 2 5.41247 5.43996 16.2833
426 2 5.4075 8.14616 19.0067
427 2 8.11868 5.43527 19.0069
428 2 8.11874 8.14652 16.2784
429 2 6.76574 6.79329 17.6452
430 2 6.76166 9.50199 20.3695
431 2 9.47441 6.7895 20.3697
432 2 9.47034 9.49816 17.644
433 2 10.8196 5.45503 16.2665
434 2 10.8277 8.14675 19.0071
435 2 13.5382 5.43962 19.0023
436 2 13.4953 8.1627 16.248
437 2 12.1782 6.7967 17.6365
438 2 12.1857 9.50183 20.3679
439 2 14.899 6.79019 20.3665
440 2 14.8762 9.49548 17.6288
441 2 16.2497 5.43963 16.2909
442 2 16.2471 8.15035 18.9998
443 2 18.9769 5.43376 19.0111
444 2 18.9769 8.14597 16.2962
445 2 17.6139 6.79016 17.6517
446 2 17.6133 9.49984 20.366
447 2 20.3388 6.78992 20.37
448 2 20.3386 9.50181 17.6537
449 2 21.7005 10.8566 16.295
450 2 21.6972 13.5717 19.0122
451 2 2.69735 10.8549 19.0037
452 2 2.69567 13.5679 16.2925
453 2 1.33437 12.2149 17.6527
454 2 1.33158 14.93 20.3717
455 2 4.05005 12.2149 20.3663
456 2 4.04997 14.9272 17.6518
457 2 5.42696 10.8471 16.2661
458 2 5.4115 13.5657 19.0017
459 2 8.11873 10.8554 19.0068
460 2 8.13457 13.5231 16.2476
461 2 6.76864 12.2057 17.636
462 2 6.76209 14.9266 20.3659
463 2 9.47377 12.2135 20.3677
464 2 9.46739 14.904 17.6284
465 2 10.8135 10.8415 16.2628
466 2 10.8293 13.5647 19.0009
467 2 13.5367 10.8574 19.0011
468 2 13.5375 13.5656 16.2901
469 2 12.1739 12.2019 17.6325
470 2 12.1842 14.9261 20.3655
471 2 14.898 12.2123 20.3656
472 2 14.8978 14.9259 17.6503
473 2 16.2484 10.8574 16.2893
474 2 16.2585 13.572 19.0111
475 2 18.9759 10.8582 19.0109
476 2 18.9756 13.5718 16.2963
477 2 17.613 12.2123 17.6507
478 2 17.6185 14.9299 20.3711
479 2 20.3369 12.2144 20.3713
480 2 20.3366 14.9299 17.6544
481 2 21.6974 16.2876 16.2963
482 2 21.6966 19.0061 19.0133
483 2 2.69107 16.2869 19.0115
484 2 2.6914 19.0049 16.2956
485 2 1.33174 17.6471 17.6547
486 2 1.33115 20.3653 20.3718
487 2 4.04776 17.6466 20.3712
488 2 4.04895 20.3668 17.653
489 2 5.41161 16.2772 16.2903
490 2 5.40606 19.0044 19.0107
491 2 8.12236 16.2749 18.9994
492 2 8.11823 19.0047 16.2961
493 2 6.76224 17.6414 17.6512
494 2 6.76225 20.3664 20.3697