ITEM: TIMESTEP
0
ITEM: NUMBER OF ATOMS
504
ITEM: BOX BOUNDS pp pp pp
0.0000000000000000e+00 2.1724000000000000e+01
0.0000000000000000e+00 2.1724000000000000e+01
0.0000000000000000e+00 2.1724000000000000e+01
ITEM: ATOMS id type x y z
1 2 21.6973 21.721 0.00688225
2 2 21.6969 2.71493 2.72619
3 2 2.68745 21.7205 2.72477
4 2 2.69088 2.71495 0.00630037
5 2 1.33124 1.35658 1.36548
6 2 1.33187 4.07362 4.0858
7 2 4.0455 1.35692 4.08394
8 2 4.0483 4.07206 1.36949
9 2 5.40358 21.724 0.00751835
10 2 5.40732 2.71783 2.73233
11 2 8.11877 0.00678071 2.73421
12 2 8.11782 2.71709 0.0091092
13 2 6.76084 1.35864 1.36924
14 2 6.76167 4.07952 4.09599
15 2 9.46794 1.37418 4.10031
16 2 9.47402 4.07461 1.37142
17 2 10.8297 0.0021368 0.00990572
18 2 10.8296 2.72181 2.73604
19 2 13.5441 0.00241007 2.72871
20 2 13.5457 2.71794 0.0107972
21 2 12.1852 1.36252 1.37221
22 2 12.1758 4.08487 4.10209
23 2 14.8989 1.36373 4.08939
24 2 14.9 4.07789 1.37327
25 2 16.263 21.7239 0.00874342
26 2 16.2605 2.71804 2.72856
27 2 18.9788 21.7229 2.72683
28 2 18.9815 2.71514 0.00829986
29 2 17.6208 1.35907 1.36846
30 2 17.6157 4.07805 4.08923
31 2 20.3365 1.35835 4.08599
32 2 20.3386 4.07428 1.36745
33 2 21.7 5.42945 0.00718387
34 2 21.7026 8.14432 2.73181
35 2 2.69281 5.43167 2.73109
36 2 2.69029 8.14175 0.00552514
37 2 1.33372 6.78625 1.36899
38 2 1.34647 9.49239 4.09852
39 2 4.05248 6.78736 4.09537
40 2 4.0482 9.49761 1.36666
41 2 5.40397 5.42992 0.00741903
42 2 5.40477 8.14158 2.72905
43 2 8.11653 5.43192 2.73081
44 2 8.11626 8.14489 0.00694921
45 2 6.76113 6.78632 1.36769
46 2 6.76207 9.49594 4.08983
47 2 9.4689 6.79126 4.09125
48 2 9.47293 9.5019 1.36743
49 2 10.8308 5.43189 0.0104455
50 2 10.8266 8.1452 2.73044
51 2 13.5383 5.43272 2.73627
52 2 13.5427 8.1464 0.0102018
53 2 12.1862 6.78937 1.37164
54 2 12.1772 9.50034 4.09737
55 2 14.884 6.79407 4.10295
56 2 14.8988 9.50238 1.37236
57 2 16.2604 5.43145 0.0103244
58 2 16.2509 8.1421 2.73527
59 2 18.9779 5.4314 2.7278
60 2 18.9779 8.14298 0.00836771
61 2 17.6158 6.78987 1.37184
62 2 17.6146 9.50084 4.08753
63 2 20.3395 6.78711 4.08726
64 2 20.3392 9.49817 1.36886
65 2 21.6965 10.8534 0.00552137
66 2 21.6956 13.5679 2.72487
67 2 2.69262 10.8521 2.73029
68 2 2.68784 13.5676 0.00340759
69 2 1.33208 12.209 1.3675
70 2 1.333 14.9221 4.0855
71 2 4.05544 12.2001 4.09579
72 2 4.04623 14.9239 1.3653
73 2 5.40228 10.8559 0.00409466
74 2 5.40224 13.5642 2.72943
75 2 8.11471 10.8546 2.72912
76 2 8.1139 13.5719 0.00565944
77 2 6.75949 12.2112 1.36619
78 2 6.76397 14.9106 4.09673
79 2 9.46892 12.208 4.09475
80 2 9.47098 14.929 1.36714
81 2 10.8283 10.8612 0.00760532
82 2 10.8238 13.5699 2.73128
83 2 13.5374 10.8557 2.73351
84 2 13.5414 13.5749 0.00778613
85 2 12.1854 12.2164 1.37034
86 2 12.1842 14.9304 4.08549
87 2 14.8981 12.2162 4.08619
88 2 14.9011 14.9329 1.36669
89 2 16.2566 10.8583 0.00912664
90 2 16.2584 13.5735 2.726
91 2 18.977 10.8557 2.72685
92 2 18.9756 13.5711 0.00736887
93 2 17.6175 12.2145 1.36759
94 2 17.6184 14.9314 4.08396
95 2 20.3398 12.2107 4.08609
96 2 20.3358 14.9281 1.36662
97 2 21.6945 16.286 0.00613419
98 2 21.6941 19.0033 2.72404
99 2 2.68717 16.283 2.72309
100 2 2.68705 19.0032 0.00638053
101 2 1.32854 17.6442 1.36533
102 2 1.32868 20.3616 4.08288
103 2 4.04667 17.639 4.08395
104 2 4.04538 20.3623 1.36487
105 2 5.40179 16.2848 0.00451572
106 2 5.4019 19.0026 2.7254
107 2 8.11177 16.2805 2.731
108 2 8.11563 19.006 0.00690771
109 2 6.75924 17.643 1.36592
110 2 6.75879 20.3649 4.08426
111 2 9.47178 17.6438 4.08453
112 2 9.47053 20.368 1.36948
113 2 10.8277 16.2893 0.00681783
114 2 10.8285 19.0079 2.72794
115 2 13.5425 16.2906 2.72663
116 2 13.5452 19.008 0.00777545
117 2 12.1857 17.6498 1.36618
118 2 12.1839 20.37 4.08797
119 2 14.9013 17.65 4.08564
120 2 14.9026 20.367 1.36811
121 2 16.2601 16.2899 0.00681262
122 2 16.2611 19.0077 2.72704
123 2 18.9769 16.288 2.72469
124 2 18.9788 19.0049 0.00693457
125 2 17.6191 17.6482 1.36676
126 2 17.6188 20.3671 4.08685
127 2 20.3354 17.6459 4.08355
128 2 20.3367 20.3638 1.36629
129 2 21.6963 21.7223 5.44234
130 2 21.7026 2.71923 8.16141
131 2 2.69429 0.00395357 8.15739
132 2 2.69017 2.71594 5.44387
133 2 1.33139 1.35796 6.80056
134 2 1.3433 4.07984 9.51578
135 2 4.05506 1.36844 9.51219
136 2 4.0495 4.07474 6.8023
137 2 5.4063 0.00391323 5.4437
138 2 5.41301 2.73247 8.16264
139 2 8.11754 0.0048164 8.15678
140 2 8.12566 2.74674 5.47217
141 2 6.76238 1.36859 6.80351
142 2 6.76999 4.10096 9.52033
143 2 9.47168 1.36658 9.5148
144 2 9.45163 4.13463 6.85932
145 2 10.8285 0.00935513 5.44821
146 2 10.8178 2.74444 8.1711
147 2 13.5387 0.0126815 8.16071
148 2 13.5389 2.72397 5.44928
149 2 12.1764 1.3771 6.81081
150 2 12.1281 4.13699 9.53602
151 2 14.8851 1.38003 9.52191
152 2 14.8855 4.08693 6.81166
153 2 16.2595 0.00399757 5.44626
154 2 16.2518 2.72657 8.16137
155 2 18.9783 0.00327583 8.16025
156 2 18.9765 2.71752 5.44557
157 2 17.6148 1.36432 6.80712
158 2 17.6174 4.07813 9.51778
159 2 20.3407 1.36139 9.51713
160 2 20.339 4.07435 6.80343
161 2 21.7012 5.43213 5.44717
162 2 21.7011 8.14251 8.15884
163 2 2.70668 5.43691 8.16371
164 2 2.71827 8.1499 5.47183
165 2 1.34212 6.78743 6.80627
166 2 1.33802 9.49621 9.51622
167 2 4.07439 6.79553 9.51986
168 2 4.10387 9.47846 6.85702
169 2 5.41065 5.43712 5.45996
170 2 5.50787 8.1566 8.26146
171 2 8.12773 5.53838 8.26254
172 2 8.11472 8.14386 5.45426
173 2 6.76703 6.79654 6.82741
176 2 9.46134 9.49256 6.82829
177 2 10.8159 5.44562 5.46774
178 2 10.7235 8.13534 8.26306
179 2 13.5199 5.44746 8.1719
180 2 13.5109 8.13761 5.47421
181 2 12.1261 6.81054 6.86049
182 2 12.1597 9.49321 9.52355
183 2 14.8977 6.79366 9.51861
184 2 14.8886 9.50014 6.80676
185 2 16.2515 5.43385 5.4493
186 2 16.2561 8.14731 8.15889
187 2 18.9775 5.43289 8.15927
188 2 18.9774 8.1444 5.44367
189 2 17.616 6.78997 6.80227
190 2 17.6186 9.50317 9.5132
191 2 20.3401 6.78776 9.51614
192 2 20.34 9.49876 6.80132
193 2 21.7035 10.8537 5.44535
194 2 21.7048 13.5655 8.15397
195 2 2.71192 10.8424 8.16753
196 2 2.69423 13.5619 5.44437
197 2 1.34639 12.2016 6.8069
198 2 1.34763 14.912 9.51486
199 2 4.10456 12.1532 9.53125
200 2 4.05592 14.9098 6.80622
201 2 5.41445 10.842 5.46438
202 2 5.41575 13.5454 8.16777
203 2 8.10091 10.751 8.26265
204 2 8.10552 13.5398 5.47217
205 2 6.77821 12.1529 6.85668
206 2 6.76286 14.9205 9.51572
207 2 9.46241 12.1849 9.52155
208 2 9.46937 14.9173 6.80528
209 2 10.8183 10.8508 5.4611
210 2 10.8193 13.5543 8.16527
211 2 13.5252 10.8507 8.16484
212 2 13.5391 13.5719 5.44575
213 2 12.1812 12.2119 6.80374
214 2 12.1779 14.919 9.5158
215 2 14.8896 12.2092 9.51429
216 2 14.8985 14.9313 6.80087
217 2 16.2513 10.8551 5.44573
218 2 16.2524 13.5697 8.15862
219 2 18.9784 10.8584 8.15474
220 2 18.9771 13.5705 5.44141
221 2 17.614 12.214 6.7995
222 2 17.6151 14.93 9.51117
223 2 20.3411 12.2131 9.51153
224 2 20.3398 14.9263 6.79991
225 2 21.6961 16.2848 5.43973
226 2 21.6985 19.0052 8.15416
227 2 2.69459 16.2776 8.15352
228 2 2.68891 19.0023 5.43999
229 2 1.3328 17.641 6.79873
230 2 1.33361 20.3672 9.51107
231 2 4.04885 17.6409 9.51052
232 2 4.04701 20.3649 6.79707
233 2 5.40336 16.2762 5.44415
234 2 5.4038 19.0026 8.15315
235 2 8.11627 16.2823 8.15877
236 2 8.1153 19.0044 5.44213
237 2 6.76023 17.64 6.79823
238 2 6.76076 20.3655 9.50923
239 2 9.47286 17.6454 9.51312
240 2 9.47184 20.3672 6.79916
241 2 10.825 16.2835 5.44687
242 2 10.8291 19.0087 8.15805
243 2 13.5385 16.2842 8.16206
244 2 13.5429 19.0099 5.44561
245 2 12.1852 17.6461 6.80172
246 2 12.1847 20.3719 9.51476
247 2 14.8986 17.6473 9.5147
248 2 14.8982 20.3725 6.80519
249 2 16.2592 16.2897 5.44291
250 2 16.2578 19.0097 8.15972
251 2 18.9777 16.2874 8.15444
252 2 18.978 19.0065 5.44246
253 2 17.6175 17.6499 6.80062
254 2 17.6151 20.3715 9.51738
255 2 20.3393 17.6454 9.51155
256 2 20.3361 20.3659 6.80063
257 2 21.7065 0.00732585 10.8714
258 2 21.7088 2.72122 13.5823
259 2 2.69821 0.00700299 13.5796
260 2 2.72194 2.74518 10.8758
261 2 1.34993 1.37407 12.2201
262 2 1.35134 4.08396 14.9285
263 2 4.06163 1.37508 14.9258
264 2 4.10773 4.13117 12.2034
265 2 5.40823 0.00447746 10.8672
266 2 5.42103 2.74195 13.5673
267 2 8.1185 0.00758281 13.5805
268 2 8.1202 2.73038 10.868
269 2 6.76651 1.36707 12.2199
270 2 6.785 4.13445 14.878
271 2 9.47353 1.37472 14.9325
272 2 9.46625 4.10506 12.2168
273 2 10.8288 0.00874897 10.8712
274 2 10.8245 2.74064 13.5767
275 2 13.5416 0.0120134 13.5825
276 2 13.5148 2.75363 10.8646
277 2 12.1812 1.3753 12.2259
278 2 12.1868 4.08265 14.9399
279 2 14.9028 1.36433 14.9426
280 2 14.8927 4.08568 12.2288
281 2 16.2527 0.0126913 10.8707
282 2 16.2565 2.72472 13.5845
283 2 18.9823 0.00313668 13.5833
284 2 18.9793 2.71979 10.8735
285 2 17.6177 1.36392 12.2306
286 2 17.6197 4.07746 14.944
287 2 20.3456 1.36164 14.9386
288 2 20.3425 4.07559 12.2299
289 2 21.7025 5.432 10.8716
290 2 21.7026 8.14397 13.5819
291 2 2.71715 5.44328 13.568
292 2 2.70151 8.14256 10.8682
293 2 1.33988 6.79042 12.2236
294 2 1.34417 9.49853 14.9333
295 2 4.10889 6.80714 14.8792
296 2 4.07426 9.49104 12.2155
297 2 5.5091 5.53545 10.8793
298 2 5.51018 8.13157 13.475
299 2 8.10772 5.5395 13.4765
512 2 20.3398 20.3644 17.6521
302 2 6.77154 9.49008 14.91
303 2 9.46838 6.79837 14.9104
305 2 10.7266 5.54155 10.86
307 2 13.5295 5.44484 13.5787
308 2 13.5347 8.14689 10.8719
309 2 12.1623 6.80019 12.2199
310 2 12.1315 9.48246 14.8822
311 2 14.8938 6.79402 14.9369
312 2 14.8974 9.50079 12.2246
313 2 16.2587 5.43707 10.8739
314 2 16.259 8.14862 13.5839
315 2 18.981 5.43302 13.5863
316 2 18.9795 8.14668 10.8708
317 2 17.6209 6.7916 12.2299
318 2 17.62 9.5038 14.9412
319 2 20.3435 6.78869 14.9419
320 2 20.341 9.50168 12.2272
321 2 21.7014 10.8555 10.8687
322 2 21.7024 13.5686 13.5765
323 2 2.70678 10.849 13.5733
324 2 2.7197 13.54 10.8587
325 2 1.34303 12.2076 12.2224
326 2 1.33267 14.9282 14.9361
327 2 4.0504 12.2096 14.9356
328 2 4.05307 14.9168 12.2226
329 2 5.50789 10.7512 10.856
330 2 5.41154 13.5529 13.5736
332 2 8.11592 13.5582 10.8694
333 2 6.76808 12.1846 12.2161
334 2 6.76215 14.9179 14.9324
335 2 9.45316 12.1554 14.8802
336 2 9.46898 14.9221 12.2229
338 2 10.8162 13.5475 13.5693
339 2 13.5206 10.8469 13.5699
340 2 13.5132 13.5429 10.8772
341 2 12.1282 12.1574 12.2057
342 2 12.1757 14.9148 14.928
343 2 14.8868 12.2069 14.9288
344 2 14.8851 14.9157 12.2195
345 2 16.2563 10.8581 10.8689
346 2 16.2527 13.5687 13.5794
347 2 18.9791 10.8596 13.5816
348 2 18.9788 13.5727 10.8651
349 2 17.6183 12.2159 12.223
350 2 17.6163 14.9291 14.9344
351 2 20.3416 12.2144 14.9377
352 2 20.3411 14.9286 12.2211
353 2 21.7044 16.2806 10.8619
354 2 21.6999 19.0058 13.5775
355 2 2.69324 16.282 13.5769
356 2 2.69188 19.0045 10.865
357 2 1.33422 17.6433 12.2211
358 2 1.33612 20.3675 14.9341
359 2 4.04886 17.6434 14.9365
360 2 4.05001 20.3666 12.2212
361 2 5.40607 16.2821 10.8688
362 2 5.40533 19.0066 13.5809
363 2 8.11736 16.2845 13.5819
364 2 8.11703 19.0068 10.8693
365 2 6.76111 17.6447 12.225
366 2 6.76207 20.3692 14.9366
367 2 9.47304 17.6473 14.9387
368 2 9.47354 20.3695 12.2252
369 2 10.8271 16.285 10.8713
370 2 10.8292 19.0102 13.5842
371 2 13.5383 16.282 13.5812
372 2 13.5421 19.0101 10.8716
373 2 12.1841 17.6479 12.2269
374 2 12.1861 20.373 14.9394
375 2 14.8982 17.6461 14.9364
376 2 14.8992 20.3728 12.228
377 2 16.2518 16.2827 10.871
378 2 16.2583 19.0083 13.5815
379 2 18.9782 16.2873 13.5769
380 2 18.9786 19.0082 10.8682
381 2 17.6153 17.6468 12.2225
382 2 17.6207 20.3663 14.9383
383 2 20.3377 17.6475 14.934
384 2 20.3416 20.3689 12.2232
385 2 21.7014 21.7239 16.295
386 2 21.7014 2.71431 19.012
387 2 2.69159 8.71663e-06 19.0118
388 2 2.69954 2.72113 16.29
389 2 1.33851 1.36053 17.6499
390 2 1.3362 4.07456 20.3678
391 2 4.05083 1.36043 20.3678
392 2 4.06164 4.08465 17.6372
393 2 5.40698 0.00932569 16.2908
394 2 5.40721 2.72192 19.005
395 2 8.1154 0.00995443 19.0071
396 2 8.11137 2.75061 16.2674
397 2 6.76799 1.37634 17.638
398 2 6.7628 4.07529 20.3702
399 2 9.47505 1.36179 20.371
400 2 9.47493 4.08365 17.6443
401 2 10.8277 0.0107251 16.2948
402 2 10.8281 2.72277 19.01
403 2 13.5455 0.00214913 19.0148
404 2 13.5449 2.72295 16.2992
405 2 12.1878 1.36344 17.6562
406 2 12.1881 4.07589 20.3727
407 2 14.9047 1.35934 20.3749
408 2 14.9043 4.07745 17.6584
409 2 16.2626 0.00191213 16.2979
410 2 16.2639 2.71687 19.0155
411 2 18.9822 21.7222 19.0132
412 2 18.9837 2.71746 16.2981
413 2 17.6239 1.3586 17.6568
414 2 17.6224 4.07461 20.3749
415 2 20.3406 1.35716 20.3719
416 2 20.3457 4.07564 17.6544
417 2 21.7084 5.43039 16.2922
418 2 21.7058 8.13931 19.0051
419 2 2.69691 5.43009 19.0037
420 2 2.7222 8.13429 16.2646
421 2 1.35044 6.79151 17.6378
422 2 1.33342 9.4986 20.3678
423 2 4.0493 6.78664 20.3681
424 2 4.05471 9.49804 17.6411
425 2 5.42134 5.44438 16.2707
426 2 5.40641 8.14347 19.0071
427 2 8.11917 5.43378 19.0101
428 2 8.12061 8.14423 16.2836
429 2 6.76741 6.79191 17.6467
430 2 6.761 9.50105 20.3679
431 2 9.47532 6.78909 20.3722
432 2 9.47219 9.49859 17.6472
433 2 10.8245 5.44375 16.2815
434 2 10.8295 8.14718 19.0111
435 2 13.5425 5.43683 19.0118
436 2 13.5164 8.15605 16.2702
437 2 12.1829 6.79317 17.6462
438 2 12.1864 9.50417 20.3721
439 2 14.902 6.79029 20.3745
440 2 14.8877 9.49935 17.6423
441 2 16.2573 5.43762 16.298
442 2 16.2536 8.14835 19.0094
443 2 18.9823 5.43077 19.0138
444 2 18.9803 8.14484 16.2985
445 2 17.6199 6.78986 17.6582
446 2 17.6162 9.50082 20.3727
447 2 20.3424 6.78852 20.3712
448 2 20.3417 9.50059 17.6549
449 2 21.7023 10.8533 16.2928
450 2 21.6943 13.5695 19.0119
451 2 2.69194 10.8519 19.0039
452 2 2.6905 13.5689 16.2931
453 2 1.33146 12.213 17.6522
454 2 1.32891 14.9284 20.3705
455 2 4.0463 12.2117 20.3647
456 2 4.04661 14.9287 17.6511
457 2 5.4136 10.848 16.2773
458 2 5.4059 13.5677 19.0041
459 2 8.1175 10.8571 19.0067
460 2 8.1257 13.5414 16.2653
461 2 6.76227 12.2078 17.6412
462 2 6.75943 14.9284 20.3658
463 2 9.47195 12.2163 20.3682
464 2 9.46803 14.9158 17.6368
465 2 10.8182 10.8462 16.2723
466 2 10.8286 13.5701 19.0047
467 2 13.5385 10.8605 19.0067
468 2 13.5388 13.5687 16.291
469 2 12.1764 12.2072 17.6391
470 2 12.1841 14.9311 20.3681
471 2 14.8984 12.2157 20.3709
472 2 14.8988 14.9294 17.6506
473 2 16.253 10.8597 16.293
474 2 16.2578 13.5731 19.0121
475 2 18.977 10.8563 19.0124
476 2 18.9771 13.5714 16.2938
477 2 17.6165 12.2145 17.6533
478 2 17.6179 14.9301 20.3715
479 2 20.3351 12.2128 20.3729
480 2 20.3365 14.9293 17.6525
481 2 21.696 16.2878 16.2931
482 2 21.6971 19.0045 19.0113
483 2 2.68809 16.2867 19.0113
484 2 2.69199 19.0062 16.2937
485 2 1.33201 17.6468 17.6514
486 2 1.33227 20.3638 20.3701
487 2 4.04586 17.6466 20.3699
488 2 4.05057 20.3687 17.6505
489 2 5.40742 16.2824 16.2925
490 2 5.40469 19.0065 19.0115
491 2 8.11933 16.2819 19.0044
492 2 8.11774 19.0091 16.2963
493 2 6.76126 17.6455 17.6517
494 2 6.76202 20.3687 20.3691
495 2 9.47136 17.6464 20.3679
496 2 9.47383 20.3712 17.6537
497 2 10.8296 16.2827 16.2912
498 2 10.8297 19.0087 19.0119
499 2 13.5443 16.2899 19.0117
500 2 13.5429 19.0087 16.2957
501 2 12.185 17.6466 17.652
502 2 12.1872 20.3671 20.3732
503 2 14.9026 17.6493 20.3711
504 2 14.9034 20.3661 17.6554
505 2 16.259 16.2886 16.2937
506 2 16.2625 19.0061 19.0123
507 2 18.977 16.2874 19.0112
508 2 18.98 19.006 16.2938
509 2 17.6195 17.6474 17.6517
510 2 17.6211 20.3648 20.372
511 2 20.3368 17.6457 20.3707
ITEM: TIMESTEP
77
ITEM: NUMBER OF ATOMS
504
ITEM: BOX BOUNDS pp pp pp
0.0000000000000000e+00 2.1724000000000000e+01
0.0000000000000000e+00 2.1724000000000000e+01
0.0000000000000000e+00 2.1724000000000000e+01
ITEM: ATOMS id type x y z
1 2 21.6964 21.7238 0.00711376
2 2 21.6975 2.71756 2.72602
3 2 2.69003 21.7249 2.72589
4 2 2.69011 2.71748 0.00788102
5 2 1.33109 1.35859 1.36629
6 2 1.3334 4.07546 4.08599
7 2 4.04789 1.36092 4.08587
8 2 4.04817 4.07564 1.36903
9 2 5.40535 21.7249 0.00748263
10 2 5.40777 2.72143 2.73165
11 2 8.12003 0.00676352 2.73163
12 2 8.11806 2.71865 0.00647655
13 2 6.76159 1.36124 1.36868
14 2 6.7628 4.08268 4.09613
15 2 9.46944 1.37325 4.09808
16 2 9.47395 4.07626 1.36812
17 2 10.8298 0.00257794 0.00625103
18 2 10.8298 2.72121 2.7315
19 2 13.5441 0.00108613 2.72594
20 2 13.5433 2.71926 0.00594282
21 2 12.1859 1.36163 1.36829
22 2 12.1801 4.08224 4.096
23 2 14.9007 1.36083 4.08572
24 2 14.9007 4.07665 1.36789
25 2 16.261 21.7244 0.00714861
26 2 16.2603 2.71745 2.72556
27 2 18.9786 21.724 2.72494
28 2 18.9784 2.71716 0.00698611
29 2 17.6195 1.3589 1.36641
30 2 17.6185 4.07587 4.08513
31 2 20.3377 1.35872 4.08373
32 2 20.3378 4.07488 1.36645
33 2 21.6974 5.43282 0.00757287
34 2 21.7029 8.14757 2.73153
35 2 2.69386 5.43522 2.73161
36 2 2.69086 8.14544 0.00623552
37 2 1.33361 6.7891 1.36872
38 2 1.3453 9.49701 4.09789
39 2 4.05499 6.79034 4.09605
40 2 4.04836 9.50142 1.36781
41 2 5.40463 5.43214 0.00613266
42 2 5.4063 8.14575 2.72937
43 2 8.11817 5.43415 2.72957
44 2 8.11762 8.14541 0.00659926
45 2 6.76115 6.78878 1.36744
46 2 6.7643 9.50077 4.09021
47 2 9.47307 6.79225 4.09044
48 2 9.47437 9.50226 1.36676
49 2 10.8309 5.43254 0.00632146
50 2 10.8303 8.1457 2.72795
51 2 13.5417 5.43269 2.73122
52 2 13.5437 8.14602 0.00555188
53 2 12.1874 6.78916 1.36746
54 2 12.1841 9.50133 4.09131
55 2 14.8935 6.79284 4.09446
56 2 14.9012 9.50199 1.36708
57 2 16.2585 5.43386 0.00540945
58 2 16.2563 8.14457 2.72993
59 2 18.979 5.43296 2.72605
60 2 18.9767 8.14649 0.00532954
61 2 17.6175 6.78996 1.36735
62 2 17.6146 9.50312 4.08862
63 2 20.3401 6.78921 4.08628
64 2 20.3393 9.50075 1.36801
65 2 21.6985 10.8573 0.0059306
66 2 21.6969 13.5717 2.72547
67 2 2.69311 10.8573 2.73103
68 2 2.69113 13.5707 0.00533836
69 2 1.33352 12.2134 1.36786
70 2 1.33261 14.9283 4.08517
71 2 4.05408 12.2076 4.09544
72 2 4.04851 14.9282 1.36721
73 2 5.4045 10.8584 0.00588046
74 2 5.40451 13.5693 2.73064
75 2 8.1176 10.8581 2.72771
76 2 8.11788 13.5715 0.00516024
77 2 6.76106 12.2151 1.36697
78 2 6.76465 14.9212 4.09385
79 2 9.47318 12.212 4.09106
80 2 9.47383 14.9291 1.3667
81 2 10.8308 10.8589 0.00591213
82 2 10.829 13.5708 2.72865
83 2 13.5427 10.8572 2.72879
84 2 13.5438 13.572 0.00418592
85 2 12.1874 12.2155 1.36711
86 2 12.1869 14.928 4.08754
87 2 14.8998 12.2151 4.08767
88 2 14.9019 14.93 1.36537
89 2 16.2585 10.8582 0.0046068
90 2 16.2595 13.5718 2.72618
91 2 18.9773 10.8574 2.72719
92 2 18.9782 13.5724 0.00679209
93 2 17.6186 12.2145 1.36577
94 2 17.6191 14.9302 4.08431
95 2 20.3393 12.2135 4.08618
96 2 20.3376 14.9301 1.36621
97 2 21.6964 16.2885 0.00673599
98 2 21.6962 19.0061 2.72471
99 2 2.68938 16.2877 2.725
100 2 2.68943 19.0058 0.00662388
101 2 1.33091 17.647 1.36594
102 2 1.33093 20.3653 4.08349
103 2 4.04783 17.646 4.08453
104 2 4.04717 20.3653 1.36609
105 2 5.40585 16.286 0.00487521
106 2 5.40517 19.0066 2.72573
107 2 8.1165 16.2842 2.7296
108 2 8.11875 19.0045 0.00517945
109 2 6.76198 17.6451 1.36682
110 2 6.76144 20.3678 4.08599
111 2 9.47508 17.6426 4.08832
112 2 9.47301 20.3672 1.36793
113 2 10.8302 16.2865 0.00448577
114 2 10.8296 19.0054 2.72728
115 2 13.5437 16.2877 2.72622
116 2 13.5446 19.0063 0.00700429
117 2 12.1865 17.6467 1.3657
118 2 12.1857 20.3675 4.08636
119 2 14.9021 17.6473 4.08439
120 2 14.9024 20.3657 1.36649
121 2 16.2608 16.2889 0.00684038
122 2 16.2608 19.0063 2.72517
123 2 18.9782 16.2886 2.72498
124 2 18.9785 19.0063 0.00710863
125 2 17.6196 17.6476 1.366
126 2 17.6193 20.3655 4.08378
127 2 20.3374 17.6472 4.08355
128 2 20.3374 20.3651 1.36596
129 2 21.6974 21.725 5.44259
130 2 21.7032 2.72155 8.16035
131 2 2.69394 0.00670634 8.16019
132 2 2.69396 2.72146 5.44646
133 2 1.3334 1.36099 6.80046
134 2 1.3437 4.08272 9.5154
135 2 4.05515 1.37122 9.51525
136 2 4.05394 4.08151 6.80644
137 2 5.40773 0.00669624 5.44635
138 2 5.41711 2.7388 8.16954
139 2 8.11823 0.00479377 8.15899
140 2 8.12509 2.74477 5.46964
141 2 6.7628 1.37125 6.80754
142 2 6.77685 4.10745 9.52928
143 2 9.4732 1.36573 9.51706
144 2 9.45617 4.12743 6.85224
145 2 10.8298 0.00665893 5.44605
146 2 10.8225 2.73727 8.167
147 2 13.5417 0.00647672 8.15757
148 2 13.5418 2.72068 5.44554
149 2 12.1801 1.37117 6.80709
150 2 12.1587 4.11126 9.52602
151 2 14.8936 1.3697 9.51776
152 2 14.8954 4.08032 6.80522
153 2 16.2602 0.000655681 5.44239
154 2 16.2574 2.72001 8.1577
155 2 18.979 0.00119263 8.15796
156 2 18.9794 2.71773 5.44273
157 2 17.6185 1.36018 6.80087
158 2 17.616 4.07728 9.51579
159 2 20.3403 1.36141 9.51423
160 2 20.3405 4.07583 6.80084
161 2 21.7031 5.43532 5.44646
162 2 21.7009 8.14584 8.15891
163 2 2.71116 5.44465 8.16953
164 2 2.71687 8.1526 5.46941
165 2 1.34355 6.7904 6.8076
166 2 1.33777 9.50078 9.51691
167 2 4.07977 6.80442 9.52923
168 2 4.09944 9.48375 6.85194
169 2 5.41699 5.44464 5.46363
170 2 5.49984 8.16471 8.25233
171 2 8.13699 5.52776 8.2525
172 2 8.12114 8.14904 5.45316
173 2 6.7767 6.80445 6.83221
176 2 9.47168 9.49965 6.82056
177 2 10.8224 5.44216 5.46198
178 2 10.7853 8.14569 8.21644
179 2 13.5341 5.43961 8.16436
180 2 13.5278 8.14251 5.46211
181 2 12.1585 6.80116 6.83598
182 2 12.1215 9.50841 9.57217
183 2 14.8908 6.7949 9.5197
184 2 14.8816 9.50633 6.8185
185 2 16.2573 5.43275 5.4448
186 2 16.2532 8.14679 8.16086
187 2 18.9776 5.43238 8.15728
188 2 18.9777 8.14567 5.44351
189 2 17.6158 6.7908 6.80212
190 2 17.6169 9.50222 9.51448
191 2 20.339 6.78892 9.51384
192 2 20.3393 9.50158 6.80104
193 2 21.7025 10.8574 5.44571
194 2 21.7022 13.5693 8.15708
195 2 2.70908 10.85 8.16654
196 2 2.69242 13.5693 5.44493
197 2 1.34297 12.2077 6.80666
198 2 1.34146 14.9212 9.51719
199 2 4.08307 12.1862 9.52548
200 2 4.05208 14.9229 6.80454
201 2 5.41399 10.85 5.46155
202 2 5.41132 13.5617 8.1638
203 2 8.11755 10.8133 8.21617
204 2 8.11428 13.5557 5.46173
205 2 6.77297 12.1863 6.83548
206 2 6.76667 14.9185 9.51909
207 2 9.48024 12.1495 9.5719
208 2 9.47811 14.9095 6.81813
209 2 10.8256 10.8537 5.45337
210 2 10.8186 13.5344 8.19008
211 2 13.5062 10.8468 8.19022
212 2 13.5393 13.5676 5.44974
213 2 12.1802 12.2084 6.8119
214 2 12.1779 14.911 9.52264
215 2 14.8828 12.2061 9.52275
216 2 14.8992 14.9274 6.80281
217 2 16.2499 10.8549 5.45163
218 2 16.2487 13.5657 8.16446
219 2 18.9774 10.8586 8.15715
220 2 18.9768 13.571 5.44377
221 2 17.6135 12.2151 6.803
222 2 17.6133 14.9267 9.51465
223 2 20.3385 12.2152 9.5137
224 2 20.3388 14.9284 6.80115
225 2 21.6965 16.2878 5.44195
226 2 21.6973 19.0067 8.15771
227 2 2.69185 16.2849 8.15712
228 2 2.68988 19.0069 5.44235
229 2 1.33209 17.6461 6.80038
230 2 1.33361 20.3678 9.51396
231 2 4.04922 17.6435 9.51517
232 2 4.04802 20.3681 6.80046
233 2 5.40464 16.2849 5.44428
234 2 5.40452 19.0053 8.15692
235 2 8.11865 16.2811 8.16053
236 2 8.11782 19.0056 5.44338
237 2 6.76274 17.6435 6.80159
238 2 6.76114 20.3666 9.51351
239 2 9.47418 17.6448 9.51419
240 2 9.47378 20.3673 6.80097
241 2 10.8268 16.2781 5.45154
242 2 10.8307 19.0055 8.15726
243 2 13.5376 16.2769 8.16451
244 2 13.5431 19.0051 5.44402
245 2 12.187 17.6417 6.80297
246 2 12.1874 20.3667 9.51388
247 2 14.8986 17.6415 9.51474
248 2 14.9005 20.367 6.80146
249 2 16.2589 16.2871 5.44379
250 2 16.2583 19.0046 8.15867
251 2 18.9764 16.2862 8.15846
252 2 18.9782 19.006 5.44205
253 2 17.6187 17.6468 6.80038
254 2 17.6175 20.3665 9.51482
255 2 20.3384 17.6453 9.51458
256 2 20.3376 20.3655 6.7998
257 2 21.7032 0.00678723 10.8725
258 2 21.703 2.72109 13.5824
259 2 2.69359 0.00643401 13.5822
260 2 2.71721 2.74469 10.8776
261 2 1.34568 1.37318 12.222
262 2 1.3435 4.08205 14.9327
263 2 4.05461 1.37091 14.9325
264 2 4.09982 4.12729 12.2087
265 2 5.40659 0.00470124 10.8706
266 2 5.41452 2.73703 13.5749
267 2 8.11805 0.00324679 13.5829
268 2 8.12146 2.72858 10.8739
269 2 6.76466 1.36562 12.2256
270 2 6.77349 4.11101 14.9112
271 2 9.47366 1.36663 14.9368
272 2 9.47204 4.096 12.2245
273 2 10.8305 0.0033867 10.8705
274 2 10.8261 2.72895 13.5786
275 2 13.5431 0.00432829 13.582
276 2 13.5281 2.73756 10.8674
277 2 12.1844 1.36676 12.2262
278 2 12.1807 4.08749 14.9333
279 2 14.9003 1.36317 14.94
280 2 14.8819 4.09392 12.2313
281 2 16.2565 0.00530093 10.8695
282 2 16.2504 2.72714 13.5798
283 2 18.9778 0.00260004 13.5823
284 2 18.978 2.71882 10.8707
285 2 17.6149 1.36394 12.2281
286 2 17.614 4.07843 14.9401
287 2 20.3398 1.36156 14.9385
288 2 20.3397 4.07631 12.2266
289 2 21.7011 5.43416 10.8708
290 2 21.6994 8.14557 13.5829
291 2 2.70949 5.44193 13.5749
292 2 2.70068 8.14895 10.8737
293 2 1.33799 6.79217 12.2257
294 2 1.33877 9.50113 14.9367
295 2 4.08346 6.80091 14.9111
296 2 4.06812 9.4995 12.2242
297 2 5.50005 5.52767 10.8895
298 2 5.46393 8.14546 13.5378
299 2 8.11796 5.4917 13.5381
512 2 20.3379 20.3656 17.6549
302 2 6.81963 9.50818 14.874
303 2 9.48061 6.84749 14.8743
305 2 10.7856 5.49186 10.8705
307 2 13.5066 5.46581 13.5716
308 2 13.5236 8.14972 10.8743
309 2 12.1217 6.84765 12.2332
310 2 12.0922 9.48695 14.8448
311 2 14.8832 6.79826 14.931
312 2 14.8921 9.49957 12.2242
313 2 16.2534 5.43622 10.8716
314 2 16.2547 8.14715 13.5806
315 2 18.9778 5.43256 13.5835
316 2 18.9781 8.14554 10.8703
317 2 17.6171 6.78979 12.2271
318 2 17.6156 9.50196 14.9385
319 2 20.3389 6.78908 14.9401
320 2 20.3383 9.50228 12.227
321 2 21.6992 10.8581 10.8702
322 2 21.7001 13.5707 13.5815
323 2 2.70084 10.8535 13.5782
324 2 2.70928 13.5556 10.8668
325 2 1.33862 12.2119 12.2258
326 2 1.33504 14.9278 14.9395
327 2 4.05938 12.2082 14.9328
328 2 4.06572 14.9094 12.2306
329 2 5.46371 10.8132 10.8701
330 2 5.43758 13.5341 13.5711
332 2 8.12147 13.5515 10.874
333 2 6.81948 12.1494 12.2327
334 2 6.77014 14.9107 14.9304
335 2 9.45893 12.12 14.8445
336 2 9.47141 14.9199 12.2239
338 2 10.8169 13.5426 13.5695
339 2 13.5145 10.8451 13.5696
340 2 13.4918 13.52 10.8887
341 2 12.092 12.1201 12.2114
342 2 12.1761 14.9103 14.9286
343 2 14.8822 12.2042 14.9287
344 2 14.875 14.9031 12.2193
345 2 16.2545 10.8558 10.8717
346 2 16.2488 13.5655 13.5817
347 2 18.9774 10.8589 13.5835
348 2 18.9767 13.5716 10.8705
349 2 17.6154 12.2138 12.2265
350 2 17.6132 14.9264 14.9368
351 2 20.3386 12.2154 14.94
352 2 20.3383 14.9291 12.2264
353 2 21.7012 16.2841 10.869
354 2 21.6988 19.0053 13.5821
355 2 2.69905 16.2778 13.5793
356 2 2.69098 19.0055 10.8703
357 2 1.33593 17.6425 12.2276
358 2 1.3339 20.3673 14.9382
359 2 4.05049 17.6415 14.9395
360 2 4.04859 20.3671 12.2262
361 2 5.40809 16.281 10.8711
362 2 5.40479 19.0053 13.5831
363 2 8.11909 16.2825 13.5802
364 2 8.1177 19.0059 10.8701
365 2 6.76179 17.6447 12.2266
366 2 6.76141 20.3665 14.9398
367 2 9.474 17.6434 14.9382
368 2 9.47453 20.3662 12.2269
369 2 10.8277 16.2826 10.8716
370 2 10.8311 19.0054 13.5835
371 2 13.5374 16.277 13.5817
372 2 13.5437 19.0049 10.8707
373 2 12.1858 17.6435 12.2265
374 2 12.1877 20.3666 14.9402
375 2 14.8985 17.6413 14.9369
376 2 14.9013 20.3664 12.2267
377 2 16.2466 16.2747 10.8749
378 2 16.2587 19.0041 13.5829
379 2 18.976 16.2865 13.5827
380 2 18.9767 19.0046 10.8713
381 2 17.6131 17.6411 12.2244
382 2 17.6189 20.3652 14.9392
383 2 20.3372 17.6466 14.939
384 2 20.3395 20.3673 12.2256
385 2 21.6974 21.7249 16.2966
386 2 21.697 2.71722 19.0128
387 2 2.68979 0.00031387 19.0127
388 2 2.693 2.72035 16.2943
389 2 1.33314 1.36056 17.6532
390 2 1.33247 4.07564 20.3711
391 2 4.0482 1.35987 20.3709
392 2 4.05261 4.07999 17.6479
393 2 5.40502 0.00613667 16.2941
394 2 5.40508 2.71965 19.0098
395 2 8.11689 0.00504487 19.009
396 2 8.11483 2.7373 16.2806
397 2 6.76516 1.36939 17.6461
398 2 6.76311 4.077 20.3684
399 2 9.47545 1.36377 20.3674
400 2 9.47863 4.09371 17.6344
401 2 10.8295 0.00422309 16.2956
402 2 10.8272 2.72701 19.0029
403 2 13.5441 0.00165291 19.0125
404 2 13.5399 2.7253 16.2924
405 2 12.1874 1.3631 17.6528
406 2 12.1874 4.07839 20.3666
407 2 14.9025 1.35974 20.3722
408 2 14.8997 4.07829 17.6523
409 2 16.26 0.00166146 16.2966
410 2 16.2594 2.71914 19.012
411 2 18.9786 21.7243 19.0135
412 2 18.9774 2.71918 16.2959
413 2 17.6196 1.35971 17.6551
414 2 17.6191 4.07565 20.3718
415 2 20.3378 1.35879 20.3721
416 2 20.3393 4.07651 17.6534
417 2 21.7026 5.43247 16.2943
418 2 21.7013 8.14434 19.0089
419 2 2.69218 5.43242 19.0098
420 2 2.70952 8.14219 16.2804
421 2 1.34184 6.79259 17.6462
422 2 1.33593 9.50291 20.3672
423 2 4.04943 6.79052 20.3683
424 2 4.06587 9.50603 17.6341
425 2 5.41177 5.43927 16.2866
426 2 5.40821 8.14647 19.0057
427 2 8.11899 5.43597 19.0059
428 2 8.12171 8.14949 16.2762
429 2 6.76705 6.7946 17.6433
430 2 6.7618 9.502 20.3694
431 2 9.47443 6.78964 20.3696
432 2 9.47159 9.49941 17.6446
433 2 10.819 5.46569 16.2592
434 2 10.8279 8.14706 19.0073
435 2 13.5379 5.43995 19.0017
436 2 13.4921 8.16424 16.2447
437 2 12.1783 6.7982 17.6358
438 2 12.1859 9.50195 20.3681
439 2 14.8989 6.79012 20.3663
440 2 14.8752 9.49487 17.6278
441 2 16.2491 5.43996 16.2906
442 2 16.2467 8.15035 18.9994
443 2 18.9768 5.43377 19.0111
444 2 18.9769 8.14593 16.2963
445 2 17.6137 6.79009 17.6516
446 2 17.6131 9.49973 20.3658
447 2 20.3387 6.78986 20.3702
448 2 20.3384 9.50185 17.6539
449 2 21.7002 10.8569 16.2953
450 2 21.6975 13.5716 19.0121
451 2 2.69897 10.8546 19.0025
452 2 2.69714 13.5673 16.2918
453 2 1.33504 12.2149 17.6524
454 2 1.33164 14.93 20.3716
455 2 4.05033 12.2149 20.366
456 2 4.0502 14.9271 17.6516
457 2 5.43763 10.8465 16.2587
458 2 5.41183 13.5654 19.0012
459 2 8.11904 10.8556 19.0071
460 2 8.13611 13.5198 16.2444
461 2 6.77015 12.2059 17.6353
462 2 6.76202 14.9265 20.3657
463 2 9.47389 12.2137 20.3679
464 2 9.46678 14.903 17.6274
465 2 10.817 10.845 16.2671
466 2 10.8291 13.5654 19.0014
467 2 13.5374 10.8572 19.0015
468 2 13.5387 13.5668 16.2913
469 2 12.1762 12.2042 17.6348
470 2 12.1842 14.9264 20.3657
471 2 14.8984 12.2124 20.3659
472 2 14.8985 14.9266 17.651
473 2 16.2489 10.8572 16.29
474 2 16.2587 13.5721 19.0113
475 2 18.9759 10.8581 19.0111
476 2 18.9756 13.5719 16.2964
477 2 17.6132 12.2123 17.651
478 2 17.6186 14.9299 20.3712
479 2 20.3371 12.2144 20.3713
480 2 20.3368 14.9299 17.6544
481 2 21.6976 16.2875 16.2962
482 2 21.6966 19.0061 19.0133
483 2 2.69116 16.2868 19.0114
484 2 2.69147 19.0048 16.2955
485 2 1.3318 17.647 17.6546
486 2 1.33113 20.3652 20.3719
487 2 4.04772 17.6465 20.3712
488 2 4.04888 20.3667 17.653
489 2 5.41194 16.2766 16.29
490 2 5.40607 19.0043 19.0107
491 2 8.12236 16.2745 18.999
492 2 8.11819 19.0047 16.2961
493 2 6.76217 17.6412 17.6511
494 2 6.76219 20.3662 20.3699