LAMMPS (29 Aug 2024)
Running on 8 partitions of processors
    Step     MaxReplicaForce  MaxAtomForce      GradV0         GradV1         GradVc          EBF            EBR            RDT            RD1            PE1            RD2            PE2            RD3            PE3            RD4            PE4            RD5            PE5            RD6            PE6            RD7            PE7            RD8            PE8       
         0   7.5525391        2.671788       0.16683659     7.5525391      7.5525391      1.5383951      0              1.6207355      0              -2213.3343     0.14285714     -2213.1848     0.28571429     -2212.8577     0.42857143     -2212.5353     0.57142857     -2212.3131     0.71428571     -2212.192      0.85714286     -2212.0797     1              -2211.7959     
        10   0.45237221       0.0038899054   0.043713415    0.45237221     0.33984237     0.50434364     0.47974444     1.681593       0              -2213.3362     0.145972       -2213.2393     0.28963267     -2213.0224     0.43234899     -2212.8512     0.57436617     -2212.8319     0.71564291     -2212.9699     0.85294239     -2213.1766     1              -2213.3116     
        20   0.17466055       0.00038449492  0.027733064    0.16054263     0.29142661     0.49877454     0.49547267     1.7524163      0              -2213.3369     0.14387205     -2213.2456     0.28439667     -2213.0291     0.42233932     -2212.8573     0.5588361      -2212.8381     0.69513708     -2212.9781     0.83702043     -2213.2011     1              -2213.3336     
        30   0.045422642      0.00010721083  0.01818213     0.045422642    0.28112975     0.49759387     0.49675173     1.7746784      0              -2213.3371     0.14290957     -2213.2488     0.28281709     -2213.0326     0.41989281     -2212.859      0.55582211     -2212.8395     0.69368801     -2212.9853     0.83973606     -2213.2161     1              -2213.3363     
        40   0.038021578      6.0627173e-05  0.013142053    0.027303941    0.28657705     0.49667648     0.49635337     1.7848045      0              -2213.3372     0.1420496      -2213.2509     0.28169834     -2213.0351     0.41895631     -2212.8598     0.55576002     -2212.8406     0.69554601     -2212.9918     0.84293215     -2213.2247     1              -2213.3369     
        50   0.023478387      2.5440651e-05  0.0094370881   0.017117841    0.2948129      0.4956627      0.49552819     1.7913648      0              -2213.3373     0.14130551     -2213.2524     0.28080367     -2213.0371     0.41862494     -2212.8601     0.55666336     -2212.8417     0.69796419     -2212.9977     0.84561062     -2213.2308     1              -2213.3372     
        60   0.015568348      1.3385057e-05  0.0065356733   0.010880239    0.30476692     0.49454143     0.49448589     1.7961707      0              -2213.3374     0.14069048     -2213.2537     0.28018046     -2213.0385     0.41875119     -2212.86       0.55806463     -2212.8428     0.70047903     -2213.0032     0.84789117     -2213.2356     1              -2213.3373     
        70   0.011117036      8.5894153e-06  0.0046665956   0.0074340437   0.31343723     0.4935777      0.49355166     1.7991441      0              -2213.3374     0.14033265     -2213.2544     0.27992696     -2213.0392     0.41915513     -2212.8596     0.55940642     -2212.8438     0.7024513      -2213.0073     0.8494878      -2213.2387     1              -2213.3373     
        77   0.0095033287     6.4872744e-06  0.0037788276   0.005913135    0.31843183     0.49301962     0.49300316     1.8005356      0              -2213.3374     0.14019726     -2213.2547     0.27989276     -2213.0394     0.41949002     -2212.8594     0.56021115     -2212.8444     0.70351826     -2213.0094     0.85030232     -2213.2402     1              -2213.3374     
Climbing replica = 5
    Step     MaxReplicaForce  MaxAtomForce      GradV0         GradV1         GradVc          EBF            EBR            RDT            RD1            PE1            RD2            PE2            RD3            PE3            RD4            PE4            RD5            PE5            RD6            PE6            RD7            PE7            RD8            PE8       
        77   0.31843183       0.01653302     0.0037788276   0.005913135    0.31843183     0.49301962     0.49300316     1.8005356      0              -2213.3374     0.14019726     -2213.2547     0.27989276     -2213.0394     0.41949002     -2212.8594     0.56021115     -2212.8444     0.70351826     -2213.0094     0.85030232     -2213.2402     1              -2213.3374     
        87   0.068529555      0.00041699911  0.002590953    0.0039659169   0.024996093    0.51001426     0.5100069      1.8017659      0              -2213.3374     0.13988524     -2213.2554     0.27815902     -2213.0427     0.4060326      -2212.8709     0.50551629     -2212.8274     0.6911238      -2212.99       0.84991819     -2213.2398     1              -2213.3374     
        97   0.031490285      0.0001528874   0.0020336512   0.00308425     0.0070144328   0.51009652     0.51009209     1.8020354      0              -2213.3374     0.13898635     -2213.2569     0.27382175     -2213.0504     0.39686178     -2212.8798     0.5025623      -2212.8273     0.68247186     -2212.9764     0.84621835     -2213.2346     1              -2213.3374     
       107   0.037646478      4.6372764e-05  0.0013123215   0.0019658462   0.0025653603   0.51009809     0.51009631     1.8029736      0              -2213.3374     0.13585015     -2213.2612     0.2664876      -2213.0634     0.38821574     -2212.8891     0.50194793     -2212.8273     0.67450972     -2212.9641     0.84030131     -2213.2263     1              -2213.3374     
       117   0.018200813      2.6931705e-05  0.0010401741   0.0015504522   0.0018896277   0.51009689     0.51009578     1.803439       0              -2213.3374     0.1340824      -2213.2636     0.26347378     -2213.0688     0.38564813     -2212.892      0.50202897     -2212.8273     0.67237444     -2212.9609     0.83829736     -2213.2234     1              -2213.3374     
       127   0.01036308       1.7051341e-05  0.00080330087  0.0011917547   0.001485128    0.51009601     0.51009536     1.8038923      0              -2213.3374     0.13236122     -2213.2658     0.26080157     -2213.0735     0.38358415     -2212.8944     0.50213061     -2212.8273     0.67085369     -2212.9586     0.83679325     -2213.2213     1              -2213.3374     
       132   0.0092016464     1.2269525e-05  0.00067413555  0.00099730948  0.0012645232   0.51009561     0.51009516     1.8041564      0              -2213.3374     0.13136592     -2213.267      0.25932739     -2213.0761     0.3825016      -2212.8957     0.50219027     -2212.8273     0.67015509     -2212.9575     0.83608501     -2213.2202     1              -2213.3374     
