LAMMPS (29 Aug 2024)
Processor partition = 4
# NEB simulation of vacancy hopping in silicon crystal

units           metal

atom_style      atomic
atom_modify     map array
boundary        p p p
atom_modify     sort 0 0.0

# coordination number cutoff

variable r equal 2.835

# diamond unit cell

variable a equal 5.431
lattice         custom $a                               a1 1.0 0.0 0.0                          a2 0.0 1.0 0.0                          a3 0.0 0.0 1.0                          basis 0.0 0.0 0.0                       basis 0.0 0.5 0.5                       basis 0.5 0.0 0.5                       basis 0.5 0.5 0.0                       basis 0.25 0.25 0.25                    basis 0.25 0.75 0.75                    basis 0.75 0.25 0.75                    basis 0.75 0.75 0.25
lattice         custom 5.431                               a1 1.0 0.0 0.0                          a2 0.0 1.0 0.0                          a3 0.0 0.0 1.0                          basis 0.0 0.0 0.0                       basis 0.0 0.5 0.5                       basis 0.5 0.0 0.5                       basis 0.5 0.5 0.0                       basis 0.25 0.25 0.25                    basis 0.25 0.75 0.75                    basis 0.75 0.25 0.75                    basis 0.75 0.75 0.25
Lattice spacing in x,y,z = 5.431 5.431 5.431

region          myreg block     0 4                                 0 4                                 0 4

#create_box      1 myreg
#create_atoms    1 region myreg
#mass            1       28.06
#write_data      initial.sivac

read_data       initial.sivac
Reading data file ...
  orthogonal box = (0 0 0) to (21.724 21.724 21.724)
  1 by 1 by 1 MPI processor grid
  reading atoms ...
  512 atoms
  reading velocities ...
  512 velocities
  read_data CPU = 0.006 seconds

# make a vacancy

group Si type 1
512 atoms in group Si

group del id 300
1 atoms in group del
delete_atoms group del compress no
Deleted 1 atoms, new total = 511
group vacneigh id 174 175 301 304 306 331 337
7 atoms in group vacneigh
group background subtract all vacneigh
504 atoms in group background
set group background type 2
Setting atom values ...
  504 settings made for type

# choose potential

pair_style      sw
pair_coeff * * Si.sw Si Si
Reading sw potential file Si.sw with DATE: 2007-06-11

# set up neb run

variable        u uloop 20

# initial minimization to relax vacancy

displace_atoms all random 0.1 0.1 0.1 123456
Displacing atoms ...
minimize        1.0e-6 1.0e-4 1000 10000

CITE-CITE-CITE-CITE-CITE-CITE-CITE-CITE-CITE-CITE-CITE-CITE-CITE

Your simulation uses code contributions which should be cited:

- Type Label Framework: https://doi.org/10.1021/acs.jpcb.3c08419

@Article{Gissinger24,
 author = {Jacob R. Gissinger, Ilia Nikiforov, Yaser Afshar, Brendon Waters, Moon-ki Choi, Daniel S. Karls, Alexander Stukowski, Wonpil Im, Hendrik Heinz, Axel Kohlmeyer, and Ellad B. Tadmor},
 title = {Type Label Framework for Bonded Force Fields in LAMMPS},
 journal = {J. Phys. Chem. B},
 year =    2024,
 volume =  128,
 number =  13,
 pages =   {3282–-3297}
}

CITE-CITE-CITE-CITE-CITE-CITE-CITE-CITE-CITE-CITE-CITE-CITE-CITE

Neighbor list info ...
  update: every = 1 steps, delay = 0 steps, check = yes
  max neighbors/atom: 2000, page size: 100000
  master list distance cutoff = 5.77118
  ghost atom cutoff = 5.77118
  binsize = 2.88559, bins = 8 8 8
  1 neighbor lists, perpetual/occasional/extra = 1 0 0
  (1) pair sw, perpetual
      attributes: full, newton on
      pair build: full/bin/atomonly
      stencil: full/bin/3d
      bin: standard
Per MPI rank memory allocation (min/avg/max) = 4.122 | 4.122 | 4.122 Mbytes
   Step          Temp          E_pair         E_mol          TotEng         Press     
         0   0             -593.40319      0             -593.40319      355294.02    
        33   0             -2213.3343      0             -2213.3343     -3383.2606    
Loop time of 0.0259617 on 1 procs for 33 steps with 511 atoms

85.5% CPU use with 1 MPI tasks x no OpenMP threads

Minimization stats:
  Stopping criterion = energy tolerance
  Energy initial, next-to-last, final = 
     -593.403188091472  -2213.33209897182  -2213.33426537417
  Force two-norm initial, final = 1101.8254 0.16683659
  Force max component initial, final = 334.49264 0.014961353
  Final line search alpha, max atom move = 1 0.014961353
  Iterations, force evaluations = 33 44

MPI task timing breakdown:
Section |  min time  |  avg time  |  max time  |%varavg| %total
---------------------------------------------------------------
Pair    | 0.023587   | 0.023587   | 0.023587   |   0.0 | 90.85
Neigh   | 0.0015658  | 0.0015658  | 0.0015658  |   0.0 |  6.03
Comm    | 0.00026417 | 0.00026417 | 0.00026417 |   0.0 |  1.02
Output  | 0          | 0          | 0          |   0.0 |  0.00
Modify  | 0          | 0          | 0          |   0.0 |  0.00
Other   |            | 0.0005451  |            |       |  2.10

Nlocal:            511 ave         511 max         511 min
Histogram: 1 0 0 0 0 0 0 0 0 0
Nghost:           1451 ave        1451 max        1451 min
Histogram: 1 0 0 0 0 0 0 0 0 0
Neighs:              0 ave           0 max           0 min
Histogram: 1 0 0 0 0 0 0 0 0 0
FullNghs:        17378 ave       17378 max       17378 min
Histogram: 1 0 0 0 0 0 0 0 0 0

Total # of neighbors = 17378
Ave neighs/atom = 34.007828
Neighbor list builds = 1
Dangerous builds = 0

reset_timestep  0

# only output atoms near vacancy

dump events vacneigh custom 1000 dump.neb.sivac.$u id type x y z
dump events vacneigh custom 1000 dump.neb.sivac.5 id type x y z
dump bckgrnd background custom 1000 dump.background.sivac.$u id type x y z
dump bckgrnd background custom 1000 dump.background.sivac.5 id type x y z


fix             1 all neb 1.0

thermo          100

# run NEB for 2000 steps or to force tolerance

timestep        0.01
min_style       quickmin

neb             0.0 0.01 100 100 10 final final.sivac
Per MPI rank memory allocation (min/avg/max) = 2.997 | 2.997 | 2.997 Mbytes
   Step          Temp          E_pair         E_mol          TotEng         Press     
         0   0             -2212.3131      0             -2212.3131     -3533.0716    
        77   3.7899686e-05 -2212.8444      0             -2212.8444     -3527.0499    
Loop time of 0.121783 on 1 procs for 77 steps with 511 atoms

89.4% CPU use with 1 MPI tasks x no OpenMP threads

Minimization stats:
  Stopping criterion = force tolerance
  Energy initial, next-to-last, final = 
     -2212.31311460381  -2212.84433609282  -2212.84435724123
  Force two-norm initial, final = 4.1553521 0.0085141731
  Force max component initial, final = 0.80675401 0.0019754416
  Final line search alpha, max atom move = 0 0
  Iterations, force evaluations = 77 77

MPI task timing breakdown:
Section |  min time  |  avg time  |  max time  |%varavg| %total
---------------------------------------------------------------
Pair    | 0.037748   | 0.037748   | 0.037748   |   0.0 | 31.00
Neigh   | 0          | 0          | 0          |   0.0 |  0.00
Comm    | 0.00071229 | 0.00071229 | 0.00071229 |   0.0 |  0.58
Output  | 0          | 0          | 0          |   0.0 |  0.00
Modify  | 0.051052   | 0.051052   | 0.051052   |   0.0 | 41.92
Other   |            | 0.03227    |            |       | 26.50

Nlocal:            511 ave         511 max         511 min
Histogram: 1 0 0 0 0 0 0 0 0 0
Nghost:           1451 ave        1451 max        1451 min
Histogram: 1 0 0 0 0 0 0 0 0 0
Neighs:              0 ave           0 max           0 min
Histogram: 1 0 0 0 0 0 0 0 0 0
FullNghs:        17376 ave       17376 max       17376 min
Histogram: 1 0 0 0 0 0 0 0 0 0

Total # of neighbors = 17376
Ave neighs/atom = 34.003914
Neighbor list builds = 0
Dangerous builds = 0
Per MPI rank memory allocation (min/avg/max) = 5.517 | 5.517 | 5.517 Mbytes
   Step          Temp          E_pair         E_mol          TotEng         Press     
        77   0             -2212.8444      0             -2212.8444     -3527.0501    
       100   1.8332266e-05 -2212.8273      0             -2212.8273     -3539.0216    
       132   1.896087e-06  -2212.8273      0             -2212.8273     -3538.6084    
Loop time of 0.0672821 on 1 procs for 55 steps with 511 atoms

86.9% CPU use with 1 MPI tasks x no OpenMP threads

Minimization stats:
  Stopping criterion = force tolerance
  Energy initial, next-to-last, final = 
     -2212.84435724123   -2212.8272930395  -2212.82729310125
  Force two-norm initial, final = 0.31843183 0.0012645232
  Force max component initial, final = 0.12858079 0.00013148878
  Final line search alpha, max atom move = 0 0
  Iterations, force evaluations = 55 55

MPI task timing breakdown:
Section |  min time  |  avg time  |  max time  |%varavg| %total
---------------------------------------------------------------
Pair    | 0.026463   | 0.026463   | 0.026463   |   0.0 | 39.33
Neigh   | 0          | 0          | 0          |   0.0 |  0.00
Comm    | 0.00047395 | 0.00047395 | 0.00047395 |   0.0 |  0.70
Output  | 1.1916e-05 | 1.1916e-05 | 1.1916e-05 |   0.0 |  0.02
Modify  | 0.023337   | 0.023337   | 0.023337   |   0.0 | 34.69
Other   |            | 0.017      |            |       | 25.26

Nlocal:            511 ave         511 max         511 min
Histogram: 1 0 0 0 0 0 0 0 0 0
Nghost:           1451 ave        1451 max        1451 min
Histogram: 1 0 0 0 0 0 0 0 0 0
Neighs:              0 ave           0 max           0 min
Histogram: 1 0 0 0 0 0 0 0 0 0
FullNghs:        17376 ave       17376 max       17376 min
Histogram: 1 0 0 0 0 0 0 0 0 0

Total # of neighbors = 17376
Ave neighs/atom = 34.003914
Neighbor list builds = 0
Dangerous builds = 0
Total wall time: 0:00:00
