LAMMPS (29 Aug 2024)
Processor partition = 2
Lattice spacing in x,y,z = 5.431 5.431 5.431
Reading data file ...
  orthogonal box = (0 0 0) to (21.724 21.724 21.724)
  1 by 1 by 1 MPI processor grid
  reading atoms ...
  512 atoms
  reading velocities ...
  512 velocities
  read_data CPU = 0.007 seconds
512 atoms in group Si
1 atoms in group del
Deleted 1 atoms, new total = 511
7 atoms in group vacneigh
504 atoms in group background
Setting atom values ...
  504 settings made for type
Reading sw potential file Si.sw with DATE: 2007-06-11
Displacing atoms ...

CITE-CITE-CITE-CITE-CITE-CITE-CITE-CITE-CITE-CITE-CITE-CITE-CITE

Your simulation uses code contributions which should be cited:
- Type Label Framework: https://doi.org/10.1021/acs.jpcb.3c08419
The log file lists these citations in BibTeX format.

CITE-CITE-CITE-CITE-CITE-CITE-CITE-CITE-CITE-CITE-CITE-CITE-CITE

Neighbor list info ...
  update: every = 1 steps, delay = 0 steps, check = yes
  max neighbors/atom: 2000, page size: 100000
  master list distance cutoff = 5.77118
  ghost atom cutoff = 5.77118
  binsize = 2.88559, bins = 8 8 8
  1 neighbor lists, perpetual/occasional/extra = 1 0 0
  (1) pair sw, perpetual
      attributes: full, newton on
      pair build: full/bin/atomonly
      stencil: full/bin/3d
      bin: standard
Setting up cg style minimization ...
  Unit style    : metal
  Current step  : 0
Per MPI rank memory allocation (min/avg/max) = 4.122 | 4.122 | 4.122 Mbytes
   Step          Temp          E_pair         E_mol          TotEng         Press     
         0   0             -593.40319      0             -593.40319      355294.02    
        33   0             -2213.3343      0             -2213.3343     -3383.2606    
Loop time of 0.0208165 on 1 procs for 33 steps with 511 atoms

91.9% CPU use with 1 MPI tasks x no OpenMP threads

Minimization stats:
  Stopping criterion = energy tolerance
  Energy initial, next-to-last, final = 
     -593.403188091472  -2213.33209897182  -2213.33426537417
  Force two-norm initial, final = 1101.8254 0.16683659
  Force max component initial, final = 334.49264 0.014961353
  Final line search alpha, max atom move = 1 0.014961353
  Iterations, force evaluations = 33 44

MPI task timing breakdown:
Section |  min time  |  avg time  |  max time  |%varavg| %total
---------------------------------------------------------------
Pair    | 0.01844    | 0.01844    | 0.01844    |   0.0 | 88.58
Neigh   | 0.0011891  | 0.0011891  | 0.0011891  |   0.0 |  5.71
Comm    | 0.00019355 | 0.00019355 | 0.00019355 |   0.0 |  0.93
Output  | 0          | 0          | 0          |   0.0 |  0.00
Modify  | 0          | 0          | 0          |   0.0 |  0.00
Other   |            | 0.0009937  |            |       |  4.77

Nlocal:            511 ave         511 max         511 min
Histogram: 1 0 0 0 0 0 0 0 0 0
Nghost:           1451 ave        1451 max        1451 min
Histogram: 1 0 0 0 0 0 0 0 0 0
Neighs:              0 ave           0 max           0 min
Histogram: 1 0 0 0 0 0 0 0 0 0
FullNghs:        17378 ave       17378 max       17378 min
Histogram: 1 0 0 0 0 0 0 0 0 0

Total # of neighbors = 17378
Ave neighs/atom = 34.007828
Neighbor list builds = 1
Dangerous builds = 0
Setting up quickmin style minimization ...
  Unit style    : metal
  Current step  : 0
Per MPI rank memory allocation (min/avg/max) = 2.997 | 2.997 | 2.997 Mbytes
   Step          Temp          E_pair         E_mol          TotEng         Press     
         0   0             -2212.8577      0             -2212.8577     -3481.3072    
        77   9.0560395e-05 -2213.0394      0             -2213.0394     -3413.356     
Loop time of 0.121785 on 1 procs for 77 steps with 511 atoms

86.7% CPU use with 1 MPI tasks x no OpenMP threads

Minimization stats:
  Stopping criterion = force tolerance
  Energy initial, next-to-last, final = 
     -2212.85767021219  -2213.03936590808  -2213.03937033412
  Force two-norm initial, final = 2.2515297 0.0086299979
  Force max component initial, final = 0.53966603 0.00087828628
  Final line search alpha, max atom move = 0 0
  Iterations, force evaluations = 77 77

MPI task timing breakdown:
Section |  min time  |  avg time  |  max time  |%varavg| %total
---------------------------------------------------------------
Pair    | 0.029721   | 0.029721   | 0.029721   |   0.0 | 24.40
Neigh   | 0          | 0          | 0          |   0.0 |  0.00
Comm    | 0.00054758 | 0.00054758 | 0.00054758 |   0.0 |  0.45
Output  | 0          | 0          | 0          |   0.0 |  0.00
Modify  | 0.061473   | 0.061473   | 0.061473   |   0.0 | 50.48
Other   |            | 0.03004    |            |       | 24.67

Nlocal:            511 ave         511 max         511 min
Histogram: 1 0 0 0 0 0 0 0 0 0
Nghost:           1451 ave        1451 max        1451 min
Histogram: 1 0 0 0 0 0 0 0 0 0
Neighs:              0 ave           0 max           0 min
Histogram: 1 0 0 0 0 0 0 0 0 0
FullNghs:        17376 ave       17376 max       17376 min
Histogram: 1 0 0 0 0 0 0 0 0 0

Total # of neighbors = 17376
Ave neighs/atom = 34.003914
Neighbor list builds = 0
Dangerous builds = 0
Setting up quickmin style minimization ...
  Unit style    : metal
  Current step  : 77
Per MPI rank memory allocation (min/avg/max) = 5.517 | 5.517 | 5.517 Mbytes
   Step          Temp          E_pair         E_mol          TotEng         Press     
        77   0             -2213.0394      0             -2213.0394     -3413.3566    
       100   0.00097801632 -2213.0535      0             -2213.0535     -3407.7306    
       132   0.00012594158 -2213.0761      0             -2213.0761     -3401.1358    
Loop time of 0.0672772 on 1 procs for 55 steps with 511 atoms

85.7% CPU use with 1 MPI tasks x no OpenMP threads

Minimization stats:
  Stopping criterion = force tolerance
  Energy initial, next-to-last, final = 
     -2213.03937033412  -2213.07581700829  -2213.07612291658
  Force two-norm initial, final = 0.0086299979 0.0092016464
  Force max component initial, final = 0.00087828628 0.0035027881
  Final line search alpha, max atom move = 0 0
  Iterations, force evaluations = 55 55

MPI task timing breakdown:
Section |  min time  |  avg time  |  max time  |%varavg| %total
---------------------------------------------------------------
Pair    | 0.027793   | 0.027793   | 0.027793   |   0.0 | 41.31
Neigh   | 0          | 0          | 0          |   0.0 |  0.00
Comm    | 0.0015095  | 0.0015095  | 0.0015095  |   0.0 |  2.24
Output  | 1.1875e-05 | 1.1875e-05 | 1.1875e-05 |   0.0 |  0.02
Modify  | 0.020256   | 0.020256   | 0.020256   |   0.0 | 30.11
Other   |            | 0.01771    |            |       | 26.32

Nlocal:            511 ave         511 max         511 min
Histogram: 1 0 0 0 0 0 0 0 0 0
Nghost:           1451 ave        1451 max        1451 min
Histogram: 1 0 0 0 0 0 0 0 0 0
Neighs:              0 ave           0 max           0 min
Histogram: 1 0 0 0 0 0 0 0 0 0
FullNghs:        17370 ave       17370 max       17370 min
Histogram: 1 0 0 0 0 0 0 0 0 0

Total # of neighbors = 17370
Ave neighs/atom = 33.992172
Neighbor list builds = 0
Dangerous builds = 0
Total wall time: 0:00:00
