LAMMPS (29 Aug 2024)
Processor partition = 6
Lattice spacing in x,y,z = 5.431 5.431 5.431
Reading data file ...
  orthogonal box = (0 0 0) to (21.724 21.724 21.724)
  1 by 1 by 1 MPI processor grid
  reading atoms ...
  512 atoms
  reading velocities ...
  512 velocities
  read_data CPU = 0.006 seconds
512 atoms in group Si
1 atoms in group del
Deleted 1 atoms, new total = 511
7 atoms in group vacneigh
504 atoms in group background
Setting atom values ...
  504 settings made for type
Reading sw potential file Si.sw with DATE: 2007-06-11
Displacing atoms ...

CITE-CITE-CITE-CITE-CITE-CITE-CITE-CITE-CITE-CITE-CITE-CITE-CITE

Your simulation uses code contributions which should be cited:
- Type Label Framework: https://doi.org/10.1021/acs.jpcb.3c08419
The log file lists these citations in BibTeX format.

CITE-CITE-CITE-CITE-CITE-CITE-CITE-CITE-CITE-CITE-CITE-CITE-CITE

Neighbor list info ...
  update: every = 1 steps, delay = 0 steps, check = yes
  max neighbors/atom: 2000, page size: 100000
  master list distance cutoff = 5.77118
  ghost atom cutoff = 5.77118
  binsize = 2.88559, bins = 8 8 8
  1 neighbor lists, perpetual/occasional/extra = 1 0 0
  (1) pair sw, perpetual
      attributes: full, newton on
      pair build: full/bin/atomonly
      stencil: full/bin/3d
      bin: standard
Setting up cg style minimization ...
  Unit style    : metal
  Current step  : 0
Per MPI rank memory allocation (min/avg/max) = 4.122 | 4.122 | 4.122 Mbytes
   Step          Temp          E_pair         E_mol          TotEng         Press     
         0   0             -593.40319      0             -593.40319      355294.02    
        33   0             -2213.3343      0             -2213.3343     -3383.2606    
Loop time of 0.0289688 on 1 procs for 33 steps with 511 atoms

84.1% CPU use with 1 MPI tasks x no OpenMP threads

Minimization stats:
  Stopping criterion = energy tolerance
  Energy initial, next-to-last, final = 
     -593.403188091472  -2213.33209897182  -2213.33426537417
  Force two-norm initial, final = 1101.8254 0.16683659
  Force max component initial, final = 334.49264 0.014961353
  Final line search alpha, max atom move = 1 0.014961353
  Iterations, force evaluations = 33 44

MPI task timing breakdown:
Section |  min time  |  avg time  |  max time  |%varavg| %total
---------------------------------------------------------------
Pair    | 0.027561   | 0.027561   | 0.027561   |   0.0 | 95.14
Neigh   | 0.00063575 | 0.00063575 | 0.00063575 |   0.0 |  2.19
Comm    | 0.00023796 | 0.00023796 | 0.00023796 |   0.0 |  0.82
Output  | 0          | 0          | 0          |   0.0 |  0.00
Modify  | 0          | 0          | 0          |   0.0 |  0.00
Other   |            | 0.000534   |            |       |  1.84

Nlocal:            511 ave         511 max         511 min
Histogram: 1 0 0 0 0 0 0 0 0 0
Nghost:           1451 ave        1451 max        1451 min
Histogram: 1 0 0 0 0 0 0 0 0 0
Neighs:              0 ave           0 max           0 min
Histogram: 1 0 0 0 0 0 0 0 0 0
FullNghs:        17378 ave       17378 max       17378 min
Histogram: 1 0 0 0 0 0 0 0 0 0

Total # of neighbors = 17378
Ave neighs/atom = 34.007828
Neighbor list builds = 1
Dangerous builds = 0
Setting up quickmin style minimization ...
  Unit style    : metal
  Current step  : 0
Per MPI rank memory allocation (min/avg/max) = 2.997 | 2.997 | 2.997 Mbytes
   Step          Temp          E_pair         E_mol          TotEng         Press     
         0   0             -2212.0797      0             -2212.0797     -3254.2813    
        77   7.5983411e-05 -2213.2402      0             -2213.2402     -3384.3826    
Loop time of 0.121785 on 1 procs for 77 steps with 511 atoms

77.8% CPU use with 1 MPI tasks x no OpenMP threads

Minimization stats:
  Stopping criterion = force tolerance
  Energy initial, next-to-last, final = 
     -2212.07966773361  -2213.24013530007  -2213.24018938924
  Force two-norm initial, final = 6.1403435 0.0093857761
  Force max component initial, final = 1.3135734 0.0022916296
  Final line search alpha, max atom move = 0 0
  Iterations, force evaluations = 77 77

MPI task timing breakdown:
Section |  min time  |  avg time  |  max time  |%varavg| %total
---------------------------------------------------------------
Pair    | 0.032521   | 0.032521   | 0.032521   |   0.0 | 26.70
Neigh   | 0          | 0          | 0          |   0.0 |  0.00
Comm    | 0.00057596 | 0.00057596 | 0.00057596 |   0.0 |  0.47
Output  | 0          | 0          | 0          |   0.0 |  0.00
Modify  | 0.043498   | 0.043498   | 0.043498   |   0.0 | 35.72
Other   |            | 0.04519    |            |       | 37.11

Nlocal:            511 ave         511 max         511 min
Histogram: 1 0 0 0 0 0 0 0 0 0
Nghost:           1451 ave        1451 max        1451 min
Histogram: 1 0 0 0 0 0 0 0 0 0
Neighs:              0 ave           0 max           0 min
Histogram: 1 0 0 0 0 0 0 0 0 0
FullNghs:        17370 ave       17370 max       17370 min
Histogram: 1 0 0 0 0 0 0 0 0 0

Total # of neighbors = 17370
Ave neighs/atom = 33.992172
Neighbor list builds = 0
Dangerous builds = 0
Setting up quickmin style minimization ...
  Unit style    : metal
  Current step  : 77
Per MPI rank memory allocation (min/avg/max) = 5.517 | 5.517 | 5.517 Mbytes
   Step          Temp          E_pair         E_mol          TotEng         Press     
        77   0             -2213.2402      0             -2213.2402     -3384.3832    
       100   0.00032098278 -2213.2325      0             -2213.2325     -3384.4869    
       132   1.9823585e-05 -2213.2202      0             -2213.2202     -3384.6428    
Loop time of 0.0672772 on 1 procs for 55 steps with 511 atoms

88.8% CPU use with 1 MPI tasks x no OpenMP threads

Minimization stats:
  Stopping criterion = force tolerance
  Energy initial, next-to-last, final = 
     -2213.24018938924    -2213.220350897  -2213.22024072573
  Force two-norm initial, final = 0.0093857761 0.0039305305
  Force max component initial, final = 0.0022916296 0.0014860898
  Final line search alpha, max atom move = 0 0
  Iterations, force evaluations = 55 55

MPI task timing breakdown:
Section |  min time  |  avg time  |  max time  |%varavg| %total
---------------------------------------------------------------
Pair    | 0.026871   | 0.026871   | 0.026871   |   0.0 | 39.94
Neigh   | 0          | 0          | 0          |   0.0 |  0.00
Comm    | 0.00048451 | 0.00048451 | 0.00048451 |   0.0 |  0.72
Output  | 1.3834e-05 | 1.3834e-05 | 1.3834e-05 |   0.0 |  0.02
Modify  | 0.021752   | 0.021752   | 0.021752   |   0.0 | 32.33
Other   |            | 0.01816    |            |       | 26.99

Nlocal:            511 ave         511 max         511 min
Histogram: 1 0 0 0 0 0 0 0 0 0
Nghost:           1451 ave        1451 max        1451 min
Histogram: 1 0 0 0 0 0 0 0 0 0
Neighs:              0 ave           0 max           0 min
Histogram: 1 0 0 0 0 0 0 0 0 0
FullNghs:        17370 ave       17370 max       17370 min
Histogram: 1 0 0 0 0 0 0 0 0 0

Total # of neighbors = 17370
Ave neighs/atom = 33.992172
Neighbor list builds = 0
Dangerous builds = 0
Total wall time: 0:00:00
