LAMMPS (29 Aug 2024)
Processor partition = 3
Lattice spacing in x,y,z = 5.431 5.431 5.431
Reading data file ...
  orthogonal box = (0 0 0) to (21.724 21.724 21.724)
  1 by 1 by 1 MPI processor grid
  reading atoms ...
  512 atoms
  reading velocities ...
  512 velocities
  read_data CPU = 0.007 seconds
512 atoms in group Si
1 atoms in group del
Deleted 1 atoms, new total = 511
7 atoms in group vacneigh
504 atoms in group background
Setting atom values ...
  504 settings made for type
Reading sw potential file Si.sw with DATE: 2007-06-11
Displacing atoms ...

CITE-CITE-CITE-CITE-CITE-CITE-CITE-CITE-CITE-CITE-CITE-CITE-CITE

Your simulation uses code contributions which should be cited:
- Type Label Framework: https://doi.org/10.1021/acs.jpcb.3c08419
The log file lists these citations in BibTeX format.

CITE-CITE-CITE-CITE-CITE-CITE-CITE-CITE-CITE-CITE-CITE-CITE-CITE

Neighbor list info ...
  update: every = 1 steps, delay = 0 steps, check = yes
  max neighbors/atom: 2000, page size: 100000
  master list distance cutoff = 5.77118
  ghost atom cutoff = 5.77118
  binsize = 2.88559, bins = 8 8 8
  1 neighbor lists, perpetual/occasional/extra = 1 0 0
  (1) pair sw, perpetual
      attributes: full, newton on
      pair build: full/bin/atomonly
      stencil: full/bin/3d
      bin: standard
Setting up cg style minimization ...
  Unit style    : metal
  Current step  : 0
Per MPI rank memory allocation (min/avg/max) = 4.122 | 4.122 | 4.122 Mbytes
   Step          Temp          E_pair         E_mol          TotEng         Press     
         0   0             -593.40319      0             -593.40319      355294.02    
        33   0             -2213.3343      0             -2213.3343     -3383.2606    
Loop time of 0.0323656 on 1 procs for 33 steps with 511 atoms

93.2% CPU use with 1 MPI tasks x no OpenMP threads

Minimization stats:
  Stopping criterion = energy tolerance
  Energy initial, next-to-last, final = 
     -593.403188091472  -2213.33209897182  -2213.33426537417
  Force two-norm initial, final = 1101.8254 0.16683659
  Force max component initial, final = 334.49264 0.014961353
  Final line search alpha, max atom move = 1 0.014961353
  Iterations, force evaluations = 33 44

MPI task timing breakdown:
Section |  min time  |  avg time  |  max time  |%varavg| %total
---------------------------------------------------------------
Pair    | 0.03079    | 0.03079    | 0.03079    |   0.0 | 95.13
Neigh   | 0.00063358 | 0.00063358 | 0.00063358 |   0.0 |  1.96
Comm    | 0.00033266 | 0.00033266 | 0.00033266 |   0.0 |  1.03
Output  | 0          | 0          | 0          |   0.0 |  0.00
Modify  | 0          | 0          | 0          |   0.0 |  0.00
Other   |            | 0.0006091  |            |       |  1.88

Nlocal:            511 ave         511 max         511 min
Histogram: 1 0 0 0 0 0 0 0 0 0
Nghost:           1451 ave        1451 max        1451 min
Histogram: 1 0 0 0 0 0 0 0 0 0
Neighs:              0 ave           0 max           0 min
Histogram: 1 0 0 0 0 0 0 0 0 0
FullNghs:        17378 ave       17378 max       17378 min
Histogram: 1 0 0 0 0 0 0 0 0 0

Total # of neighbors = 17378
Ave neighs/atom = 34.007828
Neighbor list builds = 1
Dangerous builds = 0
Setting up quickmin style minimization ...
  Unit style    : metal
  Current step  : 0
Per MPI rank memory allocation (min/avg/max) = 2.997 | 2.997 | 2.997 Mbytes
   Step          Temp          E_pair         E_mol          TotEng         Press     
         0   0             -2212.5353      0             -2212.5353     -3557.3829    
        77   2.9080672e-05 -2212.8594      0             -2212.8594     -3515.7376    
Loop time of 0.121784 on 1 procs for 77 steps with 511 atoms

89.8% CPU use with 1 MPI tasks x no OpenMP threads

Minimization stats:
  Stopping criterion = force tolerance
  Energy initial, next-to-last, final = 
     -2212.53530612094   -2212.8593767234  -2212.85936545491
  Force two-norm initial, final = 3.2004167 0.0073828064
  Force max component initial, final = 0.63254459 0.0010321458
  Final line search alpha, max atom move = 0 0
  Iterations, force evaluations = 77 77

MPI task timing breakdown:
Section |  min time  |  avg time  |  max time  |%varavg| %total
---------------------------------------------------------------
Pair    | 0.038027   | 0.038027   | 0.038027   |   0.0 | 31.22
Neigh   | 0          | 0          | 0          |   0.0 |  0.00
Comm    | 0.00064867 | 0.00064867 | 0.00064867 |   0.0 |  0.53
Output  | 0          | 0          | 0          |   0.0 |  0.00
Modify  | 0.054044   | 0.054044   | 0.054044   |   0.0 | 44.38
Other   |            | 0.02906    |            |       | 23.87

Nlocal:            511 ave         511 max         511 min
Histogram: 1 0 0 0 0 0 0 0 0 0
Nghost:           1451 ave        1451 max        1451 min
Histogram: 1 0 0 0 0 0 0 0 0 0
Neighs:              0 ave           0 max           0 min
Histogram: 1 0 0 0 0 0 0 0 0 0
FullNghs:        17376 ave       17376 max       17376 min
Histogram: 1 0 0 0 0 0 0 0 0 0

Total # of neighbors = 17376
Ave neighs/atom = 34.003914
Neighbor list builds = 0
Dangerous builds = 0
Setting up quickmin style minimization ...
  Unit style    : metal
  Current step  : 77
Per MPI rank memory allocation (min/avg/max) = 5.517 | 5.517 | 5.517 Mbytes
   Step          Temp          E_pair         E_mol          TotEng         Press     
        77   0             -2212.8594      0             -2212.8594     -3515.7378    
       100   0.00053157078 -2212.8824      0             -2212.8824     -3498.0314    
       132   4.932216e-05  -2212.8957      0             -2212.8957     -3487.9404    
Loop time of 0.0672789 on 1 procs for 55 steps with 511 atoms

91.6% CPU use with 1 MPI tasks x no OpenMP threads

Minimization stats:
  Stopping criterion = force tolerance
  Energy initial, next-to-last, final = 
     -2212.85936545491  -2212.89553762878  -2212.89568547943
  Force two-norm initial, final = 0.0073828064 0.0064233151
  Force max component initial, final = 0.0010321458 0.0024618228
  Final line search alpha, max atom move = 0 0
  Iterations, force evaluations = 55 55

MPI task timing breakdown:
Section |  min time  |  avg time  |  max time  |%varavg| %total
---------------------------------------------------------------
Pair    | 0.020688   | 0.020688   | 0.020688   |   0.0 | 30.75
Neigh   | 0          | 0          | 0          |   0.0 |  0.00
Comm    | 0.00035383 | 0.00035383 | 0.00035383 |   0.0 |  0.53
Output  | 5.833e-06  | 5.833e-06  | 5.833e-06  |   0.0 |  0.01
Modify  | 0.027923   | 0.027923   | 0.027923   |   0.0 | 41.50
Other   |            | 0.01831    |            |       | 27.21

Nlocal:            511 ave         511 max         511 min
Histogram: 1 0 0 0 0 0 0 0 0 0
Nghost:           1451 ave        1451 max        1451 min
Histogram: 1 0 0 0 0 0 0 0 0 0
Neighs:              0 ave           0 max           0 min
Histogram: 1 0 0 0 0 0 0 0 0 0
FullNghs:        17376 ave       17376 max       17376 min
Histogram: 1 0 0 0 0 0 0 0 0 0

Total # of neighbors = 17376
Ave neighs/atom = 34.003914
Neighbor list builds = 0
Dangerous builds = 0
Total wall time: 0:00:00
