LAMMPS (29 Aug 2024)
Processor partition = 1
Lattice spacing in x,y,z = 5.431 5.431 5.431
Reading data file ...
  orthogonal box = (0 0 0) to (21.724 21.724 21.724)
  1 by 1 by 1 MPI processor grid
  reading atoms ...
  512 atoms
  reading velocities ...
  512 velocities
  read_data CPU = 0.005 seconds
512 atoms in group Si
1 atoms in group del
Deleted 1 atoms, new total = 511
7 atoms in group vacneigh
504 atoms in group background
Setting atom values ...
  504 settings made for type
Reading sw potential file Si.sw with DATE: 2007-06-11
Displacing atoms ...

CITE-CITE-CITE-CITE-CITE-CITE-CITE-CITE-CITE-CITE-CITE-CITE-CITE

Your simulation uses code contributions which should be cited:
- Type Label Framework: https://doi.org/10.1021/acs.jpcb.3c08419
The log file lists these citations in BibTeX format.

CITE-CITE-CITE-CITE-CITE-CITE-CITE-CITE-CITE-CITE-CITE-CITE-CITE

Neighbor list info ...
  update: every = 1 steps, delay = 0 steps, check = yes
  max neighbors/atom: 2000, page size: 100000
  master list distance cutoff = 5.77118
  ghost atom cutoff = 5.77118
  binsize = 2.88559, bins = 8 8 8
  1 neighbor lists, perpetual/occasional/extra = 1 0 0
  (1) pair sw, perpetual
      attributes: full, newton on
      pair build: full/bin/atomonly
      stencil: full/bin/3d
      bin: standard
Setting up cg style minimization ...
  Unit style    : metal
  Current step  : 0
Per MPI rank memory allocation (min/avg/max) = 4.122 | 4.122 | 4.122 Mbytes
   Step          Temp          E_pair         E_mol          TotEng         Press     
         0   0             -593.40319      0             -593.40319      355294.02    
        33   0             -2213.3343      0             -2213.3343     -3383.2606    
Loop time of 0.021853 on 1 procs for 33 steps with 511 atoms

88.0% CPU use with 1 MPI tasks x no OpenMP threads

Minimization stats:
  Stopping criterion = energy tolerance
  Energy initial, next-to-last, final = 
     -593.403188091472  -2213.33209897182  -2213.33426537417
  Force two-norm initial, final = 1101.8254 0.16683659
  Force max component initial, final = 334.49264 0.014961353
  Final line search alpha, max atom move = 1 0.014961353
  Iterations, force evaluations = 33 44

MPI task timing breakdown:
Section |  min time  |  avg time  |  max time  |%varavg| %total
---------------------------------------------------------------
Pair    | 0.020533   | 0.020533   | 0.020533   |   0.0 | 93.96
Neigh   | 0.00063483 | 0.00063483 | 0.00063483 |   0.0 |  2.91
Comm    | 0.00020288 | 0.00020288 | 0.00020288 |   0.0 |  0.93
Output  | 0          | 0          | 0          |   0.0 |  0.00
Modify  | 0          | 0          | 0          |   0.0 |  0.00
Other   |            | 0.0004818  |            |       |  2.20

Nlocal:            511 ave         511 max         511 min
Histogram: 1 0 0 0 0 0 0 0 0 0
Nghost:           1451 ave        1451 max        1451 min
Histogram: 1 0 0 0 0 0 0 0 0 0
Neighs:              0 ave           0 max           0 min
Histogram: 1 0 0 0 0 0 0 0 0 0
FullNghs:        17378 ave       17378 max       17378 min
Histogram: 1 0 0 0 0 0 0 0 0 0

Total # of neighbors = 17378
Ave neighs/atom = 34.007828
Neighbor list builds = 1
Dangerous builds = 0
Setting up quickmin style minimization ...
  Unit style    : metal
  Current step  : 0
Per MPI rank memory allocation (min/avg/max) = 2.997 | 2.997 | 2.997 Mbytes
   Step          Temp          E_pair         E_mol          TotEng         Press     
         0   0             -2213.1848      0             -2213.1848     -3405.5439    
        77   7.812951e-05  -2213.2547      0             -2213.2547     -3384.2325    
Loop time of 0.121785 on 1 procs for 77 steps with 511 atoms

91.5% CPU use with 1 MPI tasks x no OpenMP threads

Minimization stats:
  Stopping criterion = force tolerance
  Energy initial, next-to-last, final = 
     -2213.18477383224  -2213.25471849989  -2213.25472881799
  Force two-norm initial, final = 1.2258726 0.0080855301
  Force max component initial, final = 0.36638648 0.00071734907
  Final line search alpha, max atom move = 0 0
  Iterations, force evaluations = 77 77

MPI task timing breakdown:
Section |  min time  |  avg time  |  max time  |%varavg| %total
---------------------------------------------------------------
Pair    | 0.035191   | 0.035191   | 0.035191   |   0.0 | 28.90
Neigh   | 0          | 0          | 0          |   0.0 |  0.00
Comm    | 0.0006278  | 0.0006278  | 0.0006278  |   0.0 |  0.52
Output  | 0          | 0          | 0          |   0.0 |  0.00
Modify  | 0.04259    | 0.04259    | 0.04259    |   0.0 | 34.97
Other   |            | 0.04338    |            |       | 35.62

Nlocal:            511 ave         511 max         511 min
Histogram: 1 0 0 0 0 0 0 0 0 0
Nghost:           1451 ave        1451 max        1451 min
Histogram: 1 0 0 0 0 0 0 0 0 0
Neighs:              0 ave           0 max           0 min
Histogram: 1 0 0 0 0 0 0 0 0 0
FullNghs:        17370 ave       17370 max       17370 min
Histogram: 1 0 0 0 0 0 0 0 0 0

Total # of neighbors = 17370
Ave neighs/atom = 33.992172
Neighbor list builds = 0
Dangerous builds = 0
Setting up quickmin style minimization ...
  Unit style    : metal
  Current step  : 77
Per MPI rank memory allocation (min/avg/max) = 5.517 | 5.517 | 5.517 Mbytes
   Step          Temp          E_pair         E_mol          TotEng         Press     
        77   0             -2213.2547      0             -2213.2547     -3384.2331    
       100   0.0011473423  -2213.2577      0             -2213.2577     -3384.1873    
       132   0.00011454019 -2213.267       0             -2213.267      -3384.229     
Loop time of 0.06728 on 1 procs for 55 steps with 511 atoms

90.8% CPU use with 1 MPI tasks x no OpenMP threads

Minimization stats:
  Stopping criterion = force tolerance
  Energy initial, next-to-last, final = 
     -2213.25472881799  -2213.26687717532  -2213.26702635089
  Force two-norm initial, final = 0.0080855301 0.007511728
  Force max component initial, final = 0.00071734907 0.002468802
  Final line search alpha, max atom move = 0 0
  Iterations, force evaluations = 55 55

MPI task timing breakdown:
Section |  min time  |  avg time  |  max time  |%varavg| %total
---------------------------------------------------------------
Pair    | 0.018134   | 0.018134   | 0.018134   |   0.0 | 26.95
Neigh   | 0          | 0          | 0          |   0.0 |  0.00
Comm    | 0.00035071 | 0.00035071 | 0.00035071 |   0.0 |  0.52
Output  | 7.042e-06  | 7.042e-06  | 7.042e-06  |   0.0 |  0.01
Modify  | 0.029502   | 0.029502   | 0.029502   |   0.0 | 43.85
Other   |            | 0.01929    |            |       | 28.67

Nlocal:            511 ave         511 max         511 min
Histogram: 1 0 0 0 0 0 0 0 0 0
Nghost:           1451 ave        1451 max        1451 min
Histogram: 1 0 0 0 0 0 0 0 0 0
Neighs:              0 ave           0 max           0 min
Histogram: 1 0 0 0 0 0 0 0 0 0
FullNghs:        17370 ave       17370 max       17370 min
Histogram: 1 0 0 0 0 0 0 0 0 0

Total # of neighbors = 17370
Ave neighs/atom = 33.992172
Neighbor list builds = 0
Dangerous builds = 0
Total wall time: 0:00:00
