LAMMPS (27 Jun 2024)
OMP_NUM_THREADS environment is not set. Defaulting to 1 thread. (src/comm.cpp:98)
  using 1 OpenMP thread(s) per MPI task
Reading data file ...
  orthogonal box = (0 0 0) to (22.422218 22.19224 20.321894)
  5 by 2 by 2 MPI processor grid
  reading atoms ...
  448 atoms
  read_data CPU = 0.005 seconds
**************** Begin of POD Potentials ****************
species: Hf 
periodic boundary conditions: 1 1 1
number of environment clusters: 8
number of principal compoments: 2
inner cut-off radius: 1
outer cut-off radius: 5
cut-off function type: 1
gaussian_exponents: 
polynomial_degrees: 
bessel polynomial degree: 4
inverse polynomial degree: 10
one-body potential: 1
two-body radial basis functions: 8
three-body radial basis functions: 8
three-body angular degree: 6
four-body radial basis functions: 7
four-body angular degree: 5
five-body radial basis functions: 0
five-body angular degree: 0
six-body radial basis functions: 0
six-body angular degree: 0
seven-body radial basis functions: 0
seven-body angular degree: 0
number of local descriptors per element for one-body potential: 1
number of local descriptors per element for two-body potential: 8
number of local descriptors per element for three-body potential: 56
number of local descriptors per element for four-body potential: 112
number of local descriptors per element for five-body potential: 0
number of local descriptors per element for six-body potential: 0
number of local descriptors per element for seven-body potential: 0
number of local descriptors per element for all potentials: 177
number of global descriptors: 1409
**************** End of POD Potentials ****************

**************** Begin of Model Coefficients ****************
total number of coefficients for POD potential: 1409
total number of elements for PCA projection matrix: 352
total number of elements for PCA centroids: 16
**************** End of Model Coefficients ****************


CITE-CITE-CITE-CITE-CITE-CITE-CITE-CITE-CITE-CITE-CITE-CITE-CITE

Your simulation uses code contributions which should be cited:
- Type Label Framework: https://doi.org/10.1021/acs.jpcb.3c08419
The log file lists these citations in BibTeX format.

CITE-CITE-CITE-CITE-CITE-CITE-CITE-CITE-CITE-CITE-CITE-CITE-CITE

Neighbor list info ...
  update: every = 1 steps, delay = 0 steps, check = no
  max neighbors/atom: 2000, page size: 100000
  master list distance cutoff = 7
  ghost atom cutoff = 7
  binsize = 3.5, bins = 7 7 6
  1 neighbor lists, perpetual/occasional/extra = 1 0 0
  (1) pair pod, perpetual
      attributes: full, newton on
      pair build: full/bin/atomonly
      stencil: full/bin/3d
      bin: standard
Setting up Verlet run ...
  Unit style    : metal
  Current step  : 0
  Time step     : 0.001
Per MPI rank memory allocation (min/avg/max) = 2.586 | 2.586 | 2.586 Mbytes
   Step          Temp          TotEng         PotEng         KinEng         Press          Volume    
         0   300           -3263.9145     -3281.2483      17.333785      1830.9177      10112.159    
       100   95.440455     -3263.0192     -3268.5337      5.5144812      3937.5778      10112.159    
       200   152.67218     -3259.7979     -3268.6192      8.8212896      4818.9494      10112.159    
       300   210.98688     -3255.8775     -3268.0682      12.190671      5085.1347      10112.159    
       400   294.48912     -3251.832      -3268.8474      17.015371      5057.113       10112.159    
       500   310.42182     -3247.9869     -3265.9229      17.935951      6153.8287      10112.159    
       600   288.83733     -3245.2226     -3261.9114      16.688815      7582.219       10112.159    
       700   301.6666      -3243.9499     -3261.38        17.430081      8140.7544      10112.159    
       800   303.93171     -3245.099      -3262.66        17.560957      7438.4138      10112.159    
       900   322.02347     -3246.5739     -3265.1802      18.606286      6669.7887      10112.159    
      1000   289.86367     -3248.3272     -3265.0753      16.748116      6637.6726      10112.159    
      1100   293.02993     -3248.1504     -3265.0815      16.93106       6467.3033      10112.159    
      1200   280.84984     -3246.6834     -3262.9107      16.227303      7129.0586      10112.159    
      1300   304.47974     -3245.4075     -3263.0001      17.592622      7255.7214      10112.159    
      1400   299.61797     -3245.2362     -3262.5479      17.311712      7270.1186      10112.159    
      1500   319.98223     -3245.6701     -3264.1585      18.488344      6722.2127      10112.159    
      1600   313.40441     -3246.6798     -3264.7881      18.108283      6828.254       10112.159    
      1700   272.93253     -3247.4097     -3263.1796      15.769846      7330.876       10112.159    
      1800   276.58804     -3247.3548     -3263.3358      15.981059      6759.328       10112.159    
      1900   311.68614     -3246.676      -3264.685       18.009002      6779.5464      10112.159    
      2000   313.10936     -3246.0736     -3264.1648      18.091235      6713.9818      10112.159    
      2100   321.68753     -3245.4142     -3264.0011      18.586875      7109.0385      10112.159    
      2200   299.20062     -3245.5484     -3262.836       17.287598      7258.4135      10112.159    
      2300   260.1144      -3246.6156     -3261.6448      15.029224      7599.4135      10112.159    
      2400   334.57887     -3246.6468     -3265.9785      19.331728      6496.4468      10112.159    
      2500   278.97729     -3247.8751     -3263.9942      16.119108      6592.8604      10112.159    
      2600   317.21365     -3246.5429     -3264.8713      18.328378      6695.187       10112.159    
      2700   275.80229     -3246.6616     -3262.5972      15.935659      7144.8849      10112.159    
      2800   293.76543     -3246.5764     -3263.55        16.973556      7128.9149      10112.159    
      2900   327.48166     -3245.9653     -3264.887       18.921656      6910.5581      10112.159    
      3000   303.24366     -3245.9306     -3263.4518      17.521202      6872.0538      10112.159    
      3100   299.87668     -3245.8603     -3263.1869      17.32666       7105.2286      10112.159    
      3200   290.64712     -3246.3015     -3263.0949      16.793383      7123.4737      10112.159    
      3300   298.33968     -3247.1941     -3264.4319      17.237854      6777.8393      10112.159    
      3400   283.03908     -3247.8458     -3264.1996      16.353795      6758.5189      10112.159    
      3500   301.87975     -3246.7985     -3264.2408      17.442396      6979.346       10112.159    
      3600   303.20842     -3245.4268     -3262.9459      17.519166      7284.7154      10112.159    
      3700   316.7984      -3245.4414     -3263.7458      18.304385      7134.4206      10112.159    
      3800   288.72817     -3246.3052     -3262.9877      16.682507      6914.8241      10112.159    
      3900   303.24349     -3246.6434     -3264.1646      17.521192      6932.4258      10112.159    
      4000   278.39309     -3248.3897     -3264.4751      16.085354      6317.5642      10112.159    
      4100   279.00692     -3249.1273     -3265.2481      16.12082       6188.4827      10112.159    
      4200   291.03354     -3248.0326     -3264.8483      16.81571       6661.5059      10112.159    
      4300   287.00077     -3247.0894     -3263.6721      16.582699      6813.9409      10112.159    
      4400   308.4846      -3246.0551     -3263.8792      17.82402       6781.6599      10112.159    
      4500   294.23202     -3245.7868     -3262.7873      17.000516      7232.5639      10112.159    
      4600   291.9419      -3246.0571     -3262.9253      16.868194      6993.2914      10112.159    
      4700   315.33646     -3247.4163     -3265.6362      18.219915      6395.4423      10112.159    
      4800   287.30881     -3248.1377     -3264.7382      16.600498      6367.5724      10112.159    
      4900   277.98711     -3247.6777     -3263.7396      16.061897      6927.4208      10112.159    
      5000   289.65717     -3246.6865     -3263.4227      16.736184      6743.9453      10112.159    
      5100   311.13244     -3246.2108     -3264.1878      17.97701       6895.0793      10112.159    
      5200   293.50459     -3246.5215     -3263.48        16.958485      6935.1716      10112.159    
      5300   311.81628     -3246.2763     -3264.2928      18.016521      6939.0595      10112.159    
      5400   270.7166      -3246.6995     -3262.3413      15.641811      7024.4575      10112.159    
      5500   328.52258     -3246.0168     -3264.9986      18.9818        6862.1912      10112.159    
      5600   281.75166     -3246.5936     -3262.8731      16.279409      7099.6117      10112.159    
      5700   312.04486     -3246.6186     -3264.6483      18.029729      6517.2584      10112.159    
      5800   309.20877     -3246.9529     -3264.8187      17.865861      6647.0675      10112.159    
      5900   281.50035     -3247.5471     -3263.812       16.264889      6960.7335      10112.159    
      6000   282.53026     -3247.528      -3263.8524      16.324396      6626.8771      10112.159    
      6100   308.92236     -3245.9439     -3263.7932      17.849313      6930.7305      10112.159    
      6200   326.67181     -3245.336      -3264.2108      18.874863      6954.4421      10112.159    
      6300   292.55193     -3246.2126     -3263.116       16.903441      7156.2729      10112.159    
      6400   286.53453     -3246.8538     -3263.4096      16.55576       6783.0589      10112.159    
      6500   304.88617     -3247.0096     -3264.6257      17.616105      6745.6067      10112.159    
      6600   291.83414     -3247.2279     -3264.0899      16.861968      6533.1865      10112.159    
      6700   293.19987     -3246.4083     -3263.3491      16.940879      6933.9987      10112.159    
      6800   323.31579     -3245.3709     -3264.0519      18.680955      7075.956       10112.159    
      6900   294.32421     -3245.8732     -3262.879       17.005842      7027.5911      10112.159    
      7000   299.17105     -3246.6116     -3263.8975      17.285889      6822.8694      10112.159    
      7100   289.81579     -3247.7179     -3264.4633      16.745349      6590.0348      10112.159    
      7200   297.44002     -3248.2316     -3265.4174      17.185872      6536.2188      10112.159    
      7300   289.03707     -3247.3502     -3264.0506      16.700355      6671.3678      10112.159    
      7400   311.97106     -3245.8081     -3263.8336      18.025465      6995.784       10112.159    
      7500   286.89019     -3245.7942     -3262.3705      16.57631       7503.9177      10112.159    
      7600   302.83269     -3246.3186     -3263.8161      17.497457      6789.9375      10112.159    
      7700   327.42267     -3246.7216     -3265.6399      18.918248      6176.3725      10112.159    
      7800   281.82201     -3247.2863     -3263.5698      16.283474      6837.7909      10112.159    
      7900   289.58276     -3246.591      -3263.3229      16.731885      7167.8612      10112.159    
      8000   303.44141     -3244.7556     -3262.2883      17.532628      7364.6363      10112.159    
      8100   324.59032     -3244.6409     -3263.3955      18.754597      6891.5305      10112.159    
      8200   312.36943     -3246.0749     -3264.1233      18.048482      6894.7174      10112.159    
      8300   291.41745     -3246.6793     -3263.5172      16.837892      6798.6121      10112.159    
      8400   294.07584     -3246.7374     -3263.7289      16.991491      6866.0303      10112.159    
      8500   296.70201     -3246.5988     -3263.742       17.14323       6721.4806      10112.159    
      8600   318.21232     -3245.2662     -3263.6523      18.386081      7151.5488      10112.159    
      8700   293.95419     -3245.0358     -3262.0203      16.984463      7387.0538      10112.159    
      8800   312.03714     -3245.7086     -3263.7379      18.029283      6898.9781      10112.159    
      8900   287.19106     -3247.7367     -3264.3304      16.593694      6689.9328      10112.159    
      9000   294.26301     -3247.4579     -3264.4602      17.002306      6507.6569      10112.159    
      9100   295.57537     -3246.628      -3263.7062      17.078133      6973.909       10112.159    
      9200   314.1929      -3245.6587     -3263.8125      18.153841      6918.8577      10112.159    
      9300   291.03274     -3245.1562     -3261.9719      16.815664      7217.3651      10112.159    
      9400   343.19141     -3243.7277     -3263.5571      19.829354      7476.7288      10112.159    
      9500   293.50409     -3245.3635     -3262.322       16.958456      7150.5457      10112.159    
      9600   299.10841     -3246.4197     -3263.702       17.28227       7083.6257      10112.159    
      9700   286.99154     -3246.8893     -3263.4715      16.582166      6793.1969      10112.159    
      9800   314.42538     -3246.5861     -3264.7534      18.167273      6405.5759      10112.159    
      9900   316.05438     -3246.1129     -3264.3743      18.261396      6630.8913      10112.159    
     10000   293.89431     -3245.2456     -3262.2266      16.981003      7414.7049      10112.159    
     10100   297.29862     -3245.3029     -3262.4806      17.177701      7292.4853      10112.159    
     10200   306.68815     -3246.8182     -3264.5384      17.720222      6570.1675      10112.159    
     10300   291.65011     -3247.7169     -3264.5682      16.851335      6396.5209      10112.159    
     10400   296.85739     -3247.4479     -3264.6001      17.152208      6462.379       10112.159    
     10500   298.26902     -3246.3267     -3263.5605      17.233771      6814.7761      10112.159    
     10600   305.07625     -3245.7023     -3263.3294      17.627088      6933.1174      10112.159    
     10700   305.79833     -3245.7714     -3263.4402      17.668809      6875.0895      10112.159    
     10800   304.69443     -3246.58       -3264.185       17.605026      6751.5294      10112.159    
     10900   285.69107     -3247.4332     -3263.9403      16.507026      6730.6782      10112.159    
     11000   300.8944      -3246.962      -3264.3474      17.385464      6659.5406      10112.159    
     11100   292.29028     -3246.7468     -3263.6351      16.888323      6751.8977      10112.159    
     11200   304.82275     -3246.404      -3264.0165      17.61244       6632.7095      10112.159    
     11300   288.95899     -3246.3646     -3263.0605      16.695844      6993.1369      10112.159    
     11400   307.94405     -3246.2128     -3264.0056      17.792787      6702.9478      10112.159    
     11500   296.97954     -3247.6605     -3264.8198      17.159265      6388.2486      10112.159    
     11600   274.36007     -3248.6119     -3264.4642      15.852328      6409.1973      10112.159    
     11700   290.11106     -3247.5957     -3264.3581      16.76241       6776.8167      10112.159    
     11800   297.18623     -3246.6462     -3263.8174      17.171208      6581.38        10112.159    
     11900   302.79011     -3246.1542     -3263.6492      17.494996      6643.8643      10112.159    
     12000   301.21822     -3245.81       -3263.2142      17.404174      7080.0005      10112.159    
     12100   300.86016     -3246.1363     -3263.5198      17.383485      6853.2279      10112.159    
     12200   288.7549      -3247.6925     -3264.3765      16.684051      6502.8809      10112.159    
     12300   300.96815     -3247.7504     -3265.1401      17.389724      6388.8571      10112.159    
     12400   300.96681     -3246.8478     -3264.2374      17.389647      6678.5806      10112.159    
     12500   294.93661     -3245.4638     -3262.505       17.041226      7299.3529      10112.159    
     12600   305.17084     -3245.4353     -3263.0679      17.632553      7224.7485      10112.159    
     12700   314.63162     -3246.005      -3264.1842      18.17919       6483.0662      10112.159    
     12800   297.67231     -3247.1041     -3264.3034      17.199293      6558.886       10112.159    
     12900   282.86733     -3247.3455     -3263.6894      16.343872      6631.4758      10112.159    
     13000   316.87834     -3246.1136     -3264.4226      18.309004      6758.6312      10112.159    
     13100   299.0273      -3245.2252     -3262.5028      17.277584      7036.8855      10112.159    
     13200   342.40158     -3243.3703     -3263.154       19.783718      7154.6314      10112.159    
     13300   307.71702     -3244.6584     -3262.4381      17.779669      7343.2204      10112.159    
     13400   311.11103     -3245.842      -3263.8178      17.975773      6823.6632      10112.159    
     13500   297.47114     -3246.7386     -3263.9262      17.18767       6623.3691      10112.159    
     13600   294.18459     -3247.3181     -3264.3159      16.997775      6574.117       10112.159    
     13700   294.21604     -3247.3568     -3264.3563      16.999592      6537.6569      10112.159    
     13800   302.36074     -3245.5999     -3263.0701      17.470188      7074.6213      10112.159    
     13900   327.85473     -3244.6186     -3263.5618      18.943212      7161.3407      10112.159    
     14000   309.7085      -3245.572      -3263.4667      17.894736      7078.0801      10112.159    
     14100   284.12888     -3246.5597     -3262.9765      16.416764      7100.8982      10112.159    
     14200   304.32842     -3246.47       -3264.0539      17.583878      6545.7833      10112.159    
     14300   312.54013     -3246.5612     -3264.6196      18.058345      6645.5782      10112.159    
     14400   295.4159      -3247.2749     -3264.3438      17.068919      6259.179       10112.159    
     14500   269.88829     -3248.2303     -3263.8242      15.593953      6587.8644      10112.159    
     14600   298.75659     -3247.4373     -3264.6992      17.261942      6588.265       10112.159    
     14700   302.94787     -3246.2456     -3263.7497      17.504111      6967.2283      10112.159    
     14800   312.29178     -3245.7732     -3263.8172      18.043996      6769.1325      10112.159    
     14900   301.57968     -3246.1318     -3263.5568      17.425058      6809.7713      10112.159    
     15000   294.49084     -3247.1404     -3264.1559      17.01547       6661.202       10112.159    
     15100   272.80883     -3248.8288     -3264.5915      15.762699      6475.3076      10112.159    
     15200   287.84262     -3248.2692     -3264.9006      16.631341      6256.8175      10112.159    
     15300   295.85789     -3247.2904     -3264.3849      17.094457      6365.9411      10112.159    
     15400   300.15558     -3246.5948     -3263.9376      17.342775      6526.746       10112.159    
     15500   300.56096     -3245.9026     -3263.2688      17.366197      6981.7951      10112.159    
     15600   321.27538     -3245.2568     -3263.8199      18.563062      6995.7002      10112.159    
     15700   284.55005     -3246.7503     -3263.1914      16.441098      6918.2309      10112.159    
     15800   295.5574      -3248.0228     -3265.0999      17.077095      6304.5971      10112.159    
     15900   288.06313     -3247.8373     -3264.4814      16.644082      6642.2099      10112.159    
     16000   291.30299     -3246.7319     -3263.5632      16.831278      6895.1697      10112.159    
     16100   317.06131     -3245.9359     -3264.2555      18.319576      6604.8044      10112.159    
     16200   290.20423     -3246.2289     -3262.9967      16.767793      7085.2453      10112.159    
     16300   299.20169     -3246.3935     -3263.6811      17.287659      6902.2769      10112.159    
     16400   296.03408     -3247.4004     -3264.505       17.104638      6612.2194      10112.159    
     16500   292.07156     -3248.6044     -3265.4801      16.875686      6271.8024      10112.159    
     16600   276.80147     -3248.3527     -3264.3461      15.993391      6592.8142      10112.159    
     16700   289.46157     -3246.6909     -3263.4158      16.724883      6814.8735      10112.159    
     16800   298.5387      -3246.1733     -3263.4227      17.249353      6881.911       10112.159    
     16900   314.38246     -3245.5359     -3263.7007      18.164794      7036.6681      10112.159    
     17000   302.27883     -3245.6036     -3263.0691      17.465455      7152.4098      10112.159    
     17100   300.85091     -3247.0777     -3264.4607      17.38295       6579.8366      10112.159    
     17200   294.43049     -3248.011      -3265.023       17.011983      6334.8542      10112.159    
     17300   277.12366     -3247.6307     -3263.6427      16.012007      6586.0197      10112.159    
     17400   311.10572     -3246.3867     -3264.3621      17.975466      6642.5046      10112.159    
     17500   306.69571     -3246.0336     -3263.7543      17.720659      6884.7325      10112.159    
     17600   301.72743     -3246.1997     -3263.6333      17.433595      6902.4543      10112.159    
     17700   299.27204     -3246.9787     -3264.2705      17.291724      6639.6098      10112.159    
     17800   283.07844     -3248.3345     -3264.6905      16.35607       6298.8792      10112.159    
     17900   282.64923     -3248.6238     -3264.9551      16.33127       6187.4429      10112.159    
     18000   291.9013      -3246.7119     -3263.5778      16.865848      6747.8493      10112.159    
     18100   317.7334      -3245.8706     -3264.229       18.358408      6567.9059      10112.159    
     18200   309.32114     -3245.8902     -3263.7626      17.872354      6946.5268      10112.159    
     18300   286.95158     -3246.4564     -3263.0363      16.579857      7123.9769      10112.159    
     18400   294.90812     -3247.3867     -3264.4263      17.03958       6562.3798      10112.159    
     18500   291.86085     -3248.2976     -3265.1611      16.863511      6341.7189      10112.159    
     18600   277.94037     -3248.0435     -3264.1027      16.059196      6580.2266      10112.159    
     18700   301.38237     -3246.0399     -3263.4535      17.413658      7014.4352      10112.159    
     18800   307.36241     -3245.3765     -3263.1357      17.75918       7140.7541      10112.159    
     18900   302.65338     -3245.7193     -3263.2064      17.487096      6872.3231      10112.159    
     19000   298.9973      -3246.9252     -3264.2011      17.27585       6687.9927      10112.159    
     19100   288.76866     -3247.526      -3264.2109      16.684846      6618.6315      10112.159    
     19200   299.53589     -3246.9428     -3264.2497      17.306969      6570.8238      10112.159    
     19300   304.51184     -3246.0878     -3263.6823      17.594476      6965.8989      10112.159    
     19400   305.44326     -3245.8604     -3263.5087      17.648293      6713.5351      10112.159    
     19500   301.69297     -3246.0433     -3263.4749      17.431604      7131.3612      10112.159    
     19600   300.98785     -3246.4955     -3263.8864      17.390863      6692.2453      10112.159    
     19700   292.13927     -3246.936      -3263.8156      16.879598      6691.3314      10112.159    
     19800   308.00373     -3246.7049     -3264.5011      17.796235      6737.1977      10112.159    
     19900   295.27262     -3246.3719     -3263.4325      17.060641      6847.3862      10112.159    
     20000   294.29147     -3245.4573     -3262.4613      17.003951      7263.7189      10112.159    
     20100   311.04814     -3245.1813     -3263.1535      17.972139      6824.5427      10112.159    
     20200   307.20378     -3246.4891     -3264.2391      17.750015      6661.0475      10112.159    
     20300   294.9611      -3247.5835     -3264.6262      17.042641      6553.1958      10112.159    
     20400   286.20518     -3247.5476     -3264.0843      16.53673       6563.9121      10112.159    
     20500   304.98803     -3246.3785     -3264.0005      17.62199       6740.0919      10112.159    
     20600   298.80591     -3245.6916     -3262.9564      17.264792      6796.3771      10112.159    
     20700   301.97219     -3245.9071     -3263.3549      17.447737      6905.7838      10112.159    
     20800   306.80836     -3246.2609     -3263.988       17.727167      6540.1893      10112.159    
     20900   308.03293     -3246.7567     -3264.5546      17.797922      6560.683       10112.159    
     21000   278.31739     -3248.2355     -3264.3164      16.08098       6330.3381      10112.159    
     21100   296.30071     -3248.2462     -3265.3662      17.120043      6470.0167      10112.159    
     21200   295.16885     -3246.711      -3263.7657      17.054645      6798.7594      10112.159    
     21300   298.0068      -3245.528      -3262.7466      17.21862       7106.8776      10112.159    
     21400   306.32204     -3245.6327     -3263.3317      17.699069      6837.6276      10112.159    
     21500   292.29941     -3246.7079     -3263.5968      16.888851      6796.1268      10112.159    
     21600   311.33286     -3246.9823     -3264.9709      17.98859       6427.1266      10112.159    
     21700   284.75211     -3247.4365     -3263.8892      16.452773      6966.2317      10112.159    
     21800   290.08647     -3247.1693     -3263.9303      16.760989      6611.9467      10112.159    
     21900   302.45291     -3245.9572     -3263.4327      17.475513      7175.1488      10112.159    
     22000   309.04568     -3245.2471     -3263.1035      17.856438      7008.5638      10112.159    
     22100   308.56466     -3245.4019     -3263.2306      17.828645      7040.505       10112.159    
     22200   282.3845      -3247.2387     -3263.5547      16.315975      6921.0941      10112.159    
     22300   302.75867     -3247.3977     -3264.8909      17.493179      6520.4914      10112.159    
     22400   305.98123     -3247.0223     -3264.7017      17.679377      6415.7942      10112.159    
     22500   304.00671     -3245.8122     -3263.3775      17.56529       6838.8329      10112.159    
     22600   288.42831     -3245.0067     -3261.6719      16.665182      7490.246       10112.159    
     22700   316.25185     -3245.4596     -3263.7324      18.272806      7070.2809      10112.159    
     22800   298.31856     -3246.2804     -3263.517       17.236633      6981.0548      10112.159    
     22900   310.01264     -3246.4567     -3264.369       17.912309      6695.5268      10112.159    
     23000   286.67541     -3247.0679     -3263.6318      16.5639        6751.806       10112.159    
     23100   292.16606     -3247.4153     -3264.2964      16.881146      6698.2489      10112.159    
     23200   273.42594     -3247.797      -3263.5954      15.798355      6671.3043      10112.159    
     23300   319.30366     -3246.4783     -3264.9275      18.449137      6485.2251      10112.159    
     23400   308.92601     -3246.1304     -3263.9799      17.849524      6812.9212      10112.159    
     23500   306.48657     -3245.674      -3263.3826      17.708575      6908.6215      10112.159    
     23600   290.22964     -3244.992      -3261.7612      16.769261      7541.8827      10112.159    
     23700   305.17205     -3245.4261     -3263.0588      17.632623      7342.4091      10112.159    
     23800   309.77373     -3247.2025     -3265.101       17.898505      5971.0488      10112.159    
     23900   292.82726     -3247.5131     -3264.4325      16.919349      6655.6413      10112.159    
     24000   301.44927     -3246.6803     -3264.0979      17.417523      6513.1396      10112.159    
     24100   302.66962     -3245.7959     -3263.2839      17.488034      6881.2677      10112.159    
     24200   311.56238     -3244.8048     -3262.8066      18.001852      7113.8972      10112.159    
     24300   294.20554     -3245.7351     -3262.7341      16.998986      6964.2397      10112.159    
     24400   299.46367     -3247.1322     -3264.435       17.302797      6606.6517      10112.159    
     24500   299.91626     -3247.3928     -3264.7218      17.328947      6186.1614      10112.159    
     24600   305.7145      -3246.6952     -3264.3592      17.663965      6630.5956      10112.159    
     24700   295.57931     -3245.9093     -3262.9876      17.078361      7133.2053      10112.159    
     24800   298.23373     -3245.5211     -3262.7529      17.231732      7132.1457      10112.159    
     24900   331.12051     -3244.3646     -3263.4965      19.131906      7048.985       10112.159    
     25000   306.12384     -3244.8043     -3262.492       17.687617      7081.5874      10112.159    
     25100   291.4584      -3246.3503     -3263.1906      16.840258      6792.9233      10112.159    
     25200   293.6713      -3247.1282     -3264.0964      16.968117      6687.2093      10112.159    
     25300   294.3185      -3247.11       -3264.1156      17.005512      6666.9529      10112.159    
     25400   304.81892     -3246.3702     -3263.9824      17.612219      6753.0553      10112.159    
     25500   298.65031     -3245.1243     -3262.3801      17.255801      7164.0814      10112.159    
     25600   326.82417     -3243.85       -3262.7337      18.883667      7415.1388      10112.159    
     25700   309.07007     -3244.9558     -3262.8136      17.857847      7081.4065      10112.159    
     25800   300.03707     -3246.1405     -3263.4764      17.335927      6880.6237      10112.159    
     25900   303.55761     -3246.705      -3264.2444      17.539341      6491.4243      10112.159    
     26000   295.6378      -3247.1601     -3264.2418      17.081741      6450.6038      10112.159    
     26100   296.03        -3246.8169     -3263.9213      17.104402      6531.197       10112.159    
     26200   299.61322     -3245.0979     -3262.4094      17.311437      7063.3514      10112.159    
     26300   322.46646     -3244.4967     -3263.1286      18.631882      7092.7212      10112.159    
     26400   327.49911     -3245.3876     -3264.3102      18.922664      6693.062       10112.159    
     26500   291.796       -3246.1446     -3263.0044      16.859764      6866.2211      10112.159    
     26600   297.94633     -3246.4151     -3263.6302      17.215126      6778.0769      10112.159    
     26700   290.55338     -3247.0898     -3263.8778      16.787966      6343.3214      10112.159    
     26800   312.4776      -3246.9375     -3264.9922      18.054732      6425.4945      10112.159    
     26900   296.25292     -3246.1925     -3263.3098      17.117282      6524.9171      10112.159    
     27000   319.45404     -3244.7453     -3263.2031      18.457826      7111.3821      10112.159    
     27100   299.55219     -3245.226      -3262.5339      17.307911      7072.342       10112.159    
     27200   309.00516     -3246.1579     -3264.012       17.854097      6742.3977      10112.159    
     27300   296.09454     -3247.3693     -3264.4775      17.108131      6691.4199      10112.159    
     27400   288.83904     -3247.2109     -3263.8998      16.688913      6651.8247      10112.159    
     27500   292.59679     -3246.3384     -3263.2444      16.906033      7105.314       10112.159    
     27600   314.50087     -3245.5851     -3263.7568      18.171635      6713.4136      10112.159    
     27700   285.3575      -3246.2216     -3262.7093      16.487752      6807.7101      10112.159    
     27800   294.21994     -3247.5363     -3264.5361      16.999818      6423.7213      10112.159    
     27900   274.9257      -3248.6741     -3264.5591      15.88501       6517.2983      10112.159    
     28000   285.90773     -3247.6644     -3264.1839      16.519544      6691.2332      10112.159    
     28100   318.46622     -3246.6084     -3265.0091      18.40075       6566.5794      10112.159    
     28200   302.0895      -3246.5217     -3263.9763      17.454515      6736.0863      10112.159    
     28300   288.59101     -3246.21       -3262.8846      16.674582      7261.6623      10112.159    
     28400   305.41252     -3245.241      -3262.8875      17.646517      7404.8371      10112.159    
     28500   318.24743     -3244.7616     -3263.1497      18.388109      7309.4501      10112.159    
     28600   300.17691     -3245.7104     -3263.0545      17.344007      7005.7575      10112.159    
     28700   297.10078     -3246.9985     -3264.1648      17.166271      6576.266       10112.159    
     28800   299.98584     -3247.3956     -3264.7286      17.332967      6460.7708      10112.159    
     28900   294.99867     -3247.1116     -3264.1564      17.044812      6521.9277      10112.159    
     29000   309.30773     -3245.2113     -3263.0829      17.871579      7223.8291      10112.159    
     29100   300.90536     -3245.0848     -3262.4709      17.386096      7355.8625      10112.159    
     29200   314.57584     -3245.6213     -3263.7972      18.175967      7070.5456      10112.159    
     29300   291.88185     -3246.8145     -3263.6792      16.864724      6803.1946      10112.159    
     29400   294.48795     -3247.0368     -3264.0521      17.015303      6851.4687      10112.159    
     29500   290.68398     -3246.9983     -3263.7938      16.795512      6681.2735      10112.159    
     29600   308.70224     -3246.4474     -3264.284       17.836595      6526.2954      10112.159    
     29700   327.66439     -3245.0861     -3264.0183      18.932214      6932.258       10112.159    
     29800   312.49298     -3243.605      -3261.6606      18.055621      7313.7575      10112.159    
     29900   295.3144      -3244.6231     -3261.6862      17.063055      7519.0592      10112.159    
     30000   309.42288     -3245.6117     -3263.49        17.878232      6960.6107      10112.159    
     30100   304.01829     -3246.7698     -3264.3358      17.565959      6664.2585      10112.159    
     30200   291.16187     -3247.2049     -3264.028       16.823125      6526.1777      10112.159    
     30300   292.54402     -3246.8054     -3263.7084      16.902984      6723.799       10112.159    
     30400   315.19267     -3245.1444     -3263.356       18.211607      6927.4047      10112.159    
     30500   310.85503     -3244.8581     -3262.8191      17.960981      7303.7349      10112.159    
     30600   304.49491     -3245.7652     -3263.3587      17.593498      6878.4221      10112.159    
     30700   306.10462     -3246.5445     -3264.231       17.686506      6644.6908      10112.159    
     30800   293.95339     -3246.9617     -3263.9461      16.984416      6734.6883      10112.159    
     30900   293.68746     -3246.7231     -3263.6921      16.969052      6876.4217      10112.159    
     31000   293.93656     -3246.4913     -3263.4748      16.983444      6946.2313      10112.159    
     31100   301.66341     -3246.4386     -3263.8685      17.429896      6698.083       10112.159    
     31200   304.57714     -3246.3673     -3263.9655      17.59825       6851.6242      10112.159    
     31300   294.79759     -3246.3919     -3263.4251      17.033194      6940.1789      10112.159    
     31400   302.91321     -3246.1818     -3263.6839      17.502109      6916.711       10112.159    
     31500   305.55263     -3246.0758     -3263.7304      17.654612      6758.4416      10112.159    
     31600   297.19569     -3246.3398     -3263.5115      17.171754      6922.1871      10112.159    
     31700   302.89997     -3246.7707     -3264.272       17.501344      6808.7823      10112.159    
     31800   295.63252     -3247.2587     -3264.3401      17.081436      6605.5463      10112.159    
     31900   293.85138     -3246.8676     -3263.8461      16.978522      6911.5783      10112.159    
     32000   304.87055     -3245.5079     -3263.1231      17.615202      7193.8112      10112.159    
     32100   317.72026     -3244.7754     -3263.1331      18.357649      7174.0421      10112.159    
     32200   312.93622     -3245.6192     -3263.7004      18.081231      6958.2468      10112.159    
     32300   284.27685     -3247.5165     -3263.9418      16.425313      6559.6322      10112.159    
     32400   307.96836     -3247.2543     -3265.0485      17.794192      6713.8287      10112.159    
     32500   284.66161     -3246.938      -3263.3855      16.447544      6785.3566      10112.159    
     32600   307.48282     -3245.5743     -3263.3404      17.766137      7216.9289      10112.159    
     32700   298.85864     -3245.6693     -3262.9371      17.267838      7082.3348      10112.159    
     32800   313.44647     -3245.9677     -3264.0784      18.110713      6894.0501      10112.159    
     32900   298.23779     -3247.2991     -3264.5311      17.231966      6609.3476      10112.159    
     33000   266.24879     -3248.8443     -3264.228       15.383664      6562.1597      10112.159    
     33100   293.7175      -3247.6328     -3264.6036      16.970787      6476.6037      10112.159    
     33200   297.32075     -3246.585      -3263.764       17.17898       6881.2273      10112.159    
     33300   309.34631     -3245.8296     -3263.7034      17.873809      7037.0981      10112.159    
     33400   308.54008     -3245.6788     -3263.506       17.827225      7190.6366      10112.159    
     33500   294.92228     -3246.5893     -3263.6297      17.040398      6939.7719      10112.159    
     33600   297.89083     -3247.9018     -3265.1137      17.211919      6546.3689      10112.159    
     33700   282.36636     -3248.1496     -3264.4646      16.314927      6330.6014      10112.159    
     33800   314.86738     -3246.6336     -3264.8265      18.192812      6670.0521      10112.159    
     33900   292.79512     -3246.5801     -3263.4976      16.917493      6810.7979      10112.159    
     34000   312.50448     -3245.9428     -3263.9991      18.056286      6916.37        10112.159    
     34100   295.30494     -3245.9582     -3263.0207      17.062508      6844.5989      10112.159    
     34200   298.91083     -3246.4267     -3263.6975      17.270854      6850.6189      10112.159    
     34300   292.78368     -3247.6685     -3264.5854      16.916832      6529.036       10112.159    
     34400   280.56968     -3248.3782     -3264.5893      16.211115      6438.1685      10112.159    
     34500   294.25693     -3247.3483     -3264.3502      17.001955      6587.8917      10112.159    
     34600   301.44412     -3246.1273     -3263.5445      17.417226      6880.4129      10112.159    
     34700   293.94318     -3246.156      -3263.1398      16.983827      6868.4805      10112.159    
     34800   294.97308     -3246.5074     -3263.5507      17.043334      7055.2436      10112.159    
     34900   305.75745     -3246.8014     -3264.4679      17.666447      6520.8901      10112.159    
     35000   302.47372     -3247.1685     -3264.6452      17.476715      6425.5199      10112.159    
     35100   278.71971     -3247.4875     -3263.5918      16.104226      6746.5104      10112.159    
     35200   298.78999     -3246.7339     -3263.9978      17.263872      6666.4535      10112.159    
     35300   324.99425     -3245.5462     -3264.3242      18.777935      6898.4899      10112.159    
     35400   286.55001     -3245.6384     -3262.195       16.556655      7057.9037      10112.159    
     35500   321.21771     -3245.3343     -3263.894       18.55973       6925.3449      10112.159    
     35600   291.05738     -3247.0608     -3263.8778      16.817087      6774.7063      10112.159    
     35700   286.36545     -3247.8195     -3264.3655      16.545991      6677.4654      10112.159    
     35800   297.50002     -3247.4755     -3264.6648      17.189338      6699.4559      10112.159    
     35900   306.20721     -3245.9485     -3263.641       17.692434      6833.8432      10112.159    
     36000   296.73813     -3245.6484     -3262.7937      17.145317      7146.3373      10112.159    
     36100   301.15602     -3245.9485     -3263.3491      17.400579      7081.0041      10112.159    
     36200   293.41235     -3246.7839     -3263.737       16.953156      6570.4736      10112.159    
     36300   307.73851     -3247.6901     -3265.471       17.780911      6390.1048      10112.159    
     36400   278.70198     -3248.666      -3264.7692      16.103201      6247.3392      10112.159    
     36500   290.27387     -3247.077      -3263.8488      16.771817      6900.6798      10112.159    
     36600   291.21615     -3246.0491     -3262.8754      16.826261      6983.1985      10112.159    
     36700   317.32893     -3245.6785     -3264.0135      18.335039      6958.3274      10112.159    
     36800   290.02423     -3246.4694     -3263.2268      16.757393      6942.181       10112.159    
     36900   313.01245     -3246.952      -3265.0376      18.085635      6433.3655      10112.159    
     37000   275.70335     -3248.0969     -3264.0268      15.929942      6616.8269      10112.159    
     37100   308.33012     -3247.3019     -3265.117       17.815094      6438.3479      10112.159    
     37200   296.32568     -3245.6393     -3262.7608      17.121486      7209.2822      10112.159    
     37300   308.68953     -3245.3227     -3263.1586      17.83586       7004.5206      10112.159    
     37400   320.71232     -3245.8162     -3264.3467      18.530529      6935.4902      10112.159    
     37500   288.61382     -3247.0977     -3263.7736      16.6759        6646.1899      10112.159    
     37600   282.39668     -3247.182      -3263.4987      16.316678      7176.4747      10112.159    
     37700   306.04842     -3246.5436     -3264.2268      17.683259      6768.2579      10112.159    
     37800   299.85668     -3246.3581     -3263.6836      17.325505      6869.9693      10112.159    
     37900   315.00937     -3246.2871     -3264.4881      18.201016      6874.763       10112.159    
     38000   306.4627      -3246.3022     -3264.0094      17.707196      6773.9543      10112.159    
     38100   280.75115     -3246.5518     -3262.7734      16.221601      7383.742       10112.159    
     38200   303.62601     -3246.2477     -3263.791       17.543293      6758.8931      10112.159    
     38300   310.01552     -3245.9926     -3263.905       17.912475      6652.466       10112.159    
     38400   308.15496     -3245.6398     -3263.4447      17.804973      7043.5709      10112.159    
     38500   291.19464     -3246.192      -3263.017       16.825018      7218.2545      10112.159    
     38600   292.45353     -3247.2456     -3264.1434      16.897756      6593.7974      10112.159    
     38700   304.81593     -3247.4807     -3265.0928      17.612047      6628.9379      10112.159    
     38800   294.36493     -3246.6467     -3263.6549      17.008195      7015.4948      10112.159    
     38900   308.73103     -3245.1038     -3262.942       17.838258      7031.8934      10112.159    
     39000   297.36207     -3245.4335     -3262.6149      17.181368      7391.8932      10112.159    
     39100   311.39366     -3246.1933     -3264.1854      17.992103      6858.8601      10112.159    
     39200   277.96014     -3247.6941     -3263.7544      16.060338      6863.9217      10112.159    
     39300   307.77142     -3247.3235     -3265.1063      17.782813      6461.2918      10112.159    
     39400   285.83839     -3246.8904     -3263.4059      16.515538      6932.5298      10112.159    
     39500   300.81502     -3245.7626     -3263.1434      17.380877      7261.2822      10112.159    
     39600   298.68155     -3245.7287     -3262.9863      17.257607      7151.0494      10112.159    
     39700   306.03119     -3246.3453     -3264.0276      17.682263      6788.3398      10112.159    
     39800   286.2572      -3248.082      -3264.6217      16.539736      6470.3688      10112.159    
     39900   275.28893     -3249.2951     -3265.2011      15.905998      6274.1887      10112.159    
     40000   284.29939     -3248.6931     -3265.1197      16.426616      6501.0661      10112.159    
     40100   286.64873     -3247.4553     -3264.0177      16.562359      6569.6965      10112.159    
     40200   304.91787     -3246.2118     -3263.8298      17.617936      6770.9794      10112.159    
     40300   306.59762     -3245.6352     -3263.3502      17.714991      6948.7696      10112.159    
     40400   308.03223     -3245.6734     -3263.4713      17.797882      7115.2357      10112.159    
     40500   281.49624     -3247.0565     -3263.3211      16.264651      7151.4404      10112.159    
     40600   301.98621     -3247.488      -3264.9365      17.448547      6669.9812      10112.159    
     40700   302.08998     -3247.2726     -3264.7272      17.454543      6617.5529      10112.159    
     40800   290.26711     -3245.5195     -3262.291       16.771426      7554.4084      10112.159    
     40900   320.75061     -3244.5025     -3263.0353      18.532741      7316.4195      10112.159    
     41000   313.2207      -3245.548      -3263.6457      18.097668      6951.7849      10112.159    
     41100   319.36608     -3246.1508     -3264.6035      18.452744      6841.23        10112.159    
     41200   276.97565     -3246.9851     -3262.9886      16.003455      6883.9149      10112.159    
     41300   296.63023     -3246.7566     -3263.8957      17.139083      6895.1952      10112.159    
     41400   311.84953     -3246.0962     -3264.1147      18.018443      6864.8116      10112.159    
     41500   314.44794     -3244.7183     -3262.8869      18.168577      7100.0769      10112.159    
     41600   329.19215     -3243.9237     -3262.9442      19.020487      7520.3708      10112.159    
     41700   287.82988     -3245.604      -3262.2346      16.630605      7206.0908      10112.159    
     41800   308.58174     -3246.167      -3263.9966      17.829632      6909.5936      10112.159    
     41900   295.6349      -3246.8585     -3263.9401      17.081573      6622.9885      10112.159    
     42000   294.27412     -3247.3022     -3264.3051      17.002948      6687.8214      10112.159    
     42100   290.10702     -3247.6524     -3264.4146      16.762176      6617.0201      10112.159    
     42200   288.48117     -3247.0991     -3263.7673      16.668236      6805.3537      10112.159    
     42300   307.84398     -3245.597      -3263.384       17.787005      6895.4921      10112.159    
     42400   312.18233     -3245.3335     -3263.3712      18.037672      7138.0589      10112.159    
     42500   301.4038      -3246.1656     -3263.5805      17.414896      7101.0922      10112.159    
     42600   292.12764     -3247.6034     -3264.4823      16.878926      6597.8708      10112.159    
     42700   288.84025     -3247.8429     -3264.5319      16.688983      6595.8757      10112.159    
     42800   290.25905     -3247.4506     -3264.2216      16.77096       6371.8947      10112.159    
     42900   291.28862     -3246.7365     -3263.567       16.830448      6786.948       10112.159    
     43000   306.05368     -3245.756      -3263.4396      17.683563      6699.0531      10112.159    
     43100   309.94772     -3245.7115     -3263.6201      17.908558      6866.8497      10112.159    
     43200   304.53225     -3246.3276     -3263.9232      17.595655      6823.5255      10112.159    
     43300   271.41076     -3247.9116     -3263.5935      15.68192       6740.1126      10112.159    
     43400   287.92813     -3248.896      -3265.5323      16.636281      6077.8063      10112.159    
     43500   299.59463     -3248.282      -3265.5924      17.310363      6119.3436      10112.159    
     43600   283.07517     -3247.3929     -3263.7487      16.355881      6705.2975      10112.159    
     43700   286.70546     -3246.4517     -3263.0173      16.565636      6841.1237      10112.159    
     43800   306.52968     -3245.7343     -3263.4454      17.711065      6962.6397      10112.159    
     43900   312.43735     -3245.4477     -3263.5002      18.052407      6817.9658      10112.159    
     44000   311.98213     -3246.2204     -3264.2465      18.026105      6518.961       10112.159    
     44100   272.48186     -3247.7411     -3263.4849      15.743807      6674.7622      10112.159    
     44200   301.21398     -3247.1499     -3264.5539      17.403929      6504.8265      10112.159    
     44300   316.28889     -3246.37       -3264.645       18.274946      6643.6067      10112.159    
     44400   311.31705     -3245.509      -3263.4967      17.987676      6937.0296      10112.159    
     44500   299.079       -3244.2006     -3261.4811      17.280571      7529.882       10112.159    
     44600   320.27999     -3243.9334     -3262.439       18.505549      7310.6482      10112.159    
     44700   321.06217     -3246.2304     -3264.7811      18.550742      6536.0125      10112.159    
     44800   294.48692     -3246.9398     -3263.955       17.015244      6548.4974      10112.159    
     44900   289.87299     -3246.971      -3263.7196      16.748654      6817.751       10112.159    
     45000   288.03863     -3246.7582     -3263.4008      16.642666      6745.4262      10112.159    
     45100   322.96933     -3245.3992     -3264.0602      18.660937      6882.0475      10112.159    
     45200   295.86079     -3245.3864     -3262.481       17.094625      7005.4183      10112.159    
     45300   310.4889      -3246.192      -3264.1319      17.939827      6790.2423      10112.159    
     45400   288.52915     -3247.8148     -3264.4858      16.671008      6393.898       10112.159    
     45500   288.47334     -3247.5375     -3264.2053      16.667783      6385.1541      10112.159    
     45600   305.69225     -3246.4618     -3264.1244      17.66268       6850.0134      10112.159    
     45700   301.3864      -3245.677      -3263.0909      17.413891      6915.5762      10112.159    
     45800   303.83577     -3245.3345     -3262.8899      17.555414      7390.6721      10112.159    
     45900   290.77948     -3246.7724     -3263.5734      16.801031      6815.4697      10112.159    
     46000   303.93668     -3247.7959     -3265.3571      17.561244      6435.3244      10112.159    
     46100   278.23431     -3247.8114     -3263.8876      16.076179      6357.2959      10112.159    
     46200   303.74961     -3246.3096     -3263.86        17.550435      6729.8786      10112.159    
     46300   300.23769     -3245.8388     -3263.1863      17.347519      6905.9837      10112.159    
     46400   320.5629      -3245.9505     -3264.4724      18.521895      6591.1207      10112.159    
     46500   288.04068     -3247.0974     -3263.7402      16.642785      6750.4983      10112.159    
     46600   289.49543     -3247.5273     -3264.2542      16.726839      6781.0551      10112.159    
     46700   279.0124      -3248.1721     -3264.2932      16.121137      6374.9497      10112.159    
     46800   305.20061     -3247.5629     -3265.1972      17.634273      6261.5855      10112.159    
     46900   294.55041     -3246.3918     -3263.4107      17.018912      6831.2386      10112.159    
     47000   299.94277     -3245.412      -3262.7425      17.330479      7242.9378      10112.159    
     47100   307.80683     -3245.5286     -3263.3134      17.784858      6936.4097      10112.159    
     47200   298.25192     -3246.4347     -3263.6675      17.232783      6845.2361      10112.159    
     47300   302.82654     -3246.7128     -3264.2099      17.497101      6460.1413      10112.159    
     47400   295.77232     -3246.6848     -3263.7743      17.089513      6775.8384      10112.159    
     47500   303.54384     -3246.3354     -3263.8739      17.538546      6767.8043      10112.159    
     47600   301.64072     -3246.0729     -3263.5015      17.428585      6781.2429      10112.159    
     47700   307.38728     -3245.6317     -3263.3923      17.760617      6993.6792      10112.159    
     47800   299.43523     -3245.7622     -3263.0634      17.301153      6955.7231      10112.159    
     47900   307.92872     -3246.3573     -3264.1492      17.791901      6543.9709      10112.159    
     48000   304.52987     -3247.5162     -3265.1117      17.595518      6202.0998      10112.159    
     48100   289.19574     -3247.8605     -3264.57        16.709523      6539.8314      10112.159    
     48200   285.70594     -3246.6384     -3263.1463      16.507885      6913.7972      10112.159    
     48300   311.26548     -3245.6237     -3263.6083      17.984697      7222.1588      10112.159    
     48400   315.26385     -3245.6843     -3263.9001      18.21572       6829.8132      10112.159    
     48500   301.28244     -3246.3152     -3263.7231      17.407884      6841.9256      10112.159    
     48600   284.33967     -3247.2376     -3263.6665      16.428943      6426.4614      10112.159    
     48700   298.92578     -3247.3234     -3264.5951      17.271718      6742.8212      10112.159    
     48800   298.63533     -3246.8238     -3264.0788      17.254936      6660.647       10112.159    
     48900   311.31296     -3245.5661     -3263.5535      17.98744       6894.3793      10112.159    
     49000   303.1397      -3245.0304     -3262.5456      17.515195      7175.8155      10112.159    
     49100   302.86799     -3245.5101     -3263.0096      17.499496      7028.1207      10112.159    
     49200   296.05526     -3247.3062     -3264.412       17.105861      6460.7224      10112.159    
     49300   300.04539     -3247.4354     -3264.7718      17.336408      6465.7319      10112.159    
     49400   290.76305     -3246.8597     -3263.6597      16.800081      6741.4273      10112.159    
     49500   297.59392     -3246.0018     -3263.1965      17.194764      6997.3102      10112.159    
     49600   290.58784     -3245.9223     -3262.7123      16.789958      6986.4389      10112.159    
     49700   314.08843     -3246.2723     -3264.4201      18.147805      6697.9993      10112.159    
     49800   284.29874     -3247.4201     -3263.8467      16.426578      6554.2571      10112.159    
     49900   307.36374     -3247.0784     -3264.8377      17.759257      6425.9126      10112.159    
     50000   283.83025     -3246.6723     -3263.0718      16.399509      6779.4405      10112.159    
     50100   310.37484     -3245.289      -3263.2222      17.933236      7181.1769      10112.159    
     50200   302.60663     -3245.4586     -3262.943       17.484394      7022.247       10112.159    
     50300   300.68434     -3246.5047     -3263.878       17.373326      6740.1201      10112.159    
     50400   285.05623     -3248.0264     -3264.4968      16.470345      6355.7183      10112.159    
     50500   295.45329     -3248.3265     -3265.3976      17.07108       6358.5332      10112.159    
     50600   288.71185     -3245.9934     -3262.675       16.681564      6977.982       10112.159    
     50700   309.38634     -3244.9665     -3262.8426      17.876121      6900.82        10112.159    
     50800   321.07313     -3245.2543     -3263.8057      18.551376      6621.1293      10112.159    
     50900   301.85353     -3246.6729     -3264.1138      17.440881      6548.2949      10112.159    
     51000   297.94507     -3247.1272     -3264.3422      17.215053      6415.5372      10112.159    
     51100   283.72622     -3247.0163     -3263.4098      16.393498      6924.4819      10112.159    
     51200   314.8864      -3245.4701     -3263.664       18.193911      6956.9456      10112.159    
     51300   307.17619     -3244.655      -3262.4034      17.748421      7342.827       10112.159    
     51400   317.32276     -3245.2615     -3263.5962      18.334682      6756.2366      10112.159    
     51500   304.79683     -3247.1035     -3264.7145      17.610943      6286.2967      10112.159    
     51600   280.65774     -3247.3889     -3263.6051      16.216204      6913.4972      10112.159    
     51700   292.94393     -3246.5644     -3263.4905      16.926091      6715.7336      10112.159    
     51800   315.27826     -3245.4692     -3263.6858      18.216552      6942.4004      10112.159    
     51900   307.16903     -3245.482      -3263.23        17.748007      6749.4428      10112.159    
     52000   288.7182      -3247.0965     -3263.7784      16.681931      6526.5638      10112.159    
     52100   288.32311     -3248.0934     -3264.7525      16.659103      6272.3147      10112.159    
     52200   291.22267     -3247.5795     -3264.4061      16.826638      6685.5194      10112.159    
     52300   289.23321     -3246.7658     -3263.4775      16.711688      6896.991       10112.159    
     52400   304.86019     -3245.9902     -3263.6048      17.614603      6704.5749      10112.159    
     52500   307.19574     -3246.1325     -3263.8821      17.74955       6591.0096      10112.159    
     52600   300.2644      -3246.5687     -3263.9178      17.349062      6594.4139      10112.159    
     52700   292.22741     -3246.7807     -3263.6654      16.88469       6518.0635      10112.159    
     52800   302.07784     -3246.4749     -3263.9288      17.453842      6819.3134      10112.159    
     52900   299.57349     -3245.7856     -3263.0948      17.309142      7001.383       10112.159    
     53000   305.29607     -3245.2222     -3262.862       17.639789      7264.5075      10112.159    
     53100   300.7039      -3245.7525     -3263.1269      17.374456      7020.4116      10112.159    
     53200   293.24756     -3247.1448     -3264.0885      16.943634      6626.7695      10112.159    
     53300   294.38589     -3247.3643     -3264.3737      17.009406      6440.7375      10112.159    
     53400   298.93172     -3246.8662     -3264.1383      17.272061      6677.3986      10112.159    
     53500   301.01377     -3246.3795     -3263.7719      17.39236       6770.4682      10112.159    
     53600   312.09884     -3245.1725     -3263.2053      18.032848      6891.582       10112.159    
     53700   316.39983     -3243.5268     -3261.8082      18.281356      7544.0015      10112.159    
     53800   304.19372     -3245.0071     -3262.5832      17.576096      7245.4376      10112.159    
     53900   304.56903     -3246.054      -3263.6518      17.597781      6623.0096      10112.159    
     54000   303.55687     -3246.885      -3264.4243      17.539299      6750.5704      10112.159    
     54100   292.47865     -3247.5221     -3264.4213      16.899207      6521.2733      10112.159    
     54200   284.88365     -3247.2596     -3263.72        16.460374      6764.8375      10112.159    
     54300   293.11647     -3245.6101     -3262.5461      16.93606       6937.6868      10112.159    
     54400   337.12986     -3244.7184     -3264.1975      19.479122      6705.6789      10112.159    
     54500   303.11294     -3245.6761     -3263.1897      17.513649      6755.5901      10112.159    
     54600   294.35473     -3246.2169     -3263.2245      17.007606      6938.7466      10112.159    
     54700   299.42457     -3246.6728     -3263.9734      17.300537      6809.2878      10112.159    
     54800   283.90556     -3247.4479     -3263.8518      16.40386       6648.8959      10112.159    
     54900   310.98689     -3247.0823     -3265.0509      17.9686        6536.9031      10112.159    
     55000   295.36789     -3245.9637     -3263.0298      17.066145      6973.1523      10112.159    
     55100   314.4469      -3244.8112     -3262.9797      18.168517      7078.2804      10112.159    
     55200   309.17837     -3245.2753     -3263.1394      17.864105      7179.939       10112.159    
     55300   300.73931     -3246.5313     -3263.9078      17.376502      6836.9548      10112.159    
     55400   306.20886     -3246.7053     -3264.3978      17.692529      6472.5059      10112.159    
     55500   287.2489      -3246.767      -3263.364       16.597036      6979.0153      10112.159    
     55600   304.39438     -3246.0293     -3263.617       17.587689      6755.8735      10112.159    
     55700   319.05485     -3244.61       -3263.0447      18.434761      7212.329       10112.159    
     55800   308.19053     -3244.3073     -3262.1143      17.807028      7212.1341      10112.159    
     55900   315.97986     -3245.9755     -3264.2326      18.25709       6820.3609      10112.159    
     56000   297.52115     -3246.7665     -3263.9571      17.190559      6618.8887      10112.159    
     56100   303.82222     -3246.5248     -3264.0794      17.554631      6663.6654      10112.159    
     56200   290.25551     -3246.3724     -3263.1432      16.770756      6952.8536      10112.159    
     56300   299.37726     -3245.7931     -3263.0909      17.297804      7131.6774      10112.159    
     56400   305.07802     -3245.5508     -3263.178       17.62719       6871.9397      10112.159    
     56500   321.42817     -3246.112      -3264.6839      18.57189       6601.4997      10112.159    
     56600   285.30481     -3247.4387     -3263.9234      16.484708      6477.374       10112.159    
     56700   288.97607     -3247.9296     -3264.6264      16.696831      6480.3257      10112.159    
     56800   294.34629     -3246.9951     -3264.0022      17.007118      6634.3262      10112.159    
     56900   302.91614     -3245.6324     -3263.1347      17.502278      7034.0484      10112.159    
     57000   316.20974     -3245.6746     -3263.9449      18.270373      6808.9938      10112.159    
     57100   306.28095     -3246.4492     -3264.1459      17.696694      6736.3367      10112.159    
     57200   279.79211     -3247.6309     -3263.7971      16.166188      6523.6616      10112.159    
     57300   309.66831     -3247.6102     -3265.5026      17.892413      6341.2305      10112.159    
     57400   281.65863     -3246.6193     -3262.8933      16.274034      7050.9306      10112.159    
     57500   320.65607     -3245.1517     -3263.679       18.527278      7141.2769      10112.159    
     57600   307.93411     -3245.9879     -3263.7801      17.792212      6891.9967      10112.159    
     57700   292.16358     -3246.865      -3263.746       16.881003      6621.674       10112.159    
     57800   277.1766      -3247.2344     -3263.2495      16.015066      7059.5465      10112.159    
     57900   312.58609     -3246.5221     -3264.5831      18.061001      6503.1104      10112.159    
     58000   312.27856     -3245.1291     -3263.1724      18.043232      6987.6046      10112.159    
     58100   324.89131     -3244.4234     -3263.1954      18.771988      6880.6447      10112.159    
     58200   292.25977     -3245.7917     -3262.6783      16.88656       7071.2096      10112.159    
     58300   299.8112      -3246.3836     -3263.7065      17.322877      6786.8954      10112.159    
     58400   301.38604     -3246.567      -3263.9809      17.41387       6612.9951      10112.159    
     58500   320.31075     -3246.3231     -3264.8304      18.507326      6434.669       10112.159    
     58600   297.07836     -3246.4197     -3263.5847      17.164975      6798.7754      10112.159    
     58700   301.25629     -3246.0773     -3263.4837      17.406373      7037.6903      10112.159    
     58800   290.52016     -3246.5702     -3263.3563      16.786047      6854.2271      10112.159    
     58900   312.53574     -3246.7477     -3264.8058      18.058091      6384.5347      10112.159    
     59000   290.80288     -3246.845      -3263.6474      16.802382      6556.5434      10112.159    
     59100   312.79456     -3246.2119     -3264.2849      18.073046      6616.5964      10112.159    
     59200   311.15182     -3245.5253     -3263.5034      17.97813       6847.6531      10112.159    
     59300   287.57003     -3245.2713     -3261.8869      16.61559       7404.8245      10112.159    
     59400   328.23716     -3245.1199     -3264.0852      18.965308      6866.9569      10112.159    
     59500   296.19076     -3246.8276     -3263.9413      17.113691      6452.4161      10112.159    
     59600   298.42243     -3246.9846     -3264.2272      17.242635      6514.9656      10112.159    
     59700   287.35856     -3246.8631     -3263.4665      16.603372      6747.7435      10112.159    
     59800   300.49853     -3245.9004     -3263.263       17.36259       7024.4629      10112.159    
     59900   325.21111     -3244.5246     -3263.3151      18.790465      7179.6075      10112.159    
     60000   317.97051     -3245.0531     -3263.4252      18.372109      6910.754       10112.159    
     60100   296.1346      -3246.3526     -3263.463       17.110445      6630.1592      10112.159    
     60200   311.06699     -3246.5095     -3264.4827      17.973228      6738.1737      10112.159    
     60300   289.65472     -3246.9428     -3263.6789      16.736043      6764.5108      10112.159    
     60400   288.05617     -3246.9089     -3263.5526      16.64368       7130.6161      10112.159    
     60500   306.34767     -3245.7061     -3263.4067      17.700549      6964.8187      10112.159    
     60600   333.94812     -3244.5398     -3263.8351      19.295283      7057.018       10112.159    
     60700   306.57185     -3245.2567     -3262.9702      17.713502      6839.5016      10112.159    
     60800   291.85658     -3246.3731     -3263.2363      16.863265      7025.3891      10112.159    
     60900   295.55641     -3246.6634     -3263.7404      17.077038      6746.7193      10112.159    
     61000   304.08354     -3246.7077     -3264.2775      17.569729      6839.432       10112.159    
     61100   298.12284     -3246.6415     -3263.8668      17.225324      6772.1031      10112.159    
     61200   311.14417     -3245.5266     -3263.5043      17.977687      7196.7247      10112.159    
     61300   315.10355     -3244.443      -3262.6495      18.206458      7353.6599      10112.159    
     61400   313.34695     -3244.767      -3262.8719      18.104963      7252.6836      10112.159    
     61500   299.83609     -3246.7737     -3264.098       17.324315      6764.5413      10112.159    
     61600   292.09786     -3246.9443     -3263.8215      16.877205      6690.784       10112.159    
     61700   303.70224     -3246.4024     -3263.9501      17.547698      6966.8051      10112.159    
     61800   311.50177     -3245.9677     -3263.966       17.99835       6942.2867      10112.159    
     61900   297.06041     -3245.5956     -3262.7596      17.163938      6905.2335      10112.159    
     62000   311.93916     -3245.0098     -3263.0334      18.023622      7118.7076      10112.159    
     62100   308.63056     -3246.0167     -3263.8492      17.832453      6760.5519      10112.159    
     62200   300.05        -3247.3478     -3264.6845      17.336674      6669.9056      10112.159    
     62300   284.18434     -3247.5377     -3263.9576      16.419968      6553.745       10112.159    
     62400   298.35708     -3246.5959     -3263.8347      17.238859      6746.7182      10112.159    
     62500   305.64425     -3246.1662     -3263.8261      17.659906      6827.5066      10112.159    
     62600   308.4991      -3246.193      -3264.0179      17.824858      6614.8551      10112.159    
     62700   293.45009     -3246.6161     -3263.5714      16.955336      6681.0625      10112.159    
     62800   298.19447     -3246.4551     -3263.6846      17.229463      6918.8152      10112.159    
     62900   304.48481     -3245.0032     -3262.5961      17.592915      7283.9105      10112.159    
     63000   317.57054     -3244.0831     -3262.4321      18.348999      7378.0307      10112.159    
     63100   314.54001     -3244.9424     -3263.1163      18.173897      7230.595       10112.159    
     63200   307.99285     -3246.7594     -3264.555       17.795607      6678.6186      10112.159    
     63300   294.92147     -3246.9566     -3263.9969      17.040352      6618.9187      10112.159    
     63400   290.71908     -3246.4497     -3263.2473      16.79754       7220.4628      10112.159    
     63500   302.12578     -3245.8513     -3263.3079      17.456612      6829.3212      10112.159    
     63600   324.64797     -3244.9956     -3263.7536      18.757927      6992.5965      10112.159    
     63700   313.97379     -3244.8482     -3262.9894      18.141181      7277.7097      10112.159    
     63800   299.96917     -3246.6512     -3263.9832      17.332004      6723.6263      10112.159    
     63900   303.5445      -3247.2258     -3264.7644      17.538584      6583.3728      10112.159    
     64000   267.71609     -3247.4438     -3262.9122      15.468444      7019.5668      10112.159    
     64100   319.9846      -3246.1        -3264.5885      18.488482      6600.1123      10112.159    
     64200   312.53587     -3245.8709     -3263.929       18.058099      6722.9797      10112.159    
     64300   301.09224     -3245.919      -3263.3159      17.396894      6828.5823      10112.159    
     64400   298.48004     -3246.2436     -3263.4896      17.245963      7010.4161      10112.159    
     64500   283.93891     -3247.6272     -3264.033       16.405787      6591.6652      10112.159    
     64600   283.84133     -3248.7583     -3265.1585      16.400149      6217.9172      10112.159    
     64700   276.98308     -3248.2006     -3264.2045      16.003884      6639.1107      10112.159    
     64800   298.04391     -3247.0201     -3264.2409      17.220764      6571.4415      10112.159    
     64900   302.56651     -3246.2901     -3263.7721      17.482076      6836.5822      10112.159    
     65000   300.60835     -3245.7968     -3263.1657      17.368935      7099.6193      10112.159    
     65100   310.81734     -3245.2507     -3263.2095      17.958804      7094.77        10112.159    
     65200   311.9881      -3245.6267     -3263.6532      18.026449      7071.4981      10112.159    
     65300   294.59848     -3247.2255     -3264.2471      17.021689      6670.6078      10112.159    
     65400   297.82415     -3247.2865     -3264.4946      17.208067      6432.9495      10112.159    
     65500   298.00583     -3246.4796     -3263.6981      17.218564      6850.2987      10112.159    
     65600   305.0353      -3245.601      -3263.2257      17.624721      7200.3197      10112.159    
     65700   310.23261     -3244.9547     -3262.8797      17.925019      7100.1954      10112.159    
     65800   329.7072      -3244.3861     -3263.4363      19.050246      7183.7001      10112.159    
     65900   297.57033     -3245.7858     -3262.9792      17.193401      6936.0026      10112.159    
     66000   301.67894     -3246.5074     -3263.9382      17.430794      6863.4715      10112.159    
     66100   288.13305     -3247.0813     -3263.7294      16.648122      6813.3266      10112.159    
     66200   298.85571     -3247.1567     -3264.4244      17.267669      6538.2237      10112.159    
     66300   311.74284     -3246.1924     -3264.2047      18.012278      6750.3138      10112.159    
     66400   306.25146     -3244.9318     -3262.6268      17.69499       7230.1658      10112.159    
     66500   308.56343     -3245.1131     -3262.9416      17.828574      7149.9691      10112.159    
     66600   297.62072     -3246.1446     -3263.3409      17.196312      7014.3227      10112.159    
     66700   291.44682     -3246.5578     -3263.3973      16.839589      6863.5047      10112.159    
     66800   307.0345      -3246.5201     -3264.2603      17.740234      6668.7693      10112.159    
     66900   308.50155     -3246.6642     -3264.4892      17.824999      6625.1178      10112.159    
     67000   293.30625     -3247.0996     -3264.0466      16.947025      6656.8921      10112.159    
     67100   291.45606     -3247.2596     -3264.0997      16.840123      6810.763       10112.159    
     67200   289.61422     -3246.9502     -3263.6839      16.733703      6574.6848      10112.159    
     67300   311.9984      -3245.7175     -3263.7445      18.027044      7014.3996      10112.159    
     67400   313.01944     -3245.3437     -3263.4297      18.08604       6934.3474      10112.159    
     67500   304.28556     -3246.2232     -3263.8046      17.581402      6968.809       10112.159    
     67600   284.47653     -3247.7741     -3264.2109      16.436851      6715.0288      10112.159    
     67700   281.95816     -3247.6724     -3263.9637      16.291341      6593.2432      10112.159    
     67800   304.95308     -3246.659      -3264.279       17.619971      6900.3633      10112.159    
     67900   311.7223      -3246.0922     -3264.1033      18.011092      6890.0097      10112.159    
     68000   301.48048     -3246.0756     -3263.4949      17.419327      7201.5817      10112.159    
     68100   294.40444     -3246.0997     -3263.1101      17.010478      7095.1311      10112.159    
     68200   294.48949     -3246.3648     -3263.3802      17.015392      7063.8093      10112.159    
     68300   290.16918     -3247.0477     -3263.8135      16.765767      6836.4684      10112.159    
     68400   279.75217     -3248.3487     -3264.5126      16.16388       6263.1018      10112.159    
     68500   282.1039      -3249.1357     -3265.4354      16.299761      6075.9733      10112.159    
     68600   297.0796      -3247.7744     -3264.9395      17.165047      6539.7065      10112.159    
     68700   282.354       -3246.7341     -3263.0483      16.314212      7148.5419      10112.159    
     68800   301.90273     -3245.8126     -3263.2563      17.443724      6959.841       10112.159    
     68900   311.20025     -3245.6524     -3263.6334      17.980928      6742.974       10112.159    
     69000   308.43638     -3246.413      -3264.2342      17.821234      6637.3426      10112.159    
     69100   289.76687     -3247.7417     -3264.4842      16.742522      6429.9344      10112.159    
     69200   283.25192     -3247.9697     -3264.3358      16.366093      6511.863       10112.159    
     69300   302.54494     -3246.2152     -3263.696       17.48083       6632.1429      10112.159    
     69400   298.24922     -3245.1437     -3262.3763      17.232627      7338.0414      10112.159    
     69500   319.84656     -3245.3928     -3263.8733      18.480506      7030.1478      10112.159    
     69600   302.42166     -3246.6355     -3264.1092      17.473707      6756.1422      10112.159    
     69700   303.49932     -3247.1443     -3264.6802      17.535974      6574.2757      10112.159    
     69800   285.18253     -3247.2786     -3263.7562      16.477642      6861.8947      10112.159    
     69900   310.02387     -3245.4515     -3263.3645      17.912957      7280.3483      10112.159    
     70000   305.59327     -3244.8156     -3262.4725      17.656961      7158.3376      10112.159    
     70100   322.99888     -3245.356      -3264.0186      18.662644      6722.9311      10112.159    
     70200   294.15549     -3246.4817     -3263.4778      16.996094      6839.5471      10112.159    
     70300   288.093       -3246.6534     -3263.2992      16.645807      7004.598       10112.159    
     70400   292.26058     -3246.4596     -3263.3462      16.886607      6921.5705      10112.159    
     70500   327.24768     -3245.7032     -3264.6114      18.908137      6668.8559      10112.159    
     70600   307.89636     -3245.5071     -3263.2971      17.790032      7105.019       10112.159    
     70700   299.7776      -3245.6244     -3262.9454      17.320935      7065.7457      10112.159    
     70800   290.81828     -3246.7506     -3263.5538      16.803272      6733.9605      10112.159    
     70900   295.19009     -3247.4295     -3264.4854      17.055872      6593.5189      10112.159    
     71000   296.76358     -3247.2035     -3264.3503      17.146787      6534.4915      10112.159    
     71100   314.06358     -3245.4164     -3263.5627      18.146369      7005.9727      10112.159    
     71200   299.82839     -3245.209      -3262.5329      17.32387       7332.1958      10112.159    
     71300   316.14057     -3245.6492     -3263.9155      18.266376      6892.4071      10112.159    
     71400   284.79717     -3247.0277     -3263.483       16.455377      6723.2876      10112.159    
     71500   311.29672     -3247.0299     -3265.0164      17.986502      6583.1018      10112.159    
     71600   282.12342     -3247.0151     -3263.316       16.300889      6900.7191      10112.159    
     71700   306.20366     -3246.4024     -3264.0947      17.692228      6759.655       10112.159    
     71800   299.92221     -3246.3597     -3263.689       17.329291      6889.0344      10112.159    
     71900   308.51804     -3246.2658     -3264.0918      17.825952      6805.2824      10112.159    
     72000   292.47828     -3246.6816     -3263.5808      16.899186      6901.371       10112.159    
     72100   297.39165     -3246.6085     -3263.7916      17.183077      7029.7305      10112.159    
     72200   306.35733     -3245.4603     -3263.1614      17.701107      7097.1178      10112.159    
     72300   313.92688     -3244.436      -3262.5745      18.138471      7332.8382      10112.159    
     72400   313.602       -3245.0921     -3263.2118      18.1197        7177.7894      10112.159    
     72500   302.89921     -3246.9979     -3264.4992      17.5013        6668.8183      10112.159    
     72600   289.01639     -3247.0611     -3263.7603      16.699161      6919.171       10112.159    
     72700   293.66962     -3246.5925     -3263.5605      16.968021      7130.0509      10112.159    
     72800   291.2166      -3245.9902     -3262.8165      16.826287      7013.3931      10112.159    
     72900   328.09721     -3244.8999     -3263.8572      18.957222      6968.9137      10112.159    
     73000   301.02419     -3245.784      -3263.177       17.392962      6895.775       10112.159    
     73100   299.01645     -3246.3331     -3263.6101      17.276956      7301.6056      10112.159    
     73200   301.31871     -3246.6834     -3264.0933      17.409979      6961.2838      10112.159    
     73300   303.74866     -3246.5279     -3264.0783      17.55038       6731.4139      10112.159    
     73400   304.89659     -3246.1991     -3263.8158      17.616707      6828.1159      10112.159    
     73500   304.9319      -3245.8706     -3263.4893      17.618747      7173.2593      10112.159    
     73600   305.67783     -3245.2449     -3262.9068      17.661846      7155.2758      10112.159    
     73700   313.56399     -3245.7078     -3263.8253      18.117503      6824.7219      10112.159    
     73800   281.38234     -3247.1922     -3263.4503      16.258071      7072.7688      10112.159    
     73900   303.40213     -3247.3162     -3264.8465      17.530358      6454.9745      10112.159    
     74000   291.05305     -3246.9783     -3263.7951      16.816837      6939.5438      10112.159    
     74100   307.33343     -3245.2065     -3262.964       17.757506      7292.3655      10112.159    
     74200   300.42572     -3245.2294     -3262.5878      17.358383      7316.9683      10112.159    
     74300   319.21418     -3245.5883     -3264.0322      18.443967      6827.7037      10112.159    
     74400   293.46396     -3246.6572     -3263.6133      16.956138      6975.792       10112.159    
     74500   293.015       -3246.7689     -3263.6991      16.930197      6752.8417      10112.159    
     74600   290.70558     -3246.8515     -3263.6482      16.79676       6717.981       10112.159    
     74700   304.86524     -3246.3991     -3264.014       17.614896      6958.2784      10112.159    
     74800   314.29804     -3245.0799     -3263.2398      18.159916      7229.3927      10112.159    
     74900   323.5539      -3243.5431     -3262.2378      18.694713      7445.3161      10112.159    
     75000   312.25906     -3244.3902     -3262.4323      18.042105      7463.7816      10112.159    
     75100   297.01544     -3245.5974     -3262.7588      17.16134       7289.7552      10112.159    
     75200   309.55008     -3246.2178     -3264.1034      17.885582      6782.6838      10112.159    
     75300   293.32901     -3247.0889     -3264.0373      16.94834       6878.576       10112.159    
     75400   293.48282     -3247.116      -3264.0732      16.957227      6944.7494      10112.159    
[...]
    281800   305.16628     -3245.3883     -3263.0206      17.632289      7063.5482      10112.159    
    281900   297.6192      -3246.2287     -3263.4249      17.196225      7165.6474      10112.159    
    282000   298.97224     -3247.3292     -3264.6036      17.274402      6601.4968      10112.159    
    282100   301.30076     -3247.762      -3265.171       17.408942      6494.0692      10112.159    
    282200   287.37894     -3247.0947     -3263.6993      16.60455       6830.5144      10112.159    
    282300   304.53701     -3245.3908     -3262.9867      17.595931      7023.5259      10112.159    
    282400   320.27664     -3245.1612     -3263.6665      18.505355      7273.6713      10112.159    
    282500   302.48195     -3246.3143     -3263.7915      17.477191      7019.6998      10112.159    
    282600   287.27202     -3247.2857     -3263.8841      16.598372      6919.6081      10112.159    
    282700   299.58608     -3246.96       -3264.2699      17.309869      6747.8836      10112.159    
    282800   289.26107     -3246.6973     -3263.4106      16.713298      6955.0604      10112.159    
    282900   301.53906     -3246.3003     -3263.7231      17.422711      7021.9035      10112.159    
    283000   297.03496     -3246.3526     -3263.515       17.162468      7164.31        10112.159    
    283100   303.71625     -3246.3474     -3263.8959      17.548507      6903.2013      10112.159    
    283200   299.75467     -3246.415      -3263.7346      17.31961       7119.4625      10112.159    
    283300   296.72962     -3246.5664     -3263.7112      17.144825      6969.5935      10112.159    
    283400   280.98842     -3247.2579     -3263.4933      16.23531       7020.673       10112.159    
    283500   299.32847     -3247.1403     -3264.4353      17.294985      6614.6725      10112.159    
    283600   314.74232     -3246.2939     -3264.4794      18.185586      6854.0503      10112.159    
    283700   295.15919     -3245.8132     -3262.8673      17.054087      7253.0161      10112.159    
    283800   305.10591     -3245.2863     -3262.9151      17.628801      7749.1707      10112.159    
    283900   308.16899     -3244.8722     -3262.678       17.805784      7244.547       10112.159    
    284000   305.09702     -3245.9953     -3263.6236      17.628288      7192.6333      10112.159    
    284100   299.47432     -3247.2966     -3264.6         17.303412      6967.203       10112.159    
    284200   282.00768     -3247.7223     -3264.0165      16.294202      6765.0774      10112.159    
    284300   298.7213      -3246.8225     -3264.0824      17.259903      6984.9233      10112.159    
    284400   288.03001     -3246.254      -3262.8961      16.642168      7382.2543      10112.159    
    284500   305.29967     -3246.1267     -3263.7667      17.639997      7123.4284      10112.159    
    284600   307.31016     -3246.343      -3264.0992      17.756161      6939.0684      10112.159    
    284700   286.54296     -3247.0619     -3263.6182      16.556247      6881.175       10112.159    
    284800   278.52411     -3248.0668     -3264.1597      16.092924      6703.2395      10112.159    
    284900   291.78248     -3248.6062     -3265.4652      16.858983      6499.7809      10112.159    
    285000   291.11124     -3247.761      -3264.5812      16.820199      6434.6852      10112.159    
    285100   304.31966     -3246.3678     -3263.9511      17.583372      6949.6952      10112.159    
    285200   298.85612     -3245.8249     -3263.0926      17.267693      7242.4973      10112.159    
    285300   314.76203     -3245.4281     -3263.6149      18.186725      6958.9252      10112.159    
    285400   296.44392     -3246.5862     -3263.7145      17.128318      6729.1186      10112.159    
    285500   300.31626     -3247.8924     -3265.2445      17.352059      6353.62        10112.159    
    285600   280.25118     -3247.9665     -3264.1592      16.192713      6682.8785      10112.159    
    285700   299.25838     -3247.0861     -3264.377       17.290935      6774.7568      10112.159    
    285800   295.31154     -3246.799      -3263.8619      17.062889      6926.9788      10112.159    
    285900   296.37007     -3246.2523     -3263.3763      17.12405       6929.4456      10112.159    
    286000   305.41129     -3245.3418     -3262.9882      17.646446      7416.1425      10112.159    
    286100   312.03417     -3244.7513     -3262.7805      18.029111      7464.044       10112.159    
    286200   326.00094     -3244.3468     -3263.1829      18.836101      7193.9102      10112.159    
    286300   299.92131     -3245.9805     -3263.3098      17.329239      7061.9281      10112.159    
    286400   299.68473     -3247.0286     -3264.3442      17.315569      7035.4819      10112.159    
    286500   294.06131     -3247.4239     -3264.4145      16.990652      6624.7703      10112.159    
    286600   303.87954     -3246.5969     -3264.1548      17.557942      6768.2341      10112.159    
    286700   304.06907     -3245.3769     -3262.9458      17.568893      7196.3172      10112.159    
    286800   297.25291     -3245.3801     -3262.5552      17.17506       7340.708       10112.159    
    286900   323.62427     -3245.8807     -3264.5795      18.698779      6938.0549      10112.159    
    287000   303.32434     -3246.5341     -3264.06        17.525864      6784.7791      10112.159    
    287100   280.84946     -3246.6484     -3262.8757      16.227281      7212.0056      10112.159    
    287200   312.26394     -3246.0972     -3264.1396      18.042387      6968.1675      10112.159    
    287300   290.624       -3246.7926     -3263.5846      16.792047      6808.7348      10112.159    
    287400   295.65277     -3247.7517     -3264.8343      17.082606      6582.7401      10112.159    
    287500   281.46886     -3248.1501     -3264.4131      16.263069      6592.1478      10112.159    
    287600   294.46369     -3246.7525     -3263.7664      17.013901      6760.6911      10112.159    
    287700   314.84166     -3245.8297     -3264.021       18.191326      6873.0995      10112.159    
    287800   305.11139     -3245.8303     -3263.4594      17.629118      7166.811       10112.159    
    287900   292.98053     -3246.2863     -3263.2145      16.928205      7137.4858      10112.159    
    288000   274.06576     -3247.7024     -3263.5377      15.835323      6786.8861      10112.159    
    288100   305.98996     -3247.9865     -3265.6664      17.679881      6355.9534      10112.159    
    288200   300.91898     -3247.0577     -3264.4446      17.386883      6681.2392      10112.159    
    288300   282.59494     -3245.5198     -3261.848       16.328134      7391.111       10112.159    
    288400   311.69095     -3245.0344     -3263.0437      18.00928       7411.6829      10112.159    
    288500   309.06506     -3246.0042     -3263.8618      17.857558      6660.7721      10112.159    
    288600   295.36617     -3247.1834     -3264.2495      17.066046      6785.5347      10112.159    
    288700   289.70525     -3247.2823     -3264.0212      16.738962      6895.0838      10112.159    
    288800   292.43374     -3246.8184     -3263.715       16.896612      6797.2407      10112.159    
    288900   306.97138     -3246.4507     -3264.1872      17.736587      6948.1579      10112.159    
    289000   297.35257     -3246.3774     -3263.5582      17.180819      7075.7104      10112.159    
    289100   317.2684      -3246.0565     -3264.388       18.331541      7088.8057      10112.159    
    289200   276.96531     -3246.8309     -3262.8338      16.002858      7251.4865      10112.159    
    289300   316.10407     -3246.3904     -3264.6546      18.264267      6899.012       10112.159    
    289400   302.44753     -3244.4025     -3261.8777      17.475202      7458.6989      10112.159    
    289500   330.74076     -3244.1682     -3263.2781      19.109965      7271.3864      10112.159    
    289600   298.79513     -3245.8525     -3263.1167      17.264169      7342.4816      10112.159    
    289700   287.62579     -3246.8989     -3263.5177      16.618812      6922.0493      10112.159    
    289800   306.89856     -3247.0695     -3264.8019      17.732379      6491.1428      10112.159    
    289900   297.14911     -3246.9837     -3264.1528      17.169063      6726.1733      10112.159    
    290000   313.71697     -3245.4616     -3263.588       18.126342      7273.716       10112.159    
    290100   297.34875     -3245.2466     -3262.4272      17.180598      7485.6937      10112.159    
    290200   287.8847      -3245.876      -3262.5097      16.633772      7213.5129      10112.159    
    290300   315.69214     -3246.6724     -3264.9129      18.240466      6607.5823      10112.159    
    290400   286.12422     -3248.1233     -3264.6553      16.532053      6539.2816      10112.159    
    290500   288.19792     -3247.4984     -3264.1503      16.65187       6877.8682      10112.159    
    290600   299.07564     -3246.4837     -3263.764       17.280377      6965.6915      10112.159    
    290700   311.12529     -3245.6898     -3263.6664      17.976597      7055.3638      10112.159    
    290800   306.04565     -3245.825      -3263.5081      17.683099      6909.1015      10112.159    
    290900   282.04706     -3247.3866     -3263.6831      16.296478      6707.8426      10112.159    
    291000   289.65534     -3248.5878     -3265.3239      16.736079      6518.9579      10112.159    
    291100   286.07075     -3248.2256     -3264.7546      16.528963      6609.1111      10112.159    
    291200   287.98203     -3247.3571     -3263.9965      16.639396      6687.2392      10112.159    
    291300   296.67601     -3246.3798     -3263.5215      17.141727      6999.9368      10112.159    
    291400   304.59211     -3245.8091     -3263.4082      17.599114      6935.4505      10112.159    
    291500   317.50267     -3245.1739     -3263.5189      18.345077      7047.9383      10112.159    
    291600   321.27399     -3244.7834     -3263.3464      18.562982      7203.8548      10112.159    
    291700   298.92682     -3246.31       -3263.5818      17.271778      7070.471       10112.159    
    291800   286.63873     -3247.3896     -3263.9514      16.561781      6934.6657      10112.159    
    291900   297.03721     -3247.3761     -3264.5387      17.162598      6570.4656      10112.159    
    292000   299.63036     -3246.6414     -3263.9539      17.312428      6705.4887      10112.159    
    292100   312.03515     -3244.6936     -3262.7227      18.029168      7274.1788      10112.159    
    292200   308.94831     -3244.9281     -3262.779       17.850813      7210.3011      10112.159    
    292300   300.03116     -3246.1703     -3263.5059      17.335586      6883.9397      10112.159    
    292400   306.41161     -3246.7615     -3264.4658      17.704243      6786.1171      10112.159    
    292500   297.64728     -3247.0987     -3264.2965      17.197847      6515.468       10112.159    
    292600   294.15904     -3246.9638     -3263.9601      16.996299      6726.7831      10112.159    
    292700   300.12896     -3245.6271     -3262.9684      17.341236      7008.1163      10112.159    
    292800   319.97096     -3244.7694     -3263.2571      18.487693      7146.7361      10112.159    
    292900   308.46265     -3245.7794     -3263.6022      17.822751      6869.0512      10112.159    
    293000   301.40544     -3246.6744     -3264.0893      17.414991      6748.5982      10112.159    
    293100   288.10698     -3246.8078     -3263.4544      16.646615      6775.2592      10112.159    
    293200   304.56657     -3246.6247     -3264.2224      17.597639      6729.4296      10112.159    
    293300   289.0812      -3246.684      -3263.3869      16.702905      6826.4931      10112.159    
    293400   326.26052     -3244.9064     -3263.7575      18.8511        6913.2406      10112.159    
    293500   306.31825     -3244.6315     -3262.3303      17.698849      7169.9908      10112.159    
    293600   300.32957     -3245.6536     -3263.0065      17.352828      7236.0114      10112.159    
    293700   297.50545     -3247.1191     -3264.3087      17.189652      6757.9894      10112.159    
    293800   287.15065     -3247.1989     -3263.7903      16.591359      6574.6556      10112.159    
    293900   308.61429     -3246.2617     -3264.0932      17.831513      6954.165       10112.159    
    294000   299.89101     -3246.1086     -3263.4361      17.327488      6943.8312      10112.159    
    294100   292.22781     -3246.5903     -3263.475       16.884714      7042.2733      10112.159    
    294200   293.60748     -3247.8541     -3264.8186      16.96443       6681.106       10112.159    
    294300   288.23867     -3248.2449     -3264.8991      16.654224      6440.5098      10112.159    
    294400   289.37216     -3247.0355     -3263.7552      16.719717      6987.4318      10112.159    
    294500   304.61385     -3246.0747     -3263.6751      17.60037       6773.7195      10112.159    
    294600   309.64405     -3246.1114     -3264.0024      17.891012      6515.4244      10112.159    
    294700   295.94439     -3246.7657     -3263.8652      17.099455      6709.8319      10112.159    
    294800   284.64529     -3247.3238     -3263.7704      16.446601      6813.8531      10112.159    
    294900   301.05924     -3247.4498     -3264.8448      17.394988      6770.183       10112.159    
    295000   302.30314     -3246.8448     -3264.3117      17.46686       6557.9633      10112.159    
    295100   302.38116     -3245.7114     -3263.1828      17.471367      7125.6738      10112.159    
    295200   310.55967     -3245.399      -3263.343       17.943915      7045.8546      10112.159    
    295300   303.12629     -3246.55       -3264.0644      17.51442       6937.3628      10112.159    
    295400   284.82801     -3247.8111     -3264.2683      16.457159      6656.3935      10112.159    
    295500   292.42867     -3247.3033     -3264.1996      16.89632       6609.8247      10112.159    
    295600   305.31213     -3246.6471     -3264.2878      17.640717      6562.4787      10112.159    
    295700   295.04497     -3246.239      -3263.2865      17.047487      6938.4594      10112.159    
    295800   319.73064     -3245.065      -3263.5388      18.473808      7118.115       10112.159    
    295900   293.92835     -3245.2271     -3262.2101      16.98297       7275.1098      10112.159    
    296000   304.7101      -3246.7892     -3264.3951      17.605932      6572.9515      10112.159    
    296100   291.94459     -3247.7097     -3264.5781      16.868349      6668.7408      10112.159    
    296200   288.08467     -3247.2405     -3263.8858      16.645326      6674.1875      10112.159    
    296300   317.20339     -3246.1887     -3264.5165      18.327785      6727.5463      10112.159    
    296400   291.06096     -3246.4142     -3263.2315      16.817294      7016.0387      10112.159    
    296500   300.32183     -3246.2694     -3263.6217      17.35238       7082.9044      10112.159    
    296600   301.29895     -3246.446      -3263.8549      17.408838      6723.8519      10112.159    
    296700   290.45158     -3247.314      -3264.0961      16.782085      6764.1277      10112.159    
    296800   299.67558     -3247.7071     -3265.0222      17.315041      6449.6874      10112.159    
    296900   286.16524     -3247.3456     -3263.88        16.534423      6819.7846      10112.159    
    297000   294.69956     -3245.9092     -3262.9367      17.02753       7141.7366      10112.159    
    297100   314.25683     -3245.4503     -3263.6078      18.157535      6895.9331      10112.159    
    297200   317.79116     -3245.9636     -3264.3254      18.361746      6567.0449      10112.159    
    297300   275.00554     -3247.2523     -3263.1419      15.889623      6791.8743      10112.159    
    297400   309.50006     -3246.9762     -3264.8589      17.882692      6686.6867      10112.159    
    297500   295.38969     -3247.2136     -3264.281       17.067405      6621.65        10112.159    
    297600   309.85176     -3246.5186     -3264.4217      17.903013      6827.4581      10112.159    
    297700   292.98795     -3245.9273     -3262.856       16.928634      6883.3451      10112.159    
    297800   306.84345     -3245.6099     -3263.3391      17.729195      6906.5702      10112.159    
    297900   291.25007     -3246.6303     -3263.4585      16.828221      6874.9586      10112.159    
    298000   295.83391     -3247.8689     -3264.9619      17.093072      6401.9723      10112.159    
    298100   276.03591     -3248.0847     -3264.0338      15.949157      6588.5602      10112.159    
    298200   317.92167     -3246.5004     -3264.8697      18.369287      6450.1583      10112.159    
    298300   278.4717      -3246.5803     -3262.6702      16.089895      7054.3867      10112.159    
    298400   316.3166      -3245.7246     -3264.0011      18.276547      6899.1608      10112.159    
    298500   298.39719     -3246.167      -3263.4082      17.241176      7119.4219      10112.159    
    298600   285.38463     -3247.0191     -3263.5084      16.48932       6837.6391      10112.159    
    298700   305.86442     -3247.0723     -3264.745       17.672627      6609.2329      10112.159    
    298800   279.34618     -3247.5315     -3263.672       16.140423      6671.237       10112.159    
    298900   307.47963     -3246.5362     -3264.3021      17.765953      6664.5091      10112.159    
    299000   296.45622     -3245.9441     -3263.0732      17.129028      7158.2747      10112.159    
    299100   308.64873     -3245.4853     -3263.3188      17.833503      7046.7363      10112.159    
    299200   316.25458     -3245.4697     -3263.7426      18.272964      7119.5042      10112.159    
    299300   290.38669     -3246.8293     -3263.6077      16.778335      6881.9537      10112.159    
    299400   290.01326     -3247.5232     -3264.2799      16.756759      6542.1224      10112.159    
    299500   305.53551     -3247.2108     -3264.8644      17.653623      6593.2111      10112.159    
    299600   315.1587      -3245.5813     -3263.791       18.209644      6860.2259      10112.159    
    299700   316.06851     -3244.794      -3263.0563      18.262213      7000.7035      10112.159    
    299800   300.58444     -3245.56       -3262.9275      17.367554      7253.8527      10112.159    
    299900   298.62363     -3246.3817     -3263.636       17.25426       6957.2003      10112.159    
    300000   309.18386     -3246.4423     -3264.3067      17.864423      6865.8619      10112.159    
Loop time of 2263.36 on 20 procs for 300000 steps with 448 atoms

Performance: 11.452 ns/day, 2.096 hours/ns, 132.546 timesteps/s, 59.381 katom-step/s
99.9% CPU use with 20 MPI tasks x 1 OpenMP threads

MPI task timing breakdown:
Section |  min time  |  avg time  |  max time  |%varavg| %total
---------------------------------------------------------------
Pair    | 1744.5     | 1998.8     | 2172.5     | 416.2 | 88.31
Neigh   | 20.269     | 28.435     | 34.86      | 120.6 |  1.26
Comm    | 52.763     | 232.98     | 495.59     |1261.1 | 10.29
Output  | 0.35772    | 0.58285    | 0.65325    |   7.8 |  0.03
Modify  | 2.0442     | 2.2322     | 2.4928     |   7.8 |  0.10
Other   |            | 0.2839     |            |       |  0.01

Nlocal:           22.4 ave          24 max          18 min
Histogram: 2 0 0 4 0 0 2 0 0 12
Nghost:          495.2 ave         522 max         466 min
Histogram: 4 0 0 8 0 0 0 0 0 8
Neighs:              0 ave           0 max           0 min
Histogram: 20 0 0 0 0 0 0 0 0 0
FullNghs:       1277.4 ave        1376 max        1026 min
Histogram: 2 0 0 4 0 0 2 0 0 12

Total # of neighbors = 25548
Ave neighs/atom = 57.026786
Neighbor list builds = 300000
Dangerous builds not checked
Total wall time: 0:37:43
