ITEM: TIMESTEP
0
ITEM: NUMBER OF ATOMS
525
ITEM: BOX BOUNDS
0.0 21.724
0.0 21.724
0.0 21.724
ITEM: ATOMS id type x y z 
1 1 7.08193 9.17509 9.83735 
2 1 9.15099 7.1123 9.83776 
3 1 7.08405 7.11101 11.9002 
4 1 9.15212 9.17675 11.9013 
5 1 10.7279 8.1596 13.478 
6 1 8.13015 10.7516 13.4758 
7 1 10.7252 10.754 10.8817 
8 1 6.97484 9.3375 9.72902 
9 1 9.3077 7.00969 9.73046 
10 1 6.97705 7.00866 12.0587 
11 1 8.79739 8.82994 11.5489 
12 1 10.62 8.32208 13.3702 
13 1 8.28619 10.6476 13.3696 
14 1 10.6188 10.6488 11.0388 
15 1 6.86775 9.49992 9.62069 
16 1 9.46441 6.90709 9.62317 
17 1 6.87004 6.90631 12.2171 
18 1 8.44266 8.48312 11.1965 
19 1 10.5121 8.48457 13.2624 
20 1 8.44223 10.5435 13.2633 
21 1 10.5124 10.5437 11.1959 
22 2 21.6973 21.721 0.00688225 
23 2 21.6969 2.71493 2.72619 
24 2 2.68745 21.7205 2.72477 
25 2 2.69088 2.71495 0.00630037 
26 2 1.33124 1.35658 1.36548 
27 2 1.33187 4.07362 4.0858 
28 2 4.0455 1.35692 4.08394 
29 2 4.0483 4.07206 1.36949 
30 2 5.40358 21.724 0.00751835 
31 2 5.40732 2.71783 2.73233 
32 2 8.11877 0.00678071 2.73421 
33 2 8.11782 2.71709 0.0091092 
34 2 6.76084 1.35864 1.36924 
35 2 6.76167 4.07952 4.09599 
36 2 9.46794 1.37418 4.10031 
37 2 9.47402 4.07461 1.37142 
38 2 10.8297 0.0021368 0.00990572 
39 2 10.8296 2.72181 2.73604 
40 2 13.5441 0.00241007 2.72871 
41 2 13.5457 2.71794 0.0107972 
42 2 12.1852 1.36252 1.37221 
43 2 12.1758 4.08487 4.10209 
44 2 14.8989 1.36373 4.08939 
45 2 14.9 4.07789 1.37327 
46 2 16.263 21.7239 0.00874342 
47 2 16.2605 2.71804 2.72856 
48 2 18.9788 21.7229 2.72683 
49 2 18.9815 2.71514 0.00829986 
50 2 17.6208 1.35907 1.36846 
51 2 17.6157 4.07805 4.08923 
52 2 20.3365 1.35835 4.08599 
53 2 20.3386 4.07428 1.36745 
54 2 21.7 5.42945 0.00718387 
55 2 21.7026 8.14432 2.73181 
56 2 2.69281 5.43167 2.73109 
57 2 2.69029 8.14175 0.00552514 
58 2 1.33372 6.78625 1.36899 
59 2 1.34647 9.49239 4.09852 
60 2 4.05248 6.78736 4.09537 
61 2 4.0482 9.49761 1.36666 
62 2 5.40397 5.42992 0.00741903 
63 2 5.40477 8.14158 2.72905 
64 2 8.11653 5.43192 2.73081 
65 2 8.11626 8.14489 0.00694921 
66 2 6.76113 6.78632 1.36769 
67 2 6.76207 9.49594 4.08983 
68 2 9.4689 6.79126 4.09125 
69 2 9.47293 9.5019 1.36743 
70 2 10.8308 5.43189 0.0104455 
71 2 10.8266 8.1452 2.73044 
72 2 13.5383 5.43272 2.73627 
73 2 13.5427 8.1464 0.0102018 
74 2 12.1862 6.78937 1.37164 
75 2 12.1772 9.50034 4.09737 
76 2 14.884 6.79407 4.10295 
77 2 14.8988 9.50238 1.37236 
78 2 16.2604 5.43145 0.0103244 
79 2 16.2509 8.1421 2.73527 
80 2 18.9779 5.4314 2.7278 
81 2 18.9779 8.14298 0.00836771 
82 2 17.6158 6.78987 1.37184 
83 2 17.6146 9.50084 4.08753 
84 2 20.3395 6.78711 4.08726 
85 2 20.3392 9.49817 1.36886 
86 2 21.6965 10.8534 0.00552137 
87 2 21.6956 13.5679 2.72487 
88 2 2.69262 10.8521 2.73029 
89 2 2.68784 13.5676 0.00340759 
90 2 1.33208 12.209 1.3675 
91 2 1.333 14.9221 4.0855 
92 2 4.05544 12.2001 4.09579 
93 2 4.04623 14.9239 1.3653 
94 2 5.40228 10.8559 0.00409466 
95 2 5.40224 13.5642 2.72943 
96 2 8.11471 10.8546 2.72912 
97 2 8.1139 13.5719 0.00565944 
98 2 6.75949 12.2112 1.36619 
99 2 6.76397 14.9106 4.09673 
100 2 9.46892 12.208 4.09475 
101 2 9.47098 14.929 1.36714 
102 2 10.8283 10.8612 0.00760532 
103 2 10.8238 13.5699 2.73128 
104 2 13.5374 10.8557 2.73351 
105 2 13.5414 13.5749 0.00778613 
106 2 12.1854 12.2164 1.37034 
107 2 12.1842 14.9304 4.08549 
108 2 14.8981 12.2162 4.08619 
109 2 14.9011 14.9329 1.36669 
110 2 16.2566 10.8583 0.00912664 
111 2 16.2584 13.5735 2.726 
112 2 18.977 10.8557 2.72685 
113 2 18.9756 13.5711 0.00736887 
114 2 17.6175 12.2145 1.36759 
115 2 17.6184 14.9314 4.08396 
116 2 20.3398 12.2107 4.08609 
117 2 20.3358 14.9281 1.36662 
118 2 21.6945 16.286 0.00613419 
119 2 21.6941 19.0033 2.72404 
120 2 2.68717 16.283 2.72309 
121 2 2.68705 19.0032 0.00638053 
122 2 1.32854 17.6442 1.36533 
123 2 1.32868 20.3616 4.08288 
124 2 4.04667 17.639 4.08395 
125 2 4.04538 20.3623 1.36487 
126 2 5.40179 16.2848 0.00451572 
127 2 5.4019 19.0026 2.7254 
128 2 8.11177 16.2805 2.731 
129 2 8.11563 19.006 0.00690771 
130 2 6.75924 17.643 1.36592 
131 2 6.75879 20.3649 4.08426 
132 2 9.47178 17.6438 4.08453 
133 2 9.47053 20.368 1.36948 
134 2 10.8277 16.2893 0.00681783 
135 2 10.8285 19.0079 2.72794 
136 2 13.5425 16.2906 2.72663 
137 2 13.5452 19.008 0.00777545 
138 2 12.1857 17.6498 1.36618 
139 2 12.1839 20.37 4.08797 
140 2 14.9013 17.65 4.08564 
141 2 14.9026 20.367 1.36811 
142 2 16.2601 16.2899 0.00681262 
143 2 16.2611 19.0077 2.72704 
144 2 18.9769 16.288 2.72469 
145 2 18.9788 19.0049 0.00693457 
146 2 17.6191 17.6482 1.36676 
147 2 17.6188 20.3671 4.08685 
148 2 20.3354 17.6459 4.08355 
149 2 20.3367 20.3638 1.36629 
150 2 21.6963 21.7223 5.44234 
151 2 21.7026 2.71923 8.16141 
152 2 2.69429 0.00395357 8.15739 
153 2 2.69017 2.71594 5.44387 
154 2 1.33139 1.35796 6.80056 
155 2 1.3433 4.07984 9.51578 
156 2 4.05506 1.36844 9.51219 
157 2 4.0495 4.07474 6.8023 
158 2 5.4063 0.00391323 5.4437 
159 2 5.41301 2.73247 8.16264 
160 2 8.11754 0.0048164 8.15678 
161 2 8.12566 2.74674 5.47217 
162 2 6.76238 1.36859 6.80351 
163 2 6.76999 4.10096 9.52033 
164 2 9.47168 1.36658 9.5148 
165 2 9.45163 4.13463 6.85932 
166 2 10.8285 0.00935513 5.44821 
167 2 10.8178 2.74444 8.1711 
168 2 13.5387 0.0126815 8.16071 
169 2 13.5389 2.72397 5.44928 
170 2 12.1764 1.3771 6.81081 
171 2 12.1281 4.13699 9.53602 
172 2 14.8851 1.38003 9.52191 
173 2 14.8855 4.08693 6.81166 
174 2 16.2595 0.00399757 5.44626 
175 2 16.2518 2.72657 8.16137 
176 2 18.9783 0.00327583 8.16025 
177 2 18.9765 2.71752 5.44557 
178 2 17.6148 1.36432 6.80712 
179 2 17.6174 4.07813 9.51778 
180 2 20.3407 1.36139 9.51713 
181 2 20.339 4.07435 6.80343 
182 2 21.7012 5.43213 5.44717 
183 2 21.7011 8.14251 8.15884 
184 2 2.70668 5.43691 8.16371 
185 2 2.71827 8.1499 5.47183 
186 2 1.34212 6.78743 6.80627 
187 2 1.33802 9.49621 9.51622 
188 2 4.07439 6.79553 9.51986 
189 2 4.10387 9.47846 6.85702 
190 2 5.41065 5.43712 5.45996 
191 2 5.50787 8.1566 8.26146 
192 2 8.12773 5.53838 8.26254 
193 2 8.11472 8.14386 5.45426 
194 2 6.76703 6.79654 6.82741 
195 2 9.46134 9.49256 6.82829 
196 2 10.8159 5.44562 5.46774 
197 2 10.7235 8.13534 8.26306 
198 2 13.5199 5.44746 8.1719 
199 2 13.5109 8.13761 5.47421 
200 2 12.1261 6.81054 6.86049 
201 2 12.1597 9.49321 9.52355 
202 2 14.8977 6.79366 9.51861 
203 2 14.8886 9.50014 6.80676 
204 2 16.2515 5.43385 5.4493 
205 2 16.2561 8.14731 8.15889 
206 2 18.9775 5.43289 8.15927 
207 2 18.9774 8.1444 5.44367 
208 2 17.616 6.78997 6.80227 
209 2 17.6186 9.50317 9.5132 
210 2 20.3401 6.78776 9.51614 
211 2 20.34 9.49876 6.80132 
212 2 21.7035 10.8537 5.44535 
213 2 21.7048 13.5655 8.15397 
214 2 2.71192 10.8424 8.16753 
215 2 2.69423 13.5619 5.44437 
216 2 1.34639 12.2016 6.8069 
217 2 1.34763 14.912 9.51486 
218 2 4.10456 12.1532 9.53125 
219 2 4.05592 14.9098 6.80622 
220 2 5.41445 10.842 5.46438 
221 2 5.41575 13.5454 8.16777 
222 2 8.10091 10.751 8.26265 
223 2 8.10552 13.5398 5.47217 
224 2 6.77821 12.1529 6.85668 
225 2 6.76286 14.9205 9.51572 
226 2 9.46241 12.1849 9.52155 
227 2 9.46937 14.9173 6.80528 
228 2 10.8183 10.8508 5.4611 
229 2 10.8193 13.5543 8.16527 
230 2 13.5252 10.8507 8.16484 
231 2 13.5391 13.5719 5.44575 
232 2 12.1812 12.2119 6.80374 
233 2 12.1779 14.919 9.5158 
234 2 14.8896 12.2092 9.51429 
235 2 14.8985 14.9313 6.80087 
236 2 16.2513 10.8551 5.44573 
237 2 16.2524 13.5697 8.15862 
238 2 18.9784 10.8584 8.15474 
239 2 18.9771 13.5705 5.44141 
240 2 17.614 12.214 6.7995 
241 2 17.6151 14.93 9.51117 
242 2 20.3411 12.2131 9.51153 
243 2 20.3398 14.9263 6.79991 
244 2 21.6961 16.2848 5.43973 
245 2 21.6985 19.0052 8.15416 
246 2 2.69459 16.2776 8.15352 
247 2 2.68891 19.0023 5.43999 
248 2 1.3328 17.641 6.79873 
249 2 1.33361 20.3672 9.51107 
250 2 4.04885 17.6409 9.51052 
251 2 4.04701 20.3649 6.79707 
252 2 5.40336 16.2762 5.44415 
253 2 5.4038 19.0026 8.15315 
254 2 8.11627 16.2823 8.15877 
255 2 8.1153 19.0044 5.44213 
256 2 6.76023 17.64 6.79823 
257 2 6.76076 20.3655 9.50923 
258 2 9.47286 17.6454 9.51312 
259 2 9.47184 20.3672 6.79916 
260 2 10.825 16.2835 5.44687 
261 2 10.8291 19.0087 8.15805 
262 2 13.5385 16.2842 8.16206 
263 2 13.5429 19.0099 5.44561 
264 2 12.1852 17.6461 6.80172 
265 2 12.1847 20.3719 9.51476 
266 2 14.8986 17.6473 9.5147 
267 2 14.8982 20.3725 6.80519 
268 2 16.2592 16.2897 5.44291 
269 2 16.2578 19.0097 8.15972 
270 2 18.9777 16.2874 8.15444 
271 2 18.978 19.0065 5.44246 
272 2 17.6175 17.6499 6.80062 
273 2 17.6151 20.3715 9.51738 
274 2 20.3393 17.6454 9.51155 
275 2 20.3361 20.3659 6.80063 
276 2 21.7065 0.00732585 10.8714 
277 2 21.7088 2.72122 13.5823 
278 2 2.69821 0.00700299 13.5796 
279 2 2.72194 2.74518 10.8758 
280 2 1.34993 1.37407 12.2201 
281 2 1.35134 4.08396 14.9285 
282 2 4.06163 1.37508 14.9258 
283 2 4.10773 4.13117 12.2034 
284 2 5.40823 0.00447746 10.8672 
285 2 5.42103 2.74195 13.5673 
286 2 8.1185 0.00758281 13.5805 
287 2 8.1202 2.73038 10.868 
288 2 6.76651 1.36707 12.2199 
289 2 6.785 4.13445 14.878 
290 2 9.47353 1.37472 14.9325 
291 2 9.46625 4.10506 12.2168 
292 2 10.8288 0.00874897 10.8712 
293 2 10.8245 2.74064 13.5767 
294 2 13.5416 0.0120134 13.5825 
295 2 13.5148 2.75363 10.8646 
296 2 12.1812 1.3753 12.2259 
297 2 12.1868 4.08265 14.9399 
298 2 14.9028 1.36433 14.9426 
299 2 14.8927 4.08568 12.2288 
300 2 16.2527 0.0126913 10.8707 
301 2 16.2565 2.72472 13.5845 
302 2 18.9823 0.00313668 13.5833 
303 2 18.9793 2.71979 10.8735 
304 2 17.6177 1.36392 12.2306 
305 2 17.6197 4.07746 14.944 
306 2 20.3456 1.36164 14.9386 
307 2 20.3425 4.07559 12.2299 
308 2 21.7025 5.432 10.8716 
309 2 21.7026 8.14397 13.5819 
310 2 2.71715 5.44328 13.568 
311 2 2.70151 8.14256 10.8682 
312 2 1.33988 6.79042 12.2236 
313 2 1.34417 9.49853 14.9333 
314 2 4.10889 6.80714 14.8792 
315 2 4.07426 9.49104 12.2155 
316 2 5.5091 5.53545 10.8793 
317 2 5.51018 8.13157 13.475 
318 2 8.10772 5.5395 13.4765 
319 2 20.3398 20.3644 17.6521 
320 2 6.77154 9.49008 14.91 
321 2 9.46838 6.79837 14.9104 
322 2 10.7266 5.54155 10.86 
323 2 13.5295 5.44484 13.5787 
324 2 13.5347 8.14689 10.8719 
325 2 12.1623 6.80019 12.2199 
326 2 12.1315 9.48246 14.8822 
327 2 14.8938 6.79402 14.9369 
328 2 14.8974 9.50079 12.2246 
329 2 16.2587 5.43707 10.8739 
330 2 16.259 8.14862 13.5839 
331 2 18.981 5.43302 13.5863 
332 2 18.9795 8.14668 10.8708 
333 2 17.6209 6.7916 12.2299 
334 2 17.62 9.5038 14.9412 
335 2 20.3435 6.78869 14.9419 
336 2 20.341 9.50168 12.2272 
337 2 21.7014 10.8555 10.8687 
338 2 21.7024 13.5686 13.5765 
339 2 2.70678 10.849 13.5733 
340 2 2.7197 13.54 10.8587 
341 2 1.34303 12.2076 12.2224 
342 2 1.33267 14.9282 14.9361 
343 2 4.0504 12.2096 14.9356 
344 2 4.05307 14.9168 12.2226 
345 2 5.50789 10.7512 10.856 
346 2 5.41154 13.5529 13.5736 
347 2 8.11592 13.5582 10.8694 
348 2 6.76808 12.1846 12.2161 
349 2 6.76215 14.9179 14.9324 
350 2 9.45316 12.1554 14.8802 
351 2 9.46898 14.9221 12.2229 
352 2 10.8162 13.5475 13.5693 
353 2 13.5206 10.8469 13.5699 
354 2 13.5132 13.5429 10.8772 
355 2 12.1282 12.1574 12.2057 
356 2 12.1757 14.9148 14.928 
357 2 14.8868 12.2069 14.9288 
358 2 14.8851 14.9157 12.2195 
359 2 16.2563 10.8581 10.8689 
360 2 16.2527 13.5687 13.5794 
361 2 18.9791 10.8596 13.5816 
362 2 18.9788 13.5727 10.8651 
363 2 17.6183 12.2159 12.223 
364 2 17.6163 14.9291 14.9344 
365 2 20.3416 12.2144 14.9377 
366 2 20.3411 14.9286 12.2211 
367 2 21.7044 16.2806 10.8619 
368 2 21.6999 19.0058 13.5775 
369 2 2.69324 16.282 13.5769 
370 2 2.69188 19.0045 10.865 
371 2 1.33422 17.6433 12.2211 
372 2 1.33612 20.3675 14.9341 
373 2 4.04886 17.6434 14.9365 
374 2 4.05001 20.3666 12.2212 
375 2 5.40607 16.2821 10.8688 
376 2 5.40533 19.0066 13.5809 
377 2 8.11736 16.2845 13.5819 
378 2 8.11703 19.0068 10.8693 
379 2 6.76111 17.6447 12.225 
380 2 6.76207 20.3692 14.9366 
381 2 9.47304 17.6473 14.9387 
382 2 9.47354 20.3695 12.2252 
383 2 10.8271 16.285 10.8713 
384 2 10.8292 19.0102 13.5842 
385 2 13.5383 16.282 13.5812 
386 2 13.5421 19.0101 10.8716 
387 2 12.1841 17.6479 12.2269 
388 2 12.1861 20.373 14.9394 
389 2 14.8982 17.6461 14.9364 
390 2 14.8992 20.3728 12.228 
391 2 16.2518 16.2827 10.871 
392 2 16.2583 19.0083 13.5815 
393 2 18.9782 16.2873 13.5769 
394 2 18.9786 19.0082 10.8682 
395 2 17.6153 17.6468 12.2225 
396 2 17.6207 20.3663 14.9383 
397 2 20.3377 17.6475 14.934 
398 2 20.3416 20.3689 12.2232 
399 2 21.7014 21.7239 16.295 
400 2 21.7014 2.71431 19.012 
401 2 2.69159 8.71663e-06 19.0118 
402 2 2.69954 2.72113 16.29 
403 2 1.33851 1.36053 17.6499 
404 2 1.3362 4.07456 20.3678 
405 2 4.05083 1.36043 20.3678 
406 2 4.06164 4.08465 17.6372 
407 2 5.40698 0.00932569 16.2908 
408 2 5.40721 2.72192 19.005 
409 2 8.1154 0.00995443 19.0071 
410 2 8.11137 2.75061 16.2674 
411 2 6.76799 1.37634 17.638 
412 2 6.7628 4.07529 20.3702 
413 2 9.47505 1.36179 20.371 
414 2 9.47493 4.08365 17.6443 
415 2 10.8277 0.0107251 16.2948 
416 2 10.8281 2.72277 19.01 
417 2 13.5455 0.00214913 19.0148 
418 2 13.5449 2.72295 16.2992 
419 2 12.1878 1.36344 17.6562 
420 2 12.1881 4.07589 20.3727 
421 2 14.9047 1.35934 20.3749 
422 2 14.9043 4.07745 17.6584 
423 2 16.2626 0.00191213 16.2979 
424 2 16.2639 2.71687 19.0155 
425 2 18.9822 21.7222 19.0132 
426 2 18.9837 2.71746 16.2981 
427 2 17.6239 1.3586 17.6568 
428 2 17.6224 4.07461 20.3749 
429 2 20.3406 1.35716 20.3719 
430 2 20.3457 4.07564 17.6544 
431 2 21.7084 5.43039 16.2922 
432 2 21.7058 8.13931 19.0051 
433 2 2.69691 5.43009 19.0037 
434 2 2.7222 8.13429 16.2646 
435 2 1.35044 6.79151 17.6378 
436 2 1.33342 9.4986 20.3678 
437 2 4.0493 6.78664 20.3681 
438 2 4.05471 9.49804 17.6411 
439 2 5.42134 5.44438 16.2707 
440 2 5.40641 8.14347 19.0071 
441 2 8.11917 5.43378 19.0101 
442 2 8.12061 8.14423 16.2836 
443 2 6.76741 6.79191 17.6467 
444 2 6.761 9.50105 20.3679 
445 2 9.47532 6.78909 20.3722 
446 2 9.47219 9.49859 17.6472 
447 2 10.8245 5.44375 16.2815 
448 2 10.8295 8.14718 19.0111 
449 2 13.5425 5.43683 19.0118 
450 2 13.5164 8.15605 16.2702 
451 2 12.1829 6.79317 17.6462 
452 2 12.1864 9.50417 20.3721 
453 2 14.902 6.79029 20.3745 
454 2 14.8877 9.49935 17.6423 
455 2 16.2573 5.43762 16.298 
456 2 16.2536 8.14835 19.0094 
457 2 18.9823 5.43077 19.0138 
458 2 18.9803 8.14484 16.2985 
459 2 17.6199 6.78986 17.6582 
460 2 17.6162 9.50082 20.3727 
461 2 20.3424 6.78852 20.3712 
462 2 20.3417 9.50059 17.6549 
463 2 21.7023 10.8533 16.2928 
464 2 21.6943 13.5695 19.0119 
465 2 2.69194 10.8519 19.0039 
466 2 2.6905 13.5689 16.2931 
467 2 1.33146 12.213 17.6522 
468 2 1.32891 14.9284 20.3705 
469 2 4.0463 12.2117 20.3647 
470 2 4.04661 14.9287 17.6511 
471 2 5.4136 10.848 16.2773 
472 2 5.4059 13.5677 19.0041 
473 2 8.1175 10.8571 19.0067 
474 2 8.1257 13.5414 16.2653 
475 2 6.76227 12.2078 17.6412 
476 2 6.75943 14.9284 20.3658 
477 2 9.47195 12.2163 20.3682 
478 2 9.46803 14.9158 17.6368 
479 2 10.8182 10.8462 16.2723 
480 2 10.8286 13.5701 19.0047 
481 2 13.5385 10.8605 19.0067 
482 2 13.5388 13.5687 16.291 
483 2 12.1764 12.2072 17.6391 
484 2 12.1841 14.9311 20.3681 
485 2 14.8984 12.2157 20.3709 
486 2 14.8988 14.9294 17.6506 
487 2 16.253 10.8597 16.293 
488 2 16.2578 13.5731 19.0121 
489 2 18.977 10.8563 19.0124 
490 2 18.9771 13.5714 16.2938 
491 2 17.6165 12.2145 17.6533 
492 2 17.6179 14.9301 20.3715 
493 2 20.3351 12.2128 20.3729 
494 2 20.3365 14.9293 17.6525 
495 2 21.696 16.2878 16.2931 
496 2 21.6971 19.0045 19.0113 
497 2 2.68809 16.2867 19.0113 
498 2 2.69199 19.0062 16.2937 
499 2 1.33201 17.6468 17.6514 
500 2 1.33227 20.3638 20.3701 
501 2 4.04586 17.6466 20.3699 
502 2 4.05057 20.3687 17.6505 
503 2 5.40742 16.2824 16.2925 
504 2 5.40469 19.0065 19.0115 
505 2 8.11933 16.2819 19.0044 
506 2 8.11774 19.0091 16.2963 
507 2 6.76126 17.6455 17.6517 
508 2 6.76202 20.3687 20.3691 
509 2 9.47136 17.6464 20.3679 
510 2 9.47383 20.3712 17.6537 
511 2 10.8296 16.2827 16.2912 
512 2 10.8297 19.0087 19.0119 
513 2 13.5443 16.2899 19.0117 
514 2 13.5429 19.0087 16.2957 
515 2 12.185 17.6466 17.652 
516 2 12.1872 20.3671 20.3732 
517 2 14.9026 17.6493 20.3711 
518 2 14.9034 20.3661 17.6554 
519 2 16.259 16.2886 16.2937 
520 2 16.2625 19.0061 19.0123 
521 2 18.977 16.2874 19.0112 
522 2 18.98 19.006 16.2938 
523 2 17.6195 17.6474 17.6517 
524 2 17.6211 20.3648 20.372 
525 2 20.3368 17.6457 20.3707 
ITEM: TIMESTEP
59
ITEM: NUMBER OF ATOMS
525
ITEM: BOX BOUNDS
0.0 21.724
0.0 21.724
0.0 21.724
ITEM: ATOMS id type x y z 
1 1 7.0841 9.17708 9.83654 
2 1 9.14964 7.11205 9.83681 
3 1 7.08437 7.11191 11.9021 
4 1 9.14973 9.17734 11.9022 
5 1 10.7242 8.15692 13.4768 
6 1 8.12885 10.7518 13.4764 
7 1 10.7239 10.752 10.8814 
8 1 6.99154 9.36232 9.74395 
9 1 9.3345 7.01952 9.74432 
10 1 6.99191 7.01936 12.087 
11 1 8.79677 8.82484 11.5492 
12 1 10.6005 8.28421 13.3532 
13 1 8.25589 10.6284 13.3529 
14 1 10.6003 10.6286 11.0084 
15 1 6.8688 9.49179 9.62127 
16 1 9.46401 6.89708 9.62163 
17 1 6.86917 6.89691 12.2165 
18 1 8.44336 8.47163 11.1959 
19 1 10.5089 8.47173 13.2615 
20 1 8.4433 10.5368 13.2612 
21 1 10.5087 10.5369 11.1959 
22 2 21.6973 21.721 0.00688225 
23 2 21.6969 2.71493 2.72619 
24 2 2.68745 21.7205 2.72477 
25 2 2.69088 2.71495 0.00630037 
26 2 1.33124 1.35658 1.36548 
27 2 1.33187 4.07362 4.0858 
28 2 4.0455 1.35692 4.08394 
29 2 4.0483 4.07206 1.36949 
30 2 5.40358 21.724 0.00751835 
31 2 5.40732 2.71783 2.73233 
32 2 8.11877 0.00678071 2.73421 
33 2 8.11782 2.71709 0.0091092 
34 2 6.76084 1.35864 1.36924 
35 2 6.76167 4.07952 4.09599 
36 2 9.46794 1.37418 4.10031 
37 2 9.47402 4.07461 1.37142 
38 2 10.8297 0.0021368 0.00990572 
39 2 10.8296 2.72181 2.73604 
40 2 13.5441 0.00241007 2.72871 
41 2 13.5457 2.71794 0.0107972 
42 2 12.1852 1.36252 1.37221 
43 2 12.1758 4.08487 4.10209 
44 2 14.8989 1.36373 4.08939 
45 2 14.9 4.07789 1.37327 
46 2 16.263 21.7239 0.00874342 
47 2 16.2605 2.71804 2.72856 
48 2 18.9788 21.7229 2.72683 
49 2 18.9815 2.71514 0.00829986 
50 2 17.6208 1.35907 1.36846 
51 2 17.6157 4.07805 4.08923 
52 2 20.3365 1.35835 4.08599 
53 2 20.3386 4.07428 1.36745 
54 2 21.7 5.42945 0.00718387 
55 2 21.7026 8.14432 2.73181 
56 2 2.69281 5.43167 2.73109 
57 2 2.69029 8.14175 0.00552514 
58 2 1.33372 6.78625 1.36899 
59 2 1.34647 9.49239 4.09852 
60 2 4.05248 6.78736 4.09537 
61 2 4.0482 9.49761 1.36666 
62 2 5.40397 5.42992 0.00741903 
63 2 5.40477 8.14158 2.72905 
64 2 8.11653 5.43192 2.73081 
65 2 8.11626 8.14489 0.00694921 
66 2 6.76113 6.78632 1.36769 
67 2 6.76207 9.49594 4.08983 
68 2 9.4689 6.79126 4.09125 
69 2 9.47293 9.5019 1.36743 
70 2 10.8308 5.43189 0.0104455 
71 2 10.8266 8.1452 2.73044 
72 2 13.5383 5.43272 2.73627 
73 2 13.5427 8.1464 0.0102018 
74 2 12.1862 6.78937 1.37164 
75 2 12.1772 9.50034 4.09737 
76 2 14.884 6.79407 4.10295 
77 2 14.8988 9.50238 1.37236 
78 2 16.2604 5.43145 0.0103244 
79 2 16.2509 8.1421 2.73527 
80 2 18.9779 5.4314 2.7278 
81 2 18.9779 8.14298 0.00836771 
82 2 17.6158 6.78987 1.37184 
83 2 17.6146 9.50084 4.08753 
84 2 20.3395 6.78711 4.08726 
85 2 20.3392 9.49817 1.36886 
86 2 21.6965 10.8534 0.00552137 
87 2 21.6956 13.5679 2.72487 
88 2 2.69262 10.8521 2.73029 
89 2 2.68784 13.5676 0.00340759 
90 2 1.33208 12.209 1.3675 
91 2 1.333 14.9221 4.0855 
92 2 4.05544 12.2001 4.09579 
93 2 4.04623 14.9239 1.3653 
94 2 5.40228 10.8559 0.00409466 
95 2 5.40224 13.5642 2.72943 
96 2 8.11471 10.8546 2.72912 
97 2 8.1139 13.5719 0.00565944 
98 2 6.75949 12.2112 1.36619 
99 2 6.76397 14.9106 4.09673 
100 2 9.46892 12.208 4.09475 
101 2 9.47098 14.929 1.36714 
102 2 10.8283 10.8612 0.00760532 
103 2 10.8238 13.5699 2.73128 
104 2 13.5374 10.8557 2.73351 
105 2 13.5414 13.5749 0.00778613 
106 2 12.1854 12.2164 1.37034 
107 2 12.1842 14.9304 4.08549 
108 2 14.8981 12.2162 4.08619 
109 2 14.9011 14.9329 1.36669 
110 2 16.2566 10.8583 0.00912664 
111 2 16.2584 13.5735 2.726 
112 2 18.977 10.8557 2.72685 
113 2 18.9756 13.5711 0.00736887 
114 2 17.6175 12.2145 1.36759 
115 2 17.6184 14.9314 4.08396 
116 2 20.3398 12.2107 4.08609 
117 2 20.3358 14.9281 1.36662 
118 2 21.6945 16.286 0.00613419 
119 2 21.6941 19.0033 2.72404 
120 2 2.68717 16.283 2.72309 
121 2 2.68705 19.0032 0.00638053 
122 2 1.32854 17.6442 1.36533 
123 2 1.32868 20.3616 4.08288 
124 2 4.04667 17.639 4.08395 
125 2 4.04538 20.3623 1.36487 
126 2 5.40179 16.2848 0.00451572 
127 2 5.4019 19.0026 2.7254 
128 2 8.11177 16.2805 2.731 
129 2 8.11563 19.006 0.00690771 
130 2 6.75924 17.643 1.36592 
131 2 6.75879 20.3649 4.08426 
132 2 9.47178 17.6438 4.08453 
133 2 9.47053 20.368 1.36948 
134 2 10.8277 16.2893 0.00681783 
135 2 10.8285 19.0079 2.72794 
136 2 13.5425 16.2906 2.72663 
137 2 13.5452 19.008 0.00777545 
138 2 12.1857 17.6498 1.36618 
139 2 12.1839 20.37 4.08797 
140 2 14.9013 17.65 4.08564 
141 2 14.9026 20.367 1.36811 
142 2 16.2601 16.2899 0.00681262 
143 2 16.2611 19.0077 2.72704 
144 2 18.9769 16.288 2.72469 
145 2 18.9788 19.0049 0.00693457 
146 2 17.6191 17.6482 1.36676 
147 2 17.6188 20.3671 4.08685 
148 2 20.3354 17.6459 4.08355 
149 2 20.3367 20.3638 1.36629 
150 2 21.6963 21.7223 5.44234 
151 2 21.7026 2.71923 8.16141 
152 2 2.69429 0.00395357 8.15739 
153 2 2.69017 2.71594 5.44387 
154 2 1.33139 1.35796 6.80056 
155 2 1.3433 4.07984 9.51578 
156 2 4.05506 1.36844 9.51219 
157 2 4.0495 4.07474 6.8023 
158 2 5.4063 0.00391323 5.4437 
159 2 5.41301 2.73247 8.16264 
160 2 8.11754 0.0048164 8.15678 
161 2 8.12566 2.74674 5.47217 
162 2 6.76238 1.36859 6.80351 
163 2 6.76999 4.10096 9.52033 
164 2 9.47168 1.36658 9.5148 
165 2 9.45163 4.13463 6.85932 
166 2 10.8285 0.00935513 5.44821 
167 2 10.8178 2.74444 8.1711 
168 2 13.5387 0.0126815 8.16071 
169 2 13.5389 2.72397 5.44928 
170 2 12.1764 1.3771 6.81081 
171 2 12.1281 4.13699 9.53602 
172 2 14.8851 1.38003 9.52191 
173 2 14.8855 4.08693 6.81166 
174 2 16.2595 0.00399757 5.44626 
175 2 16.2518 2.72657 8.16137 
176 2 18.9783 0.00327583 8.16025 
177 2 18.9765 2.71752 5.44557 
178 2 17.6148 1.36432 6.80712 
179 2 17.6174 4.07813 9.51778 
180 2 20.3407 1.36139 9.51713 
181 2 20.339 4.07435 6.80343 
182 2 21.7012 5.43213 5.44717 
183 2 21.7011 8.14251 8.15884 
184 2 2.70668 5.43691 8.16371 
185 2 2.71827 8.1499 5.47183 
186 2 1.34212 6.78743 6.80627 
187 2 1.33802 9.49621 9.51622 
188 2 4.07439 6.79553 9.51986 
189 2 4.10387 9.47846 6.85702 
190 2 5.41065 5.43712 5.45996 
191 2 5.50787 8.1566 8.26146 
192 2 8.12773 5.53838 8.26254 
193 2 8.11472 8.14386 5.45426 
194 2 6.76703 6.79654 6.82741 
195 2 9.46134 9.49256 6.82829 
196 2 10.8159 5.44562 5.46774 
197 2 10.7235 8.13534 8.26306 
198 2 13.5199 5.44746 8.1719 
199 2 13.5109 8.13761 5.47421 
200 2 12.1261 6.81054 6.86049 
201 2 12.1597 9.49321 9.52355 
202 2 14.8977 6.79366 9.51861 
203 2 14.8886 9.50014 6.80676 
204 2 16.2515 5.43385 5.4493 
205 2 16.2561 8.14731 8.15889 
206 2 18.9775 5.43289 8.15927 
207 2 18.9774 8.1444 5.44367 
208 2 17.616 6.78997 6.80227 
209 2 17.6186 9.50317 9.5132 
210 2 20.3401 6.78776 9.51614 
211 2 20.34 9.49876 6.80132 
212 2 21.7035 10.8537 5.44535 
213 2 21.7048 13.5655 8.15397 
214 2 2.71192 10.8424 8.16753 
215 2 2.69423 13.5619 5.44437 
216 2 1.34639 12.2016 6.8069 
217 2 1.34763 14.912 9.51486 
218 2 4.10456 12.1532 9.53125 
219 2 4.05592 14.9098 6.80622 
220 2 5.41445 10.842 5.46438 
221 2 5.41575 13.5454 8.16777 
222 2 8.10091 10.751 8.26265 
223 2 8.10552 13.5398 5.47217 
224 2 6.77821 12.1529 6.85668 
225 2 6.76286 14.9205 9.51572 
226 2 9.46241 12.1849 9.52155 
227 2 9.46937 14.9173 6.80528 
228 2 10.8183 10.8508 5.4611 
229 2 10.8193 13.5543 8.16527 
230 2 13.5252 10.8507 8.16484 
231 2 13.5391 13.5719 5.44575 
232 2 12.1812 12.2119 6.80374 
233 2 12.1779 14.919 9.5158 
234 2 14.8896 12.2092 9.51429 
235 2 14.8985 14.9313 6.80087 
236 2 16.2513 10.8551 5.44573 
237 2 16.2524 13.5697 8.15862 
238 2 18.9784 10.8584 8.15474 
239 2 18.9771 13.5705 5.44141 
240 2 17.614 12.214 6.7995 
241 2 17.6151 14.93 9.51117 
242 2 20.3411 12.2131 9.51153 
243 2 20.3398 14.9263 6.79991 
244 2 21.6961 16.2848 5.43973 
245 2 21.6985 19.0052 8.15416 
246 2 2.69459 16.2776 8.15352 
247 2 2.68891 19.0023 5.43999 
248 2 1.3328 17.641 6.79873 
249 2 1.33361 20.3672 9.51107 
250 2 4.04885 17.6409 9.51052 
251 2 4.04701 20.3649 6.79707 
252 2 5.40336 16.2762 5.44415 
253 2 5.4038 19.0026 8.15315 
254 2 8.11627 16.2823 8.15877 
255 2 8.1153 19.0044 5.44213 
256 2 6.76023 17.64 6.79823 
257 2 6.76076 20.3655 9.50923 
258 2 9.47286 17.6454 9.51312 
259 2 9.47184 20.3672 6.79916 
260 2 10.825 16.2835 5.44687 
261 2 10.8291 19.0087 8.15805 
262 2 13.5385 16.2842 8.16206 
263 2 13.5429 19.0099 5.44561 
264 2 12.1852 17.6461 6.80172 
265 2 12.1847 20.3719 9.51476 
266 2 14.8986 17.6473 9.5147 
267 2 14.8982 20.3725 6.80519 
268 2 16.2592 16.2897 5.44291 
269 2 16.2578 19.0097 8.15972 
270 2 18.9777 16.2874 8.15444 
271 2 18.978 19.0065 5.44246 
272 2 17.6175 17.6499 6.80062 
273 2 17.6151 20.3715 9.51738 
274 2 20.3393 17.6454 9.51155 
275 2 20.3361 20.3659 6.80063 
276 2 21.7065 0.00732585 10.8714 
277 2 21.7088 2.72122 13.5823 
278 2 2.69821 0.00700299 13.5796 
279 2 2.72194 2.74518 10.8758 
280 2 1.34993 1.37407 12.2201 
281 2 1.35134 4.08396 14.9285 
282 2 4.06163 1.37508 14.9258 
283 2 4.10773 4.13117 12.2034 
284 2 5.40823 0.00447746 10.8672 
285 2 5.42103 2.74195 13.5673 
286 2 8.1185 0.00758281 13.5805 
287 2 8.1202 2.73038 10.868 
288 2 6.76651 1.36707 12.2199 
289 2 6.785 4.13445 14.878 
290 2 9.47353 1.37472 14.9325 
291 2 9.46625 4.10506 12.2168 
292 2 10.8288 0.00874897 10.8712 
293 2 10.8245 2.74064 13.5767 
294 2 13.5416 0.0120134 13.5825 
295 2 13.5148 2.75363 10.8646 
296 2 12.1812 1.3753 12.2259 
297 2 12.1868 4.08265 14.9399 
298 2 14.9028 1.36433 14.9426 
299 2 14.8927 4.08568 12.2288 
300 2 16.2527 0.0126913 10.8707 
301 2 16.2565 2.72472 13.5845 
302 2 18.9823 0.00313668 13.5833 
303 2 18.9793 2.71979 10.8735 
304 2 17.6177 1.36392 12.2306 
305 2 17.6197 4.07746 14.944 
306 2 20.3456 1.36164 14.9386 
307 2 20.3425 4.07559 12.2299 
308 2 21.7025 5.432 10.8716 
309 2 21.7026 8.14397 13.5819 
310 2 2.71715 5.44328 13.568 
311 2 2.70151 8.14256 10.8682 
312 2 1.33988 6.79042 12.2236 
313 2 1.34417 9.49853 14.9333 
314 2 4.10889 6.80714 14.8792 
315 2 4.07426 9.49104 12.2155 
316 2 5.5091 5.53545 10.8793 
317 2 5.51018 8.13157 13.475 
318 2 8.10772 5.5395 13.4765 
319 2 20.3398 20.3644 17.6521 
320 2 6.77154 9.49008 14.91 
321 2 9.46838 6.79837 14.9104 
322 2 10.7266 5.54155 10.86 
323 2 13.5295 5.44484 13.5787 
324 2 13.5347 8.14689 10.8719 
325 2 12.1623 6.80019 12.2199 
326 2 12.1315 9.48246 14.8822 
327 2 14.8938 6.79402 14.9369 
328 2 14.8974 9.50079 12.2246 
329 2 16.2587 5.43707 10.8739 
330 2 16.259 8.14862 13.5839 
331 2 18.981 5.43302 13.5863 
332 2 18.9795 8.14668 10.8708 
333 2 17.6209 6.7916 12.2299 
334 2 17.62 9.5038 14.9412 
335 2 20.3435 6.78869 14.9419 
336 2 20.341 9.50168 12.2272 
337 2 21.7014 10.8555 10.8687 
338 2 21.7024 13.5686 13.5765 
339 2 2.70678 10.849 13.5733 
340 2 2.7197 13.54 10.8587 
341 2 1.34303 12.2076 12.2224 
342 2 1.33267 14.9282 14.9361 
343 2 4.0504 12.2096 14.9356 
344 2 4.05307 14.9168 12.2226 
345 2 5.50789 10.7512 10.856 
346 2 5.41154 13.5529 13.5736 
347 2 8.11592 13.5582 10.8694 
348 2 6.76808 12.1846 12.2161 
349 2 6.76215 14.9179 14.9324 
350 2 9.45316 12.1554 14.8802 
351 2 9.46898 14.9221 12.2229 
352 2 10.8162 13.5475 13.5693 
353 2 13.5206 10.8469 13.5699 
354 2 13.5132 13.5429 10.8772 
355 2 12.1282 12.1574 12.2057 
356 2 12.1757 14.9148 14.928 
357 2 14.8868 12.2069 14.9288 
358 2 14.8851 14.9157 12.2195 
359 2 16.2563 10.8581 10.8689 
360 2 16.2527 13.5687 13.5794 
361 2 18.9791 10.8596 13.5816 
362 2 18.9788 13.5727 10.8651 
363 2 17.6183 12.2159 12.223 
364 2 17.6163 14.9291 14.9344 
365 2 20.3416 12.2144 14.9377 
366 2 20.3411 14.9286 12.2211 
367 2 21.7044 16.2806 10.8619 
368 2 21.6999 19.0058 13.5775 
369 2 2.69324 16.282 13.5769 
370 2 2.69188 19.0045 10.865 
371 2 1.33422 17.6433 12.2211 
372 2 1.33612 20.3675 14.9341 
373 2 4.04886 17.6434 14.9365 
374 2 4.05001 20.3666 12.2212 
375 2 5.40607 16.2821 10.8688 
376 2 5.40533 19.0066 13.5809 
377 2 8.11736 16.2845 13.5819 
378 2 8.11703 19.0068 10.8693 
379 2 6.76111 17.6447 12.225 
380 2 6.76207 20.3692 14.9366 
381 2 9.47304 17.6473 14.9387 
382 2 9.47354 20.3695 12.2252 
383 2 10.8271 16.285 10.8713 
384 2 10.8292 19.0102 13.5842 
385 2 13.5383 16.282 13.5812 
386 2 13.5421 19.0101 10.8716 
387 2 12.1841 17.6479 12.2269 
388 2 12.1861 20.373 14.9394 
389 2 14.8982 17.6461 14.9364 
390 2 14.8992 20.3728 12.228 
391 2 16.2518 16.2827 10.871 
392 2 16.2583 19.0083 13.5815 
393 2 18.9782 16.2873 13.5769 
394 2 18.9786 19.0082 10.8682 
395 2 17.6153 17.6468 12.2225 
396 2 17.6207 20.3663 14.9383 
397 2 20.3377 17.6475 14.934 
398 2 20.3416 20.3689 12.2232 
399 2 21.7014 21.7239 16.295 
400 2 21.7014 2.71431 19.012 
401 2 2.69159 8.71663e-06 19.0118 
402 2 2.69954 2.72113 16.29 
403 2 1.33851 1.36053 17.6499 
404 2 1.3362 4.07456 20.3678 
405 2 4.05083 1.36043 20.3678 
406 2 4.06164 4.08465 17.6372 
407 2 5.40698 0.00932569 16.2908 
408 2 5.40721 2.72192 19.005 
409 2 8.1154 0.00995443 19.0071 
410 2 8.11137 2.75061 16.2674 
411 2 6.76799 1.37634 17.638 
412 2 6.7628 4.07529 20.3702 
413 2 9.47505 1.36179 20.371 
414 2 9.47493 4.08365 17.6443 
415 2 10.8277 0.0107251 16.2948 
416 2 10.8281 2.72277 19.01 
417 2 13.5455 0.00214913 19.0148 
418 2 13.5449 2.72295 16.2992 
419 2 12.1878 1.36344 17.6562 
420 2 12.1881 4.07589 20.3727 
421 2 14.9047 1.35934 20.3749 
422 2 14.9043 4.07745 17.6584 
423 2 16.2626 0.00191213 16.2979 
424 2 16.2639 2.71687 19.0155 
425 2 18.9822 21.7222 19.0132 
426 2 18.9837 2.71746 16.2981 
427 2 17.6239 1.3586 17.6568 
428 2 17.6224 4.07461 20.3749 
429 2 20.3406 1.35716 20.3719 
430 2 20.3457 4.07564 17.6544 
431 2 21.7084 5.43039 16.2922 
432 2 21.7058 8.13931 19.0051 
433 2 2.69691 5.43009 19.0037 
434 2 2.7222 8.13429 16.2646 
435 2 1.35044 6.79151 17.6378 
436 2 1.33342 9.4986 20.3678 
437 2 4.0493 6.78664 20.3681 
438 2 4.05471 9.49804 17.6411 
439 2 5.42134 5.44438 16.2707 
440 2 5.40641 8.14347 19.0071 
441 2 8.11917 5.43378 19.0101 
442 2 8.12061 8.14423 16.2836 