ITEM: TIMESTEP
0
ITEM: NUMBER OF ATOMS
504
ITEM: BOX BOUNDS pp pp pp
0.0000000000000000e+00 2.1724000000000000e+01
0.0000000000000000e+00 2.1724000000000000e+01
0.0000000000000000e+00 2.1724000000000000e+01
ITEM: ATOMS id type x y z
1 2 21.6973 21.721 0.00688225
2 2 21.6969 2.71493 2.72619
3 2 2.68745 21.7205 2.72477
4 2 2.69088 2.71495 0.00630037
5 2 1.33124 1.35658 1.36548
6 2 1.33187 4.07362 4.0858
7 2 4.0455 1.35692 4.08394
8 2 4.0483 4.07206 1.36949
9 2 5.40358 21.724 0.00751835
10 2 5.40732 2.71783 2.73233
11 2 8.11877 0.00678071 2.73421
12 2 8.11782 2.71709 0.0091092
13 2 6.76084 1.35864 1.36924
14 2 6.76167 4.07952 4.09599
15 2 9.46794 1.37418 4.10031
16 2 9.47402 4.07461 1.37142
17 2 10.8297 0.0021368 0.00990572
18 2 10.8296 2.72181 2.73604
19 2 13.5441 0.00241007 2.72871
20 2 13.5457 2.71794 0.0107972
21 2 12.1852 1.36252 1.37221
22 2 12.1758 4.08487 4.10209
23 2 14.8989 1.36373 4.08939
24 2 14.9 4.07789 1.37327
25 2 16.263 21.7239 0.00874342
26 2 16.2605 2.71804 2.72856
27 2 18.9788 21.7229 2.72683
28 2 18.9815 2.71514 0.00829986
29 2 17.6208 1.35907 1.36846
30 2 17.6157 4.07805 4.08923
31 2 20.3365 1.35835 4.08599
32 2 20.3386 4.07428 1.36745
33 2 21.7 5.42945 0.00718387
34 2 21.7026 8.14432 2.73181
35 2 2.69281 5.43167 2.73109
36 2 2.69029 8.14175 0.00552514
37 2 1.33372 6.78625 1.36899
38 2 1.34647 9.49239 4.09852
39 2 4.05248 6.78736 4.09537
40 2 4.0482 9.49761 1.36666
41 2 5.40397 5.42992 0.00741903
42 2 5.40477 8.14158 2.72905
43 2 8.11653 5.43192 2.73081
44 2 8.11626 8.14489 0.00694921
45 2 6.76113 6.78632 1.36769
46 2 6.76207 9.49594 4.08983
47 2 9.4689 6.79126 4.09125
48 2 9.47293 9.5019 1.36743
49 2 10.8308 5.43189 0.0104455
50 2 10.8266 8.1452 2.73044
51 2 13.5383 5.43272 2.73627
52 2 13.5427 8.1464 0.0102018
53 2 12.1862 6.78937 1.37164
54 2 12.1772 9.50034 4.09737
55 2 14.884 6.79407 4.10295
56 2 14.8988 9.50238 1.37236
57 2 16.2604 5.43145 0.0103244
58 2 16.2509 8.1421 2.73527
59 2 18.9779 5.4314 2.7278
60 2 18.9779 8.14298 0.00836771
61 2 17.6158 6.78987 1.37184
62 2 17.6146 9.50084 4.08753
63 2 20.3395 6.78711 4.08726
64 2 20.3392 9.49817 1.36886
65 2 21.6965 10.8534 0.00552137
66 2 21.6956 13.5679 2.72487
67 2 2.69262 10.8521 2.73029
68 2 2.68784 13.5676 0.00340759
69 2 1.33208 12.209 1.3675
70 2 1.333 14.9221 4.0855
71 2 4.05544 12.2001 4.09579
72 2 4.04623 14.9239 1.3653
73 2 5.40228 10.8559 0.00409466
74 2 5.40224 13.5642 2.72943
75 2 8.11471 10.8546 2.72912
76 2 8.1139 13.5719 0.00565944
77 2 6.75949 12.2112 1.36619
78 2 6.76397 14.9106 4.09673
79 2 9.46892 12.208 4.09475
80 2 9.47098 14.929 1.36714
81 2 10.8283 10.8612 0.00760532
82 2 10.8238 13.5699 2.73128
83 2 13.5374 10.8557 2.73351
84 2 13.5414 13.5749 0.00778613
85 2 12.1854 12.2164 1.37034
86 2 12.1842 14.9304 4.08549
87 2 14.8981 12.2162 4.08619
88 2 14.9011 14.9329 1.36669
89 2 16.2566 10.8583 0.00912664
90 2 16.2584 13.5735 2.726
91 2 18.977 10.8557 2.72685
92 2 18.9756 13.5711 0.00736887
93 2 17.6175 12.2145 1.36759
94 2 17.6184 14.9314 4.08396
95 2 20.3398 12.2107 4.08609
96 2 20.3358 14.9281 1.36662
97 2 21.6945 16.286 0.00613419
98 2 21.6941 19.0033 2.72404
99 2 2.68717 16.283 2.72309
100 2 2.68705 19.0032 0.00638053
101 2 1.32854 17.6442 1.36533
102 2 1.32868 20.3616 4.08288
103 2 4.04667 17.639 4.08395
104 2 4.04538 20.3623 1.36487
105 2 5.40179 16.2848 0.00451572
106 2 5.4019 19.0026 2.7254
107 2 8.11177 16.2805 2.731
108 2 8.11563 19.006 0.00690771
109 2 6.75924 17.643 1.36592
110 2 6.75879 20.3649 4.08426
111 2 9.47178 17.6438 4.08453
112 2 9.47053 20.368 1.36948
113 2 10.8277 16.2893 0.00681783
114 2 10.8285 19.0079 2.72794
115 2 13.5425 16.2906 2.72663
116 2 13.5452 19.008 0.00777545
117 2 12.1857 17.6498 1.36618
118 2 12.1839 20.37 4.08797
119 2 14.9013 17.65 4.08564
120 2 14.9026 20.367 1.36811
121 2 16.2601 16.2899 0.00681262
122 2 16.2611 19.0077 2.72704
123 2 18.9769 16.288 2.72469
124 2 18.9788 19.0049 0.00693457
125 2 17.6191 17.6482 1.36676
126 2 17.6188 20.3671 4.08685
127 2 20.3354 17.6459 4.08355
128 2 20.3367 20.3638 1.36629
129 2 21.6963 21.7223 5.44234
130 2 21.7026 2.71923 8.16141
131 2 2.69429 0.00395357 8.15739
132 2 2.69017 2.71594 5.44387
133 2 1.33139 1.35796 6.80056
134 2 1.3433 4.07984 9.51578
135 2 4.05506 1.36844 9.51219
136 2 4.0495 4.07474 6.8023
137 2 5.4063 0.00391323 5.4437
138 2 5.41301 2.73247 8.16264
139 2 8.11754 0.0048164 8.15678
140 2 8.12566 2.74674 5.47217
141 2 6.76238 1.36859 6.80351
142 2 6.76999 4.10096 9.52033
143 2 9.47168 1.36658 9.5148
144 2 9.45163 4.13463 6.85932
145 2 10.8285 0.00935513 5.44821
146 2 10.8178 2.74444 8.1711
147 2 13.5387 0.0126815 8.16071
148 2 13.5389 2.72397 5.44928
149 2 12.1764 1.3771 6.81081
150 2 12.1281 4.13699 9.53602
151 2 14.8851 1.38003 9.52191
152 2 14.8855 4.08693 6.81166
153 2 16.2595 0.00399757 5.44626
154 2 16.2518 2.72657 8.16137
155 2 18.9783 0.00327583 8.16025
156 2 18.9765 2.71752 5.44557
157 2 17.6148 1.36432 6.80712
158 2 17.6174 4.07813 9.51778
159 2 20.3407 1.36139 9.51713
160 2 20.339 4.07435 6.80343
161 2 21.7012 5.43213 5.44717
162 2 21.7011 8.14251 8.15884
163 2 2.70668 5.43691 8.16371
164 2 2.71827 8.1499 5.47183
165 2 1.34212 6.78743 6.80627
166 2 1.33802 9.49621 9.51622
167 2 4.07439 6.79553 9.51986
168 2 4.10387 9.47846 6.85702
169 2 5.41065 5.43712 5.45996
170 2 5.50787 8.1566 8.26146
171 2 8.12773 5.53838 8.26254
172 2 8.11472 8.14386 5.45426
173 2 6.76703 6.79654 6.82741
176 2 9.46134 9.49256 6.82829
177 2 10.8159 5.44562 5.46774
178 2 10.7235 8.13534 8.26306
179 2 13.5199 5.44746 8.1719
180 2 13.5109 8.13761 5.47421
181 2 12.1261 6.81054 6.86049
182 2 12.1597 9.49321 9.52355
183 2 14.8977 6.79366 9.51861
184 2 14.8886 9.50014 6.80676
185 2 16.2515 5.43385 5.4493
186 2 16.2561 8.14731 8.15889
187 2 18.9775 5.43289 8.15927
188 2 18.9774 8.1444 5.44367
189 2 17.616 6.78997 6.80227
190 2 17.6186 9.50317 9.5132
191 2 20.3401 6.78776 9.51614
192 2 20.34 9.49876 6.80132
193 2 21.7035 10.8537 5.44535
194 2 21.7048 13.5655 8.15397
195 2 2.71192 10.8424 8.16753
196 2 2.69423 13.5619 5.44437
197 2 1.34639 12.2016 6.8069
198 2 1.34763 14.912 9.51486
199 2 4.10456 12.1532 9.53125
200 2 4.05592 14.9098 6.80622
201 2 5.41445 10.842 5.46438
202 2 5.41575 13.5454 8.16777
203 2 8.10091 10.751 8.26265
204 2 8.10552 13.5398 5.47217
205 2 6.77821 12.1529 6.85668
206 2 6.76286 14.9205 9.51572
207 2 9.46241 12.1849 9.52155
208 2 9.46937 14.9173 6.80528
209 2 10.8183 10.8508 5.4611
210 2 10.8193 13.5543 8.16527
211 2 13.5252 10.8507 8.16484
212 2 13.5391 13.5719 5.44575
213 2 12.1812 12.2119 6.80374
214 2 12.1779 14.919 9.5158
215 2 14.8896 12.2092 9.51429
216 2 14.8985 14.9313 6.80087
217 2 16.2513 10.8551 5.44573
218 2 16.2524 13.5697 8.15862
219 2 18.9784 10.8584 8.15474
220 2 18.9771 13.5705 5.44141
221 2 17.614 12.214 6.7995
222 2 17.6151 14.93 9.51117
223 2 20.3411 12.2131 9.51153
224 2 20.3398 14.9263 6.79991
225 2 21.6961 16.2848 5.43973
226 2 21.6985 19.0052 8.15416
227 2 2.69459 16.2776 8.15352
228 2 2.68891 19.0023 5.43999
229 2 1.3328 17.641 6.79873
230 2 1.33361 20.3672 9.51107
231 2 4.04885 17.6409 9.51052
232 2 4.04701 20.3649 6.79707
233 2 5.40336 16.2762 5.44415
234 2 5.4038 19.0026 8.15315
235 2 8.11627 16.2823 8.15877
236 2 8.1153 19.0044 5.44213
237 2 6.76023 17.64 6.79823
238 2 6.76076 20.3655 9.50923
239 2 9.47286 17.6454 9.51312
240 2 9.47184 20.3672 6.79916
241 2 10.825 16.2835 5.44687
242 2 10.8291 19.0087 8.15805
243 2 13.5385 16.2842 8.16206
244 2 13.5429 19.0099 5.44561
245 2 12.1852 17.6461 6.80172
246 2 12.1847 20.3719 9.51476
247 2 14.8986 17.6473 9.5147
248 2 14.8982 20.3725 6.80519
249 2 16.2592 16.2897 5.44291
250 2 16.2578 19.0097 8.15972
251 2 18.9777 16.2874 8.15444
252 2 18.978 19.0065 5.44246
253 2 17.6175 17.6499 6.80062
254 2 17.6151 20.3715 9.51738
255 2 20.3393 17.6454 9.51155
256 2 20.3361 20.3659 6.80063
257 2 21.7065 0.00732585 10.8714
258 2 21.7088 2.72122 13.5823
259 2 2.69821 0.00700299 13.5796
260 2 2.72194 2.74518 10.8758
261 2 1.34993 1.37407 12.2201
262 2 1.35134 4.08396 14.9285
263 2 4.06163 1.37508 14.9258
264 2 4.10773 4.13117 12.2034
265 2 5.40823 0.00447746 10.8672
266 2 5.42103 2.74195 13.5673
267 2 8.1185 0.00758281 13.5805
268 2 8.1202 2.73038 10.868
269 2 6.76651 1.36707 12.2199
270 2 6.785 4.13445 14.878
271 2 9.47353 1.37472 14.9325
272 2 9.46625 4.10506 12.2168
273 2 10.8288 0.00874897 10.8712
274 2 10.8245 2.74064 13.5767
275 2 13.5416 0.0120134 13.5825
276 2 13.5148 2.75363 10.8646
277 2 12.1812 1.3753 12.2259
278 2 12.1868 4.08265 14.9399
279 2 14.9028 1.36433 14.9426
280 2 14.8927 4.08568 12.2288
281 2 16.2527 0.0126913 10.8707
282 2 16.2565 2.72472 13.5845
283 2 18.9823 0.00313668 13.5833
284 2 18.9793 2.71979 10.8735
285 2 17.6177 1.36392 12.2306
286 2 17.6197 4.07746 14.944
287 2 20.3456 1.36164 14.9386
288 2 20.3425 4.07559 12.2299
289 2 21.7025 5.432 10.8716
290 2 21.7026 8.14397 13.5819
291 2 2.71715 5.44328 13.568
292 2 2.70151 8.14256 10.8682
293 2 1.33988 6.79042 12.2236
294 2 1.34417 9.49853 14.9333
295 2 4.10889 6.80714 14.8792
296 2 4.07426 9.49104 12.2155
297 2 5.5091 5.53545 10.8793
298 2 5.51018 8.13157 13.475
299 2 8.10772 5.5395 13.4765
512 2 20.3398 20.3644 17.6521
302 2 6.77154 9.49008 14.91
303 2 9.46838 6.79837 14.9104
305 2 10.7266 5.54155 10.86
307 2 13.5295 5.44484 13.5787
308 2 13.5347 8.14689 10.8719
309 2 12.1623 6.80019 12.2199
310 2 12.1315 9.48246 14.8822
311 2 14.8938 6.79402 14.9369
312 2 14.8974 9.50079 12.2246
313 2 16.2587 5.43707 10.8739
314 2 16.259 8.14862 13.5839
315 2 18.981 5.43302 13.5863
316 2 18.9795 8.14668 10.8708
317 2 17.6209 6.7916 12.2299
318 2 17.62 9.5038 14.9412
319 2 20.3435 6.78869 14.9419
320 2 20.341 9.50168 12.2272
321 2 21.7014 10.8555 10.8687
322 2 21.7024 13.5686 13.5765
323 2 2.70678 10.849 13.5733
324 2 2.7197 13.54 10.8587
325 2 1.34303 12.2076 12.2224
326 2 1.33267 14.9282 14.9361
327 2 4.0504 12.2096 14.9356
328 2 4.05307 14.9168 12.2226
329 2 5.50789 10.7512 10.856
330 2 5.41154 13.5529 13.5736
332 2 8.11592 13.5582 10.8694
333 2 6.76808 12.1846 12.2161
334 2 6.76215 14.9179 14.9324
335 2 9.45316 12.1554 14.8802
336 2 9.46898 14.9221 12.2229
338 2 10.8162 13.5475 13.5693
339 2 13.5206 10.8469 13.5699
340 2 13.5132 13.5429 10.8772
341 2 12.1282 12.1574 12.2057
342 2 12.1757 14.9148 14.928
343 2 14.8868 12.2069 14.9288
344 2 14.8851 14.9157 12.2195
345 2 16.2563 10.8581 10.8689
346 2 16.2527 13.5687 13.5794
347 2 18.9791 10.8596 13.5816
348 2 18.9788 13.5727 10.8651
349 2 17.6183 12.2159 12.223
350 2 17.6163 14.9291 14.9344
351 2 20.3416 12.2144 14.9377
352 2 20.3411 14.9286 12.2211
353 2 21.7044 16.2806 10.8619
354 2 21.6999 19.0058 13.5775
355 2 2.69324 16.282 13.5769
356 2 2.69188 19.0045 10.865
357 2 1.33422 17.6433 12.2211
358 2 1.33612 20.3675 14.9341
359 2 4.04886 17.6434 14.9365
360 2 4.05001 20.3666 12.2212
361 2 5.40607 16.2821 10.8688
362 2 5.40533 19.0066 13.5809
363 2 8.11736 16.2845 13.5819
364 2 8.11703 19.0068 10.8693
365 2 6.76111 17.6447 12.225
366 2 6.76207 20.3692 14.9366
367 2 9.47304 17.6473 14.9387
368 2 9.47354 20.3695 12.2252
369 2 10.8271 16.285 10.8713
370 2 10.8292 19.0102 13.5842
371 2 13.5383 16.282 13.5812
372 2 13.5421 19.0101 10.8716
373 2 12.1841 17.6479 12.2269
374 2 12.1861 20.373 14.9394
375 2 14.8982 17.6461 14.9364
376 2 14.8992 20.3728 12.228
377 2 16.2518 16.2827 10.871
378 2 16.2583 19.0083 13.5815
379 2 18.9782 16.2873 13.5769
380 2 18.9786 19.0082 10.8682
381 2 17.6153 17.6468 12.2225
382 2 17.6207 20.3663 14.9383
383 2 20.3377 17.6475 14.934
384 2 20.3416 20.3689 12.2232
385 2 21.7014 21.7239 16.295
386 2 21.7014 2.71431 19.012
387 2 2.69159 8.71663e-06 19.0118
388 2 2.69954 2.72113 16.29
389 2 1.33851 1.36053 17.6499
390 2 1.3362 4.07456 20.3678
391 2 4.05083 1.36043 20.3678
392 2 4.06164 4.08465 17.6372
393 2 5.40698 0.00932569 16.2908
394 2 5.40721 2.72192 19.005
395 2 8.1154 0.00995443 19.0071
396 2 8.11137 2.75061 16.2674
397 2 6.76799 1.37634 17.638
398 2 6.7628 4.07529 20.3702
399 2 9.47505 1.36179 20.371
400 2 9.47493 4.08365 17.6443
401 2 10.8277 0.0107251 16.2948
402 2 10.8281 2.72277 19.01
403 2 13.5455 0.00214913 19.0148
404 2 13.5449 2.72295 16.2992
405 2 12.1878 1.36344 17.6562
406 2 12.1881 4.07589 20.3727
407 2 14.9047 1.35934 20.3749
408 2 14.9043 4.07745 17.6584
409 2 16.2626 0.00191213 16.2979
410 2 16.2639 2.71687 19.0155
411 2 18.9822 21.7222 19.0132
412 2 18.9837 2.71746 16.2981
413 2 17.6239 1.3586 17.6568
414 2 17.6224 4.07461 20.3749
415 2 20.3406 1.35716 20.3719
416 2 20.3457 4.07564 17.6544
417 2 21.7084 5.43039 16.2922
418 2 21.7058 8.13931 19.0051
419 2 2.69691 5.43009 19.0037
420 2 2.7222 8.13429 16.2646
421 2 1.35044 6.79151 17.6378
422 2 1.33342 9.4986 20.3678
423 2 4.0493 6.78664 20.3681
424 2 4.05471 9.49804 17.6411
425 2 5.42134 5.44438 16.2707
426 2 5.40641 8.14347 19.0071
427 2 8.11917 5.43378 19.0101
428 2 8.12061 8.14423 16.2836
429 2 6.76741 6.79191 17.6467
430 2 6.761 9.50105 20.3679
431 2 9.47532 6.78909 20.3722
432 2 9.47219 9.49859 17.6472
433 2 10.8245 5.44375 16.2815
434 2 10.8295 8.14718 19.0111
435 2 13.5425 5.43683 19.0118
436 2 13.5164 8.15605 16.2702
437 2 12.1829 6.79317 17.6462
438 2 12.1864 9.50417 20.3721
439 2 14.902 6.79029 20.3745
440 2 14.8877 9.49935 17.6423
441 2 16.2573 5.43762 16.298
442 2 16.2536 8.14835 19.0094
443 2 18.9823 5.43077 19.0138
444 2 18.9803 8.14484 16.2985
445 2 17.6199 6.78986 17.6582
446 2 17.6162 9.50082 20.3727
447 2 20.3424 6.78852 20.3712
448 2 20.3417 9.50059 17.6549
449 2 21.7023 10.8533 16.2928
450 2 21.6943 13.5695 19.0119
451 2 2.69194 10.8519 19.0039
452 2 2.6905 13.5689 16.2931
453 2 1.33146 12.213 17.6522
454 2 1.32891 14.9284 20.3705
455 2 4.0463 12.2117 20.3647
456 2 4.04661 14.9287 17.6511
457 2 5.4136 10.848 16.2773
458 2 5.4059 13.5677 19.0041
459 2 8.1175 10.8571 19.0067
460 2 8.1257 13.5414 16.2653
461 2 6.76227 12.2078 17.6412
462 2 6.75943 14.9284 20.3658
463 2 9.47195 12.2163 20.3682
464 2 9.46803 14.9158 17.6368
465 2 10.8182 10.8462 16.2723
466 2 10.8286 13.5701 19.0047
467 2 13.5385 10.8605 19.0067
468 2 13.5388 13.5687 16.291
469 2 12.1764 12.2072 17.6391
470 2 12.1841 14.9311 20.3681
471 2 14.8984 12.2157 20.3709
472 2 14.8988 14.9294 17.6506
473 2 16.253 10.8597 16.293
474 2 16.2578 13.5731 19.0121
475 2 18.977 10.8563 19.0124
476 2 18.9771 13.5714 16.2938
477 2 17.6165 12.2145 17.6533
478 2 17.6179 14.9301 20.3715
479 2 20.3351 12.2128 20.3729
480 2 20.3365 14.9293 17.6525
481 2 21.696 16.2878 16.2931
482 2 21.6971 19.0045 19.0113
483 2 2.68809 16.2867 19.0113
484 2 2.69199 19.0062 16.2937
485 2 1.33201 17.6468 17.6514
486 2 1.33227 20.3638 20.3701
487 2 4.04586 17.6466 20.3699
488 2 4.05057 20.3687 17.6505
489 2 5.40742 16.2824 16.2925
490 2 5.40469 19.0065 19.0115
491 2 8.11933 16.2819 19.0044
492 2 8.11774 19.0091 16.2963
493 2 6.76126 17.6455 17.6517
494 2 6.76202 20.3687 20.3691
495 2 9.47136 17.6464 20.3679
496 2 9.47383 20.3712 17.6537
497 2 10.8296 16.2827 16.2912
498 2 10.8297 19.0087 19.0119
499 2 13.5443 16.2899 19.0117
500 2 13.5429 19.0087 16.2957
501 2 12.185 17.6466 17.652
502 2 12.1872 20.3671 20.3732
503 2 14.9026 17.6493 20.3711
504 2 14.9034 20.3661 17.6554
505 2 16.259 16.2886 16.2937
506 2 16.2625 19.0061 19.0123
507 2 18.977 16.2874 19.0112
508 2 18.98 19.006 16.2938
509 2 17.6195 17.6474 17.6517
510 2 17.6211 20.3648 20.372
511 2 20.3368 17.6457 20.3707
ITEM: TIMESTEP
59
ITEM: NUMBER OF ATOMS
504
ITEM: BOX BOUNDS pp pp pp
0.0000000000000000e+00 2.1724000000000000e+01
0.0000000000000000e+00 2.1724000000000000e+01
0.0000000000000000e+00 2.1724000000000000e+01
ITEM: ATOMS id type x y z
1 2 21.6961 21.7234 0.00699311
2 2 21.6972 2.71735 2.72581
3 2 2.68993 21.7245 2.72562
4 2 2.68966 2.71685 0.0079922
5 2 1.33075 1.35814 1.36636
6 2 1.33299 4.07557 4.08561
7 2 4.04808 1.36042 4.08544
8 2 4.04856 4.07589 1.36705
9 2 5.4056 21.7236 0.00716174
10 2 5.40742 2.72037 2.72922
11 2 8.11991 0.00328377 2.72819
12 2 8.11901 2.71942 0.00459137
13 2 6.76249 1.36062 1.3666
14 2 6.76309 4.08104 4.09265
15 2 9.47231 1.36709 4.09194
16 2 9.47517 4.07647 1.36633
17 2 10.8301 0.00341615 0.00422738
18 2 10.8313 2.71966 2.72814
19 2 13.5445 0.000101487 2.72499
20 2 13.5432 2.72058 0.00341696
21 2 12.1875 1.36099 1.36571
22 2 12.1853 4.07929 4.09033
23 2 14.9027 1.35897 4.08392
24 2 14.902 4.07636 1.36541
25 2 16.2605 21.7249 0.00634784
26 2 16.261 2.71726 2.72421
27 2 18.9785 21.7236 2.7247
28 2 18.9777 2.7174 0.00630045
29 2 17.6197 1.3585 1.36563
30 2 17.6196 4.07527 4.08391
31 2 20.3378 1.35833 4.08346
32 2 20.3374 4.07457 1.36612
33 2 21.6962 5.43292 0.00728863
34 2 21.6994 8.14733 2.728
35 2 2.69287 5.43471 2.72914
36 2 2.6916 8.14622 0.00422334
37 2 1.33304 6.78987 1.36664
38 2 1.339 9.49981 4.09161
39 2 4.05333 6.79055 4.09252
40 2 4.04849 9.50253 1.36584
41 2 5.40563 5.43303 0.00433623
42 2 5.40617 8.14683 2.72773
43 2 8.11932 5.43409 2.72804
44 2 8.11852 8.14634 0.00598841
45 2 6.76185 6.78944 1.36649
46 2 6.76379 9.50328 4.08825
47 2 9.47557 6.7919 4.08861
48 2 9.47524 9.50323 1.36617
49 2 10.8313 5.4341 0.00485474
50 2 10.832 8.14659 2.72658
51 2 13.545 5.43346 2.72824
52 2 13.5445 8.14721 0.00483203
53 2 12.1888 6.78981 1.36611
54 2 12.1867 9.50316 4.08852
55 2 14.8994 6.79301 4.09028
56 2 14.9021 9.5032 1.36641
57 2 16.2581 5.43495 0.00336522
58 2 16.259 8.14668 2.72791
59 2 18.9787 5.43312 2.72489
60 2 18.9754 8.1475 0.00410046
61 2 17.6178 6.79024 1.36574
62 2 17.6115 9.50548 4.09188
63 2 20.338 6.79004 4.08577
64 2 20.3373 9.5025 1.36608
65 2 21.6992 10.8574 0.00375259
66 2 21.6957 13.5719 2.72427
67 2 2.69137 10.8586 2.7274
68 2 2.69225 13.5704 0.0025195
69 2 1.33269 12.215 1.36506
70 2 1.33051 14.9302 4.08307
71 2 4.05088 12.2128 4.08947
72 2 4.04803 14.9294 1.36439
73 2 5.4059 10.8588 0.00418899
74 2 5.40505 13.5725 2.72738
75 2 8.11829 10.8599 2.72622
76 2 8.11888 13.5724 0.00424005
77 2 6.76152 12.2164 1.36536
78 2 6.76459 14.9271 4.08938
79 2 9.47476 12.2148 4.08814
80 2 9.47484 14.9301 1.36582
81 2 10.832 10.8602 0.00600829
82 2 10.8309 13.5726 2.72757
83 2 13.5443 10.8593 2.72777
84 2 13.5449 13.5733 0.0043802
85 2 12.1886 12.2169 1.36655
86 2 12.1871 14.9256 4.09232
87 2 14.8972 12.2155 4.09249
88 2 14.9019 14.9303 1.36717
89 2 16.259 10.8593 0.00453415
90 2 16.2576 13.571 2.7289
91 2 18.9751 10.8576 2.72792
92 2 18.9784 13.5723 0.00710092
93 2 17.6176 12.2155 1.36676
94 2 17.6174 14.9302 4.08538
95 2 20.3365 12.2151 4.08541
96 2 20.337 14.9308 1.36574
97 2 21.6968 16.2879 0.00574262
98 2 21.6958 19.0059 2.72436
99 2 2.68904 16.2883 2.72337
100 2 2.6897 19.0049 0.00577002
101 2 1.3304 17.6472 1.36494
102 2 1.33052 20.3653 4.0831
103 2 4.0471 17.6471 4.08302
104 2 4.04688 20.3648 1.36559
105 2 5.40684 16.2855 0.00257115
106 2 5.40533 19.0062 2.72442
107 2 8.11847 16.2869 2.72742
108 2 8.11977 19.0032 0.00387493
109 2 6.76216 17.6454 1.36496
110 2 6.76226 20.3657 4.08536
111 2 9.4773 17.6396 4.09147
112 2 9.47478 20.3653 1.36598
113 2 10.8311 16.2873 0.00434425
114 2 10.8298 19.0034 2.72808
115 2 13.5427 16.2861 2.72897
116 2 13.5445 19.0068 0.00740791
117 2 12.1874 17.646 1.36666
118 2 12.1873 20.3649 4.08572
119 2 14.9019 17.6459 4.08551
120 2 14.903 20.3654 1.36617
121 2 16.2609 16.2891 0.00803123
122 2 16.2602 19.0055 2.72573
123 2 18.9772 16.2881 2.72544
124 2 18.9784 19.0062 0.00700674
125 2 17.6196 17.6477 1.36648
126 2 17.6195 20.3646 4.08345
127 2 20.3364 17.6474 4.08311
128 2 20.3371 20.3649 1.36578
129 2 21.6971 21.7247 5.44252
130 2 21.7008 2.72054 8.16003
131 2 2.693 0.00421507 8.15979
132 2 2.6939 2.7213 5.4464
133 2 1.33299 1.36053 6.80068
134 2 1.34026 4.08109 9.51572
135 2 4.05359 1.36774 9.5155
136 2 4.05404 4.08156 6.80652
137 2 5.40736 0.00419898 5.44536
138 2 5.41646 2.73455 8.16884
139 2 8.11942 0.00331599 8.15895
140 2 8.12406 2.73443 5.4593
141 2 6.7631 1.36778 6.80591
142 2 6.77633 4.10143 9.52871
143 2 9.47575 1.36403 9.51668
144 2 9.46731 4.10704 6.83179
145 2 10.8312 0.00328946 5.44454
146 2 10.8306 2.73001 8.16485
147 2 13.545 0.00357091 8.1584
148 2 13.5452 2.71865 5.44353
149 2 12.1853 1.36553 6.80416
150 2 12.1807 4.09456 9.5235
151 2 14.8995 1.3656 9.518
152 2 14.9012 4.07755 6.80247
153 2 16.2609 -0.000737458 5.44231
154 2 16.2604 2.71863 8.15818
155 2 18.9787 2.36674e-05 8.15826
156 2 18.9795 2.71722 5.44233
157 2 17.6196 1.3589 6.80039
158 2 17.6137 4.07927 9.51802
159 2 20.3382 1.36088 9.51519
160 2 20.3386 4.07618 6.8013
161 2 21.7006 5.43486 5.4455
162 2 21.6993 8.14696 8.15882
163 2 2.70687 5.44389 8.1688
164 2 2.70638 8.15146 5.45892
165 2 1.34002 6.79063 6.80597
166 2 1.33585 9.50329 9.51644
167 2 4.0736 6.80384 9.52862
168 2 4.0788 9.49484 6.83131
169 2 5.41626 5.44389 5.45932
170 2 5.46536 8.1683 8.21786
171 2 8.14062 5.49355 8.21816
172 2 8.12241 8.15046 5.44989
173 2 6.77609 6.8039 6.82603
176 2 9.47553 9.50368 6.8134
177 2 10.8305 5.44002 5.45459
178 2 10.8233 8.15655 8.18697
179 2 13.5428 5.43672 8.16138
180 2 13.539 8.14846 5.45435
181 2 12.1805 6.79867 6.81911
182 2 12.083 9.51601 9.62153
183 2 14.8852 6.7987 9.52347
184 2 14.8721 9.51161 6.8316
185 2 16.2602 5.43315 5.4434
186 2 16.2495 8.14841 8.1645
187 2 18.9759 5.4334 8.15834
188 2 18.9757 8.14655 5.4443
189 2 17.6136 6.79291 6.80411
190 2 17.6154 9.50311 9.51667
191 2 20.3381 6.78964 9.51461
192 2 20.3374 9.50276 6.80122
193 2 21.6989 10.8588 5.44399
194 2 21.699 13.5726 8.15764
195 2 2.70148 10.8581 8.16414
196 2 2.69011 13.5726 5.4426
197 2 1.33704 12.2128 6.80347
198 2 1.33707 14.9271 9.51713
199 2 4.06601 12.2082 9.52268
200 2 4.04904 14.9287 6.80144
201 2 5.41159 10.8581 5.45394
202 2 5.4081 13.5704 8.16055
203 2 8.12807 10.8514 8.18665
204 2 8.11994 13.567 5.45382
205 2 6.77019 12.2083 6.8184
206 2 6.77023 14.9128 9.52259
207 2 9.48763 12.1109 9.6212
208 2 9.48314 14.9001 6.83109
209 2 10.8283 10.8567 5.44965
210 2 10.8106 13.5143 8.21755
211 2 13.486 10.8392 8.21771
212 2 13.5344 13.563 5.45881
213 2 12.1749 12.2033 6.82576
214 2 12.175 14.9062 9.52842
215 2 14.8779 12.2034 9.52857
216 2 14.8967 14.9252 6.80625
217 2 16.2443 10.8545 5.45879
218 2 16.2443 13.5629 8.16829
219 2 18.9757 10.8591 8.15859
220 2 18.974 13.5708 5.44496
221 2 17.6108 12.2153 6.80576
222 2 17.6109 14.9256 9.51545
223 2 20.337 12.2165 9.5142
224 2 20.336 14.9297 6.80072
225 2 21.6949 16.2885 5.44163
226 2 21.6961 19.0063 8.15788
227 2 2.69026 16.2878 8.15729
228 2 2.68932 19.0069 5.44176
229 2 1.33063 17.6472 6.79964
230 2 1.33306 20.3657 9.51478
231 2 4.05106 17.6412 9.51707
232 2 4.04835 20.366 6.80073
233 2 5.40485 16.2878 5.44262
234 2 5.40549 19.0034 8.15781
235 2 8.12006 16.2775 8.16404
236 2 8.11867 19.0036 5.44413
237 2 6.7647 17.6412 6.80334
238 2 6.76185 20.3657 9.51412
239 2 9.4749 17.6434 9.51625
240 2 9.47491 20.3655 6.80115
241 2 10.8262 16.2727 5.4587
242 2 10.8311 19.0041 8.15878
243 2 13.5346 16.2728 8.16839
244 2 13.5428 19.0026 5.44536
245 2 12.1871 17.6392 6.80574
246 2 12.1886 20.3654 9.51451
247 2 14.8973 17.6394 9.51559
248 2 14.9017 20.3645 6.80122
249 2 16.2567 16.2851 5.44599
250 2 16.2578 19.0026 8.15982
251 2 18.9742 16.2858 8.15949
252 2 18.9773 19.0053 5.44238
253 2 17.6174 17.6458 6.80058
254 2 17.6177 20.3649 9.51516
255 2 20.3366 17.6456 9.51478
256 2 20.3372 20.3651 6.79959
257 2 21.6998 0.00331914 10.8724
258 2 21.6997 2.71949 13.5839
259 2 2.69212 0.00295198 13.5836
260 2 2.70692 2.7343 10.8765
261 2 1.33959 1.36699 12.2248
262 2 1.33784 4.07899 14.9379
263 2 4.05171 1.36513 14.9377
264 2 4.07941 4.10682 12.2198
265 2 5.40663 0.00317789 10.8717
266 2 5.4124 2.72965 13.583
267 2 8.11895 0.00199833 13.5847
268 2 8.1229 2.72554 10.8753
269 2 6.76435 1.36387 12.2281
270 2 6.77099 4.0942 14.9332
271 2 9.47548 1.36398 14.9396
272 2 9.47605 4.08913 12.2285
273 2 10.8323 0.00220839 10.8714
274 2 10.829 2.72554 13.5816
275 2 13.5448 0.00353454 13.5841
276 2 13.5394 2.73001 10.8734
277 2 12.1871 1.36418 12.228
278 2 12.1756 4.10158 14.9282
279 2 14.8979 1.36816 14.9404
280 2 14.8725 4.10717 12.2366
281 2 16.2593 0.00339463 10.8717
282 2 16.245 2.73448 13.5795
283 2 18.9758 0.00344713 13.5826
284 2 18.9761 2.71967 10.8717
285 2 17.612 1.3673 12.2305
286 2 17.6115 4.08131 14.9404
287 2 20.3372 1.36088 14.9401
288 2 20.3379 4.07655 12.2279
289 2 21.6996 5.4341 10.872
290 2 21.698 8.14639 13.5847
291 2 2.7021 5.43967 13.583
292 2 2.69741 8.15031 10.875
293 2 1.33618 6.79176 12.2282
294 2 1.33596 9.50285 14.9394
295 2 4.06658 6.79827 14.9331
296 2 4.06094 9.50346 12.2281
297 2 5.46572 5.4934 10.8931
298 2 5.43442 8.15621 13.5759
299 2 8.12868 5.46249 13.5761
512 2 20.3376 20.3652 17.6555
302 2 6.86896 9.5157 14.8355
303 2 9.4882 6.89703 14.8357
305 2 10.8236 5.4627 10.8812
307 2 13.4865 5.49354 13.564
308 2 13.5176 8.15658 10.8811
309 2 12.0832 6.89722 12.2408
310 2 12.0833 9.4923 14.8359
311 2 14.8785 6.80425 14.9283
312 2 14.891 9.50403 12.2286
313 2 16.2498 5.43998 10.8733
314 2 16.2545 8.1506 13.5815
315 2 18.9763 5.43413 13.5841
316 2 18.9775 8.14653 10.8712
317 2 17.6157 6.79204 12.2281
318 2 17.6158 9.50385 14.9399
319 2 20.3376 6.78969 14.9415
320 2 20.3377 9.50325 12.228
321 2 21.6978 10.8599 10.8709
322 2 21.699 13.5723 13.5834
323 2 2.69709 10.8564 13.5809
324 2 2.70138 13.5668 10.8725
325 2 1.33574 12.2146 12.2274
326 2 1.33982 14.9253 14.9396
327 2 4.07322 12.2029 14.9274
328 2 4.07872 14.8999 12.2356
329 2 5.43413 10.8512 10.8806
330 2 5.465 13.514 13.5632
332 2 8.12804 13.5455 10.8805
333 2 6.86874 12.1108 12.2401
334 2 6.77592 14.9059 14.9274
335 2 9.46408 12.1111 14.8355
336 2 9.47564 14.9189 12.2281
338 2 10.8234 13.5458 13.5759
339 2 13.5177 10.8517 13.5761
340 2 13.4861 13.5145 10.8928
341 2 12.0831 12.1113 12.2166
342 2 12.1809 14.9137 14.9334
343 2 14.8855 12.2092 14.9336
344 2 14.8724 14.9007 12.2199
345 2 16.2542 10.8568 10.875
346 2 16.2497 13.5676 13.583
347 2 18.9774 10.8601 13.5847
348 2 18.9758 13.5725 10.8715
349 2 17.6155 12.2152 12.2283
350 2 17.6139 14.928 14.9381
351 2 20.338 12.2168 14.9413
352 2 20.3375 14.9301 12.2274
353 2 21.699 16.2869 10.871
354 2 21.6996 19.0032 13.5822
355 2 2.70621 16.2723 13.5786
356 2 2.69179 19.0035 10.8711
357 2 1.33915 17.6395 12.2298
358 2 1.33328 20.3646 14.9397
359 2 4.05328 17.6388 14.9395
360 2 4.04886 20.3653 12.2273
361 2 5.41165 16.2773 10.8725
362 2 5.40634 19.0038 13.5835
363 2 8.12235 16.2823 13.581
364 2 8.11863 19.0054 10.871
365 2 6.76391 17.6432 12.2272
366 2 6.76206 20.3651 14.941
367 2 9.47576 17.6436 14.9394
368 2 9.47547 20.3657 12.2278
369 2 10.8285 16.2825 10.8748
370 2 10.8323 19.0057 13.5847
371 2 13.5393 16.2781 13.583
372 2 13.5445 19.0043 10.8719
373 2 12.187 17.6438 12.2282
374 2 12.189 20.3663 14.9415
375 2 14.8998 17.6422 14.9382
376 2 14.9022 20.3659 12.2279
377 2 16.2446 16.2729 10.8763
378 2 16.2593 19.0041 13.5839
379 2 18.9759 16.2872 13.5836
380 2 18.9755 19.0034 10.8723
381 2 17.6118 17.64 12.2249
382 2 17.6181 20.3663 14.9402
383 2 20.3382 17.6458 14.9399
384 2 20.3376 20.3654 12.2274
385 2 21.6965 21.7238 16.2969
386 2 21.6956 2.71691 19.0135
387 2 2.68966 -0.00125491 19.0133
388 2 2.69098 2.71814 16.2977
389 2 1.33132 1.35856 17.6552
390 2 1.33119 4.07492 20.3722
391 2 4.04765 1.35843 20.3721
392 2 4.04983 4.07704 17.6537
393 2 5.40583 0.00305919 16.2974
394 2 5.40551 2.7181 19.0128
395 2 8.11903 0.00301007 19.0117
396 2 8.12076 2.72962 16.2919
397 2 6.76537 1.36513 17.6519
398 2 6.76525 4.07886 20.3662
399 2 9.47784 1.36704 20.3644
400 2 9.48392 4.10687 17.625
401 2 10.8315 0.00337703 16.2973
402 2 10.8268 2.73429 18.9975
403 2 13.5433 0.00450774 19.0108
404 2 13.5352 2.73458 16.2878
405 2 12.1878 1.36805 17.6504
406 2 12.1877 4.08125 20.3641
407 2 14.9025 1.3609 20.3708
408 2 14.8974 4.08186 17.6501
409 2 16.2583 0.004519 16.2958
410 2 16.2574 2.72138 19.01
411 2 18.9778 21.7248 19.013
412 2 18.9749 2.72046 16.2958
413 2 17.6182 1.36085 17.6551
414 2 17.6181 4.07585 20.3708
415 2 20.337 1.35833 20.3724
416 2 20.3368 4.07615 17.6547
417 2 21.6996 5.43313 16.2976
418 2 21.6992 8.14635 19.0116
419 2 2.69074 5.43265 19.0128
420 2 2.70172 8.14798 16.2916
421 2 1.33762 6.79263 17.6521
422 2 1.33912 9.50517 20.3642
423 2 4.05137 6.79249 20.3661
424 2 4.07893 9.51116 17.6246
425 2 5.40878 5.4362 16.2953
426 2 5.4118 8.14793 19.002
427 2 8.12056 5.4396 19.0023
428 2 8.12841 8.15625 16.2702
429 2 6.77079 6.79827 17.6377
430 2 6.76393 9.50279 20.3678
431 2 9.47529 6.79183 20.3682
432 2 9.47593 9.5038 17.6435
433 2 10.8113 5.49338 16.2391
434 2 10.8288 8.15046 19.0071
435 2 13.5351 5.44393 18.9977
436 2 13.4865 8.16853 16.2392
437 2 12.1756 6.80416 17.6311
438 2 12.1871 9.50384 20.3683
439 2 14.8978 6.79105 20.3642
440 2 14.8727 9.49562 17.6254
441 2 16.245 5.44394 16.2878
442 2 16.2448 8.15179 18.9976
443 2 18.9747 5.43482 19.0108
444 2 18.9762 8.14707 16.2973
445 2 17.6115 6.791 17.6506
446 2 17.6119 9.50041 20.3647
447 2 20.337 6.79009 20.3705
448 2 20.3377 9.50298 17.6548
449 2 21.6991 10.859 16.2969
450 2 21.7002 13.5707 19.0102
451 2 2.70607 10.8541 18.9969
452 2 2.70616 13.5625 16.287
453 2 1.3398 12.2151 17.6498
454 2 1.33263 14.9299 20.37
455 2 4.05302 12.215 20.3633
456 2 4.05359 14.9247 17.6491
457 2 5.46506 10.8387 16.2385
458 2 5.41561 13.5625 18.9968
459 2 8.12228 10.8565 19.0067
460 2 8.14018 13.5143 16.2386
461 2 6.77593 12.2031 17.6304
462 2 6.76278 14.9253 20.3633
463 2 9.47561 12.215 20.3679
464 2 9.46734 14.9005 17.6248
465 2 10.8235 10.8516 16.2703
466 2 10.8304 13.5675 19.0022
467 2 13.5393 10.8587 19.0025
468 2 13.5429 13.5712 16.2955
469 2 12.181 12.2092 17.6381
470 2 12.1855 14.928 20.3664
471 2 14.8997 12.2138 20.3666
472 2 14.9017 14.93 17.6543
473 2 16.2498 10.8587 16.292
474 2 16.2604 13.5735 19.013
475 2 18.9758 10.8591 19.0118
476 2 18.9757 13.5731 16.2975
477 2 17.6139 12.2137 17.6524
478 2 17.6198 14.9311 20.3725
479 2 20.338 12.2154 20.3703
480 2 20.3385 14.93 17.6545
481 2 21.7004 16.2857 16.2952
482 2 21.6971 19.0051 19.0127
483 2 2.69329 16.2846 19.0091
484 2 2.69278 19.0021 16.2952
485 2 1.33288 17.6455 17.6544
486 2 1.33074 20.3643 20.372
487 2 4.04785 17.6453 20.3699
488 2 4.0486 20.364 17.6541
489 2 5.41579 16.2724 16.287
490 2 5.40716 19.0021 19.0102
491 2 8.12368 16.2726 18.997
492 2 8.11933 19.004 16.297
493 2 6.763 17.639 17.6497
494 2 6.76247 20.3645 20.3701
495 2 9.47236 17.6398 20.3642