ITEM: TIMESTEP
0
ITEM: NUMBER OF ATOMS
7
ITEM: BOX BOUNDS pp pp pp
0.0000000000000000e+00 2.1724000000000000e+01
0.0000000000000000e+00 2.1724000000000000e+01
0.0000000000000000e+00 2.1724000000000000e+01
ITEM: ATOMS id type x y z
174 1 6.86775 9.49992 9.62069
175 1 9.46441 6.90709 9.62317
301 1 6.87004 6.90631 12.2171
304 1 8.44266 8.48312 11.1965
306 1 10.5121 8.48457 13.2624
331 1 8.44223 10.5435 13.2633
337 1 10.5124 10.5437 11.1959
ITEM: TIMESTEP
59
ITEM: NUMBER OF ATOMS
7
ITEM: BOX BOUNDS pp pp pp
0.0000000000000000e+00 2.1724000000000000e+01
0.0000000000000000e+00 2.1724000000000000e+01
0.0000000000000000e+00 2.1724000000000000e+01
ITEM: ATOMS id type x y z
174 1 6.8688 9.49179 9.62127
175 1 9.46401 6.89708 9.62163
301 1 6.86917 6.89691 12.2165
304 1 8.44336 8.47163 11.1959
306 1 10.5089 8.47173 13.2615
331 1 8.4433 10.5368 13.2612
337 1 10.5087 10.5369 11.1959
ITEM: TIMESTEP
63
ITEM: NUMBER OF ATOMS
7
ITEM: BOX BOUNDS pp pp pp
0.0000000000000000e+00 2.1724000000000000e+01
0.0000000000000000e+00 2.1724000000000000e+01
0.0000000000000000e+00 2.1724000000000000e+01
ITEM: ATOMS id type x y z
174 1 6.86874 9.49174 9.62122
175 1 9.46395 6.89696 9.62154
301 1 6.86906 6.89681 12.2164
304 1 8.44328 8.47149 11.1958
306 1 10.5088 8.47158 13.2614
331 1 8.44323 10.5367 13.2612
337 1 10.5086 10.5368 11.1958
