ITEM: TIMESTEP
0
ITEM: NUMBER OF ATOMS
7
ITEM: BOX BOUNDS pp pp pp
0.0000000000000000e+00 2.1724000000000000e+01
0.0000000000000000e+00 2.1724000000000000e+01
0.0000000000000000e+00 2.1724000000000000e+01
ITEM: ATOMS id type x y z
174 1 6.97484 9.3375 9.72902
175 1 9.3077 7.00969 9.73046
301 1 6.97705 7.00866 12.0587
304 1 8.79739 8.82994 11.5489
306 1 10.62 8.32208 13.3702
331 1 8.28619 10.6476 13.3696
337 1 10.6188 10.6488 11.0388
ITEM: TIMESTEP
59
ITEM: NUMBER OF ATOMS
7
ITEM: BOX BOUNDS pp pp pp
0.0000000000000000e+00 2.1724000000000000e+01
0.0000000000000000e+00 2.1724000000000000e+01
0.0000000000000000e+00 2.1724000000000000e+01
ITEM: ATOMS id type x y z
174 1 6.99154 9.36232 9.74395
175 1 9.3345 7.01952 9.74432
301 1 6.99191 7.01936 12.087
304 1 8.79677 8.82484 11.5492
306 1 10.6005 8.28421 13.3532
331 1 8.25589 10.6284 13.3529
337 1 10.6003 10.6286 11.0084
ITEM: TIMESTEP
63
ITEM: NUMBER OF ATOMS
7
ITEM: BOX BOUNDS pp pp pp
0.0000000000000000e+00 2.1724000000000000e+01
0.0000000000000000e+00 2.1724000000000000e+01
0.0000000000000000e+00 2.1724000000000000e+01
ITEM: ATOMS id type x y z
174 1 6.99143 9.36278 9.74385
175 1 9.33496 7.01938 9.74418
301 1 6.99176 7.01924 12.0874
304 1 8.79624 8.82427 11.5487
306 1 10.6003 8.28425 13.353
331 1 8.25601 10.6282 13.3527
337 1 10.6001 10.6284 11.0085
