ITEM: TIMESTEP
0
ITEM: NUMBER OF ATOMS
504
ITEM: BOX BOUNDS pp pp pp
0.0000000000000000e+00 2.1724000000000000e+01
0.0000000000000000e+00 2.1724000000000000e+01
0.0000000000000000e+00 2.1724000000000000e+01
ITEM: ATOMS id type x y z
1 2 21.6973 21.721 0.00688225
2 2 21.6969 2.71493 2.72619
3 2 2.68745 21.7205 2.72477
4 2 2.69088 2.71495 0.00630037
5 2 1.33124 1.35658 1.36548
6 2 1.33187 4.07362 4.0858
7 2 4.0455 1.35692 4.08394
8 2 4.0483 4.07206 1.36949
9 2 5.40358 21.724 0.00751835
10 2 5.40732 2.71783 2.73233
11 2 8.11877 0.00678071 2.73421
12 2 8.11782 2.71709 0.0091092
13 2 6.76084 1.35864 1.36924
14 2 6.76167 4.07952 4.09599
15 2 9.46794 1.37418 4.10031
16 2 9.47402 4.07461 1.37142
17 2 10.8297 0.0021368 0.00990572
18 2 10.8296 2.72181 2.73604
19 2 13.5441 0.00241007 2.72871
20 2 13.5457 2.71794 0.0107972
21 2 12.1852 1.36252 1.37221
22 2 12.1758 4.08487 4.10209
23 2 14.8989 1.36373 4.08939
24 2 14.9 4.07789 1.37327
25 2 16.263 21.7239 0.00874342
26 2 16.2605 2.71804 2.72856
27 2 18.9788 21.7229 2.72683
28 2 18.9815 2.71514 0.00829986
29 2 17.6208 1.35907 1.36846
30 2 17.6157 4.07805 4.08923
31 2 20.3365 1.35835 4.08599
32 2 20.3386 4.07428 1.36745
33 2 21.7 5.42945 0.00718387
34 2 21.7026 8.14432 2.73181
35 2 2.69281 5.43167 2.73109
36 2 2.69029 8.14175 0.00552514
37 2 1.33372 6.78625 1.36899
38 2 1.34647 9.49239 4.09852
39 2 4.05248 6.78736 4.09537
40 2 4.0482 9.49761 1.36666
41 2 5.40397 5.42992 0.00741903
42 2 5.40477 8.14158 2.72905
43 2 8.11653 5.43192 2.73081
44 2 8.11626 8.14489 0.00694921
45 2 6.76113 6.78632 1.36769
46 2 6.76207 9.49594 4.08983
47 2 9.4689 6.79126 4.09125
48 2 9.47293 9.5019 1.36743
49 2 10.8308 5.43189 0.0104455
50 2 10.8266 8.1452 2.73044
51 2 13.5383 5.43272 2.73627
52 2 13.5427 8.1464 0.0102018
53 2 12.1862 6.78937 1.37164
54 2 12.1772 9.50034 4.09737
55 2 14.884 6.79407 4.10295
56 2 14.8988 9.50238 1.37236
57 2 16.2604 5.43145 0.0103244
58 2 16.2509 8.1421 2.73527
59 2 18.9779 5.4314 2.7278
60 2 18.9779 8.14298 0.00836771
61 2 17.6158 6.78987 1.37184
62 2 17.6146 9.50084 4.08753
63 2 20.3395 6.78711 4.08726
64 2 20.3392 9.49817 1.36886
65 2 21.6965 10.8534 0.00552137
66 2 21.6956 13.5679 2.72487
67 2 2.69262 10.8521 2.73029
68 2 2.68784 13.5676 0.00340759
69 2 1.33208 12.209 1.3675
70 2 1.333 14.9221 4.0855
71 2 4.05544 12.2001 4.09579
72 2 4.04623 14.9239 1.3653
73 2 5.40228 10.8559 0.00409466
74 2 5.40224 13.5642 2.72943
75 2 8.11471 10.8546 2.72912
76 2 8.1139 13.5719 0.00565944
77 2 6.75949 12.2112 1.36619
78 2 6.76397 14.9106 4.09673
79 2 9.46892 12.208 4.09475
80 2 9.47098 14.929 1.36714
81 2 10.8283 10.8612 0.00760532
82 2 10.8238 13.5699 2.73128
83 2 13.5374 10.8557 2.73351
84 2 13.5414 13.5749 0.00778613
85 2 12.1854 12.2164 1.37034
86 2 12.1842 14.9304 4.08549
87 2 14.8981 12.2162 4.08619
88 2 14.9011 14.9329 1.36669
89 2 16.2566 10.8583 0.00912664
90 2 16.2584 13.5735 2.726
91 2 18.977 10.8557 2.72685
92 2 18.9756 13.5711 0.00736887
93 2 17.6175 12.2145 1.36759
94 2 17.6184 14.9314 4.08396
95 2 20.3398 12.2107 4.08609
96 2 20.3358 14.9281 1.36662
97 2 21.6945 16.286 0.00613419
98 2 21.6941 19.0033 2.72404
99 2 2.68717 16.283 2.72309
100 2 2.68705 19.0032 0.00638053
101 2 1.32854 17.6442 1.36533
102 2 1.32868 20.3616 4.08288
103 2 4.04667 17.639 4.08395
104 2 4.04538 20.3623 1.36487
105 2 5.40179 16.2848 0.00451572
106 2 5.4019 19.0026 2.7254
107 2 8.11177 16.2805 2.731
108 2 8.11563 19.006 0.00690771
109 2 6.75924 17.643 1.36592
110 2 6.75879 20.3649 4.08426
111 2 9.47178 17.6438 4.08453
112 2 9.47053 20.368 1.36948
113 2 10.8277 16.2893 0.00681783
114 2 10.8285 19.0079 2.72794
115 2 13.5425 16.2906 2.72663
116 2 13.5452 19.008 0.00777545
117 2 12.1857 17.6498 1.36618
118 2 12.1839 20.37 4.08797
119 2 14.9013 17.65 4.08564
120 2 14.9026 20.367 1.36811
121 2 16.2601 16.2899 0.00681262
122 2 16.2611 19.0077 2.72704
123 2 18.9769 16.288 2.72469
124 2 18.9788 19.0049 0.00693457
125 2 17.6191 17.6482 1.36676
126 2 17.6188 20.3671 4.08685
127 2 20.3354 17.6459 4.08355
128 2 20.3367 20.3638 1.36629
129 2 21.6963 21.7223 5.44234
130 2 21.7026 2.71923 8.16141
131 2 2.69429 0.00395357 8.15739
132 2 2.69017 2.71594 5.44387
133 2 1.33139 1.35796 6.80056
134 2 1.3433 4.07984 9.51578
135 2 4.05506 1.36844 9.51219
136 2 4.0495 4.07474 6.8023
137 2 5.4063 0.00391323 5.4437
138 2 5.41301 2.73247 8.16264
139 2 8.11754 0.0048164 8.15678
140 2 8.12566 2.74674 5.47217
141 2 6.76238 1.36859 6.80351
142 2 6.76999 4.10096 9.52033
143 2 9.47168 1.36658 9.5148
144 2 9.45163 4.13463 6.85932
145 2 10.8285 0.00935513 5.44821
146 2 10.8178 2.74444 8.1711
147 2 13.5387 0.0126815 8.16071
148 2 13.5389 2.72397 5.44928
149 2 12.1764 1.3771 6.81081
150 2 12.1281 4.13699 9.53602
151 2 14.8851 1.38003 9.52191
152 2 14.8855 4.08693 6.81166
153 2 16.2595 0.00399757 5.44626
154 2 16.2518 2.72657 8.16137
155 2 18.9783 0.00327583 8.16025
156 2 18.9765 2.71752 5.44557
157 2 17.6148 1.36432 6.80712
158 2 17.6174 4.07813 9.51778
159 2 20.3407 1.36139 9.51713
160 2 20.339 4.07435 6.80343
161 2 21.7012 5.43213 5.44717
162 2 21.7011 8.14251 8.15884
163 2 2.70668 5.43691 8.16371
164 2 2.71827 8.1499 5.47183
165 2 1.34212 6.78743 6.80627
166 2 1.33802 9.49621 9.51622
167 2 4.07439 6.79553 9.51986
168 2 4.10387 9.47846 6.85702
169 2 5.41065 5.43712 5.45996
170 2 5.50787 8.1566 8.26146
171 2 8.12773 5.53838 8.26254
172 2 8.11472 8.14386 5.45426
173 2 6.76703 6.79654 6.82741
176 2 9.46134 9.49256 6.82829
177 2 10.8159 5.44562 5.46774
178 2 10.7235 8.13534 8.26306
179 2 13.5199 5.44746 8.1719
180 2 13.5109 8.13761 5.47421
181 2 12.1261 6.81054 6.86049
182 2 12.1597 9.49321 9.52355
183 2 14.8977 6.79366 9.51861
184 2 14.8886 9.50014 6.80676
185 2 16.2515 5.43385 5.4493
186 2 16.2561 8.14731 8.15889
187 2 18.9775 5.43289 8.15927
188 2 18.9774 8.1444 5.44367
189 2 17.616 6.78997 6.80227
190 2 17.6186 9.50317 9.5132
191 2 20.3401 6.78776 9.51614
192 2 20.34 9.49876 6.80132
193 2 21.7035 10.8537 5.44535
194 2 21.7048 13.5655 8.15397
195 2 2.71192 10.8424 8.16753
196 2 2.69423 13.5619 5.44437
197 2 1.34639 12.2016 6.8069
198 2 1.34763 14.912 9.51486
199 2 4.10456 12.1532 9.53125
200 2 4.05592 14.9098 6.80622
201 2 5.41445 10.842 5.46438
202 2 5.41575 13.5454 8.16777
203 2 8.10091 10.751 8.26265
204 2 8.10552 13.5398 5.47217
205 2 6.77821 12.1529 6.85668
206 2 6.76286 14.9205 9.51572
207 2 9.46241 12.1849 9.52155
208 2 9.46937 14.9173 6.80528
209 2 10.8183 10.8508 5.4611
210 2 10.8193 13.5543 8.16527
211 2 13.5252 10.8507 8.16484
212 2 13.5391 13.5719 5.44575
213 2 12.1812 12.2119 6.80374
214 2 12.1779 14.919 9.5158
215 2 14.8896 12.2092 9.51429
216 2 14.8985 14.9313 6.80087
217 2 16.2513 10.8551 5.44573
218 2 16.2524 13.5697 8.15862
219 2 18.9784 10.8584 8.15474
220 2 18.9771 13.5705 5.44141
221 2 17.614 12.214 6.7995
222 2 17.6151 14.93 9.51117
223 2 20.3411 12.2131 9.51153
224 2 20.3398 14.9263 6.79991
225 2 21.6961 16.2848 5.43973
226 2 21.6985 19.0052 8.15416
227 2 2.69459 16.2776 8.15352
228 2 2.68891 19.0023 5.43999
229 2 1.3328 17.641 6.79873
230 2 1.33361 20.3672 9.51107
231 2 4.04885 17.6409 9.51052
232 2 4.04701 20.3649 6.79707
233 2 5.40336 16.2762 5.44415
234 2 5.4038 19.0026 8.15315
235 2 8.11627 16.2823 8.15877
236 2 8.1153 19.0044 5.44213
237 2 6.76023 17.64 6.79823
238 2 6.76076 20.3655 9.50923
239 2 9.47286 17.6454 9.51312
240 2 9.47184 20.3672 6.79916
241 2 10.825 16.2835 5.44687
242 2 10.8291 19.0087 8.15805
243 2 13.5385 16.2842 8.16206
244 2 13.5429 19.0099 5.44561
245 2 12.1852 17.6461 6.80172
246 2 12.1847 20.3719 9.51476
247 2 14.8986 17.6473 9.5147
248 2 14.8982 20.3725 6.80519
249 2 16.2592 16.2897 5.44291
250 2 16.2578 19.0097 8.15972
251 2 18.9777 16.2874 8.15444
252 2 18.978 19.0065 5.44246
253 2 17.6175 17.6499 6.80062
254 2 17.6151 20.3715 9.51738
255 2 20.3393 17.6454 9.51155
256 2 20.3361 20.3659 6.80063
257 2 21.7065 0.00732585 10.8714
258 2 21.7088 2.72122 13.5823
259 2 2.69821 0.00700299 13.5796
260 2 2.72194 2.74518 10.8758
261 2 1.34993 1.37407 12.2201
262 2 1.35134 4.08396 14.9285
263 2 4.06163 1.37508 14.9258
264 2 4.10773 4.13117 12.2034
265 2 5.40823 0.00447746 10.8672
266 2 5.42103 2.74195 13.5673
267 2 8.1185 0.00758281 13.5805
268 2 8.1202 2.73038 10.868
269 2 6.76651 1.36707 12.2199
270 2 6.785 4.13445 14.878
271 2 9.47353 1.37472 14.9325
272 2 9.46625 4.10506 12.2168
273 2 10.8288 0.00874897 10.8712
274 2 10.8245 2.74064 13.5767
275 2 13.5416 0.0120134 13.5825
276 2 13.5148 2.75363 10.8646
277 2 12.1812 1.3753 12.2259
278 2 12.1868 4.08265 14.9399
279 2 14.9028 1.36433 14.9426
280 2 14.8927 4.08568 12.2288
281 2 16.2527 0.0126913 10.8707
282 2 16.2565 2.72472 13.5845
283 2 18.9823 0.00313668 13.5833
284 2 18.9793 2.71979 10.8735
285 2 17.6177 1.36392 12.2306
286 2 17.6197 4.07746 14.944
287 2 20.3456 1.36164 14.9386
288 2 20.3425 4.07559 12.2299
289 2 21.7025 5.432 10.8716
290 2 21.7026 8.14397 13.5819
291 2 2.71715 5.44328 13.568
292 2 2.70151 8.14256 10.8682
293 2 1.33988 6.79042 12.2236
294 2 1.34417 9.49853 14.9333
295 2 4.10889 6.80714 14.8792
296 2 4.07426 9.49104 12.2155
297 2 5.5091 5.53545 10.8793
298 2 5.51018 8.13157 13.475
299 2 8.10772 5.5395 13.4765
512 2 20.3398 20.3644 17.6521
302 2 6.77154 9.49008 14.91
303 2 9.46838 6.79837 14.9104
305 2 10.7266 5.54155 10.86
307 2 13.5295 5.44484 13.5787
308 2 13.5347 8.14689 10.8719
309 2 12.1623 6.80019 12.2199
310 2 12.1315 9.48246 14.8822
311 2 14.8938 6.79402 14.9369
312 2 14.8974 9.50079 12.2246
313 2 16.2587 5.43707 10.8739
314 2 16.259 8.14862 13.5839
315 2 18.981 5.43302 13.5863
316 2 18.9795 8.14668 10.8708
317 2 17.6209 6.7916 12.2299
318 2 17.62 9.5038 14.9412
319 2 20.3435 6.78869 14.9419
320 2 20.341 9.50168 12.2272
321 2 21.7014 10.8555 10.8687
322 2 21.7024 13.5686 13.5765
323 2 2.70678 10.849 13.5733
324 2 2.7197 13.54 10.8587
325 2 1.34303 12.2076 12.2224
326 2 1.33267 14.9282 14.9361
327 2 4.0504 12.2096 14.9356
328 2 4.05307 14.9168 12.2226
329 2 5.50789 10.7512 10.856
330 2 5.41154 13.5529 13.5736
332 2 8.11592 13.5582 10.8694
333 2 6.76808 12.1846 12.2161
334 2 6.76215 14.9179 14.9324
335 2 9.45316 12.1554 14.8802
336 2 9.46898 14.9221 12.2229
338 2 10.8162 13.5475 13.5693
339 2 13.5206 10.8469 13.5699
340 2 13.5132 13.5429 10.8772
341 2 12.1282 12.1574 12.2057
342 2 12.1757 14.9148 14.928
343 2 14.8868 12.2069 14.9288
344 2 14.8851 14.9157 12.2195
345 2 16.2563 10.8581 10.8689
346 2 16.2527 13.5687 13.5794
347 2 18.9791 10.8596 13.5816
348 2 18.9788 13.5727 10.8651
349 2 17.6183 12.2159 12.223
350 2 17.6163 14.9291 14.9344
351 2 20.3416 12.2144 14.9377
352 2 20.3411 14.9286 12.2211
353 2 21.7044 16.2806 10.8619
354 2 21.6999 19.0058 13.5775
355 2 2.69324 16.282 13.5769
356 2 2.69188 19.0045 10.865
357 2 1.33422 17.6433 12.2211
358 2 1.33612 20.3675 14.9341
359 2 4.04886 17.6434 14.9365
360 2 4.05001 20.3666 12.2212
361 2 5.40607 16.2821 10.8688
362 2 5.40533 19.0066 13.5809
363 2 8.11736 16.2845 13.5819
364 2 8.11703 19.0068 10.8693
365 2 6.76111 17.6447 12.225
366 2 6.76207 20.3692 14.9366
367 2 9.47304 17.6473 14.9387
368 2 9.47354 20.3695 12.2252
369 2 10.8271 16.285 10.8713
370 2 10.8292 19.0102 13.5842
371 2 13.5383 16.282 13.5812
372 2 13.5421 19.0101 10.8716
373 2 12.1841 17.6479 12.2269
374 2 12.1861 20.373 14.9394
375 2 14.8982 17.6461 14.9364
376 2 14.8992 20.3728 12.228
377 2 16.2518 16.2827 10.871
378 2 16.2583 19.0083 13.5815
379 2 18.9782 16.2873 13.5769
380 2 18.9786 19.0082 10.8682
381 2 17.6153 17.6468 12.2225
382 2 17.6207 20.3663 14.9383
383 2 20.3377 17.6475 14.934
384 2 20.3416 20.3689 12.2232
385 2 21.7014 21.7239 16.295
386 2 21.7014 2.71431 19.012
387 2 2.69159 8.71663e-06 19.0118
388 2 2.69954 2.72113 16.29
389 2 1.33851 1.36053 17.6499
390 2 1.3362 4.07456 20.3678
391 2 4.05083 1.36043 20.3678
392 2 4.06164 4.08465 17.6372
393 2 5.40698 0.00932569 16.2908
394 2 5.40721 2.72192 19.005
395 2 8.1154 0.00995443 19.0071
396 2 8.11137 2.75061 16.2674
397 2 6.76799 1.37634 17.638
398 2 6.7628 4.07529 20.3702
399 2 9.47505 1.36179 20.371
400 2 9.47493 4.08365 17.6443
401 2 10.8277 0.0107251 16.2948
402 2 10.8281 2.72277 19.01
403 2 13.5455 0.00214913 19.0148
404 2 13.5449 2.72295 16.2992
405 2 12.1878 1.36344 17.6562
406 2 12.1881 4.07589 20.3727
407 2 14.9047 1.35934 20.3749
408 2 14.9043 4.07745 17.6584
409 2 16.2626 0.00191213 16.2979
410 2 16.2639 2.71687 19.0155
411 2 18.9822 21.7222 19.0132
412 2 18.9837 2.71746 16.2981
413 2 17.6239 1.3586 17.6568
414 2 17.6224 4.07461 20.3749
415 2 20.3406 1.35716 20.3719
416 2 20.3457 4.07564 17.6544
417 2 21.7084 5.43039 16.2922
418 2 21.7058 8.13931 19.0051
419 2 2.69691 5.43009 19.0037
420 2 2.7222 8.13429 16.2646
421 2 1.35044 6.79151 17.6378
422 2 1.33342 9.4986 20.3678
423 2 4.0493 6.78664 20.3681
424 2 4.05471 9.49804 17.6411
425 2 5.42134 5.44438 16.2707
426 2 5.40641 8.14347 19.0071
427 2 8.11917 5.43378 19.0101
428 2 8.12061 8.14423 16.2836
429 2 6.76741 6.79191 17.6467
430 2 6.761 9.50105 20.3679
431 2 9.47532 6.78909 20.3722
432 2 9.47219 9.49859 17.6472
433 2 10.8245 5.44375 16.2815
434 2 10.8295 8.14718 19.0111
435 2 13.5425 5.43683 19.0118
436 2 13.5164 8.15605 16.2702
437 2 12.1829 6.79317 17.6462
438 2 12.1864 9.50417 20.3721
439 2 14.902 6.79029 20.3745
440 2 14.8877 9.49935 17.6423
441 2 16.2573 5.43762 16.298
442 2 16.2536 8.14835 19.0094
443 2 18.9823 5.43077 19.0138
444 2 18.9803 8.14484 16.2985
445 2 17.6199 6.78986 17.6582
446 2 17.6162 9.50082 20.3727
447 2 20.3424 6.78852 20.3712
448 2 20.3417 9.50059 17.6549
449 2 21.7023 10.8533 16.2928
450 2 21.6943 13.5695 19.0119
451 2 2.69194 10.8519 19.0039
452 2 2.6905 13.5689 16.2931
453 2 1.33146 12.213 17.6522
454 2 1.32891 14.9284 20.3705
455 2 4.0463 12.2117 20.3647
456 2 4.04661 14.9287 17.6511
457 2 5.4136 10.848 16.2773
458 2 5.4059 13.5677 19.0041
459 2 8.1175 10.8571 19.0067
460 2 8.1257 13.5414 16.2653
461 2 6.76227 12.2078 17.6412
462 2 6.75943 14.9284 20.3658
463 2 9.47195 12.2163 20.3682
464 2 9.46803 14.9158 17.6368
465 2 10.8182 10.8462 16.2723
466 2 10.8286 13.5701 19.0047
467 2 13.5385 10.8605 19.0067
468 2 13.5388 13.5687 16.291
469 2 12.1764 12.2072 17.6391
470 2 12.1841 14.9311 20.3681
471 2 14.8984 12.2157 20.3709
472 2 14.8988 14.9294 17.6506
473 2 16.253 10.8597 16.293
474 2 16.2578 13.5731 19.0121
475 2 18.977 10.8563 19.0124
476 2 18.9771 13.5714 16.2938
477 2 17.6165 12.2145 17.6533
478 2 17.6179 14.9301 20.3715
479 2 20.3351 12.2128 20.3729
480 2 20.3365 14.9293 17.6525
481 2 21.696 16.2878 16.2931
482 2 21.6971 19.0045 19.0113
483 2 2.68809 16.2867 19.0113
484 2 2.69199 19.0062 16.2937
485 2 1.33201 17.6468 17.6514
486 2 1.33227 20.3638 20.3701
487 2 4.04586 17.6466 20.3699
488 2 4.05057 20.3687 17.6505
489 2 5.40742 16.2824 16.2925
490 2 5.40469 19.0065 19.0115
491 2 8.11933 16.2819 19.0044
492 2 8.11774 19.0091 16.2963
493 2 6.76126 17.6455 17.6517
494 2 6.76202 20.3687 20.3691
495 2 9.47136 17.6464 20.3679
496 2 9.47383 20.3712 17.6537
497 2 10.8296 16.2827 16.2912
498 2 10.8297 19.0087 19.0119
499 2 13.5443 16.2899 19.0117
500 2 13.5429 19.0087 16.2957
501 2 12.185 17.6466 17.652
502 2 12.1872 20.3671 20.3732
503 2 14.9026 17.6493 20.3711
504 2 14.9034 20.3661 17.6554
505 2 16.259 16.2886 16.2937
506 2 16.2625 19.0061 19.0123
507 2 18.977 16.2874 19.0112
508 2 18.98 19.006 16.2938
509 2 17.6195 17.6474 17.6517
510 2 17.6211 20.3648 20.372
511 2 20.3368 17.6457 20.3707
ITEM: TIMESTEP
59
ITEM: NUMBER OF ATOMS
504
ITEM: BOX BOUNDS pp pp pp
0.0000000000000000e+00 2.1724000000000000e+01
0.0000000000000000e+00 2.1724000000000000e+01
0.0000000000000000e+00 2.1724000000000000e+01
ITEM: ATOMS id type x y z
1 2 21.6962 21.7235 0.00686964
2 2 21.6971 2.71718 2.72572
3 2 2.68977 21.7244 2.72553
4 2 2.68997 2.71714 0.0075331
5 2 1.33092 1.35828 1.36601
6 2 1.33299 4.07509 4.08561
7 2 4.04763 1.36039 4.08544
8 2 4.04799 4.0753 1.36865
9 2 5.40527 21.7246 0.00715419
10 2 5.4075 2.72091 2.7312
11 2 8.1199 0.00647525 2.73141
12 2 8.11798 2.71847 0.00626008
13 2 6.76152 1.36089 1.36833
14 2 6.76256 4.08208 4.09558
15 2 9.46931 1.37301 4.09789
16 2 9.47387 4.07609 1.3679
17 2 10.8297 0.00251297 0.00614892
18 2 10.8297 2.72109 2.73141
19 2 13.544 0.00102599 2.72594
20 2 13.5432 2.71932 0.00588767
21 2 12.1858 1.36158 1.3682
22 2 12.1798 4.08217 4.09602
23 2 14.9005 1.36078 4.08576
24 2 14.9006 4.07668 1.3679
25 2 16.2608 21.7243 0.00708696
26 2 16.2601 2.71737 2.72554
27 2 18.9784 21.7237 2.72484
28 2 18.9782 2.71701 0.00683256
29 2 17.6194 1.35883 1.36637
30 2 17.6182 4.07582 4.08515
31 2 20.3374 1.35848 4.08362
32 2 20.3376 4.07473 1.36628
33 2 21.6972 5.43257 0.00727837
34 2 21.7026 8.14731 2.73125
35 2 2.69344 5.43478 2.73113
36 2 2.6907 8.14517 0.00589528
37 2 1.33335 6.78888 1.36838
38 2 1.34499 9.49677 4.0976
39 2 4.05443 6.78998 4.09545
40 2 4.04816 9.50119 1.36742
41 2 5.40449 5.43186 0.00583427
42 2 5.40595 8.14538 2.72895
43 2 8.11791 5.43383 2.72925
44 2 8.1175 8.14529 0.00638486
45 2 6.76098 6.78853 1.36711
46 2 6.7639 9.50039 4.08978
47 2 9.47273 6.79194 4.09013
48 2 9.4742 9.50215 1.36659
49 2 10.8308 5.43254 0.00621377
50 2 10.83 8.14559 2.72788
51 2 13.5415 5.43267 2.73125
52 2 13.5435 8.14609 0.00551879
53 2 12.1873 6.78915 1.36741
54 2 12.1836 9.50116 4.09149
55 2 14.8929 6.79289 4.09477
56 2 14.9009 9.50201 1.36713
57 2 16.2583 5.43387 0.00534327
58 2 16.2559 8.14446 2.73003
59 2 18.9787 5.43278 2.7259
60 2 18.9765 8.14637 0.00517866
61 2 17.6172 6.78996 1.36733
62 2 17.6143 9.50303 4.08854
63 2 20.3398 6.78905 4.08607
64 2 20.3391 9.50064 1.36783
65 2 21.6983 10.8571 0.00567647
66 2 21.6966 13.5714 2.72524
67 2 2.69285 10.857 2.73069
68 2 2.69102 13.5705 0.00499548
69 2 1.33332 12.2132 1.36757
70 2 1.33237 14.9279 4.08494
71 2 4.05383 12.2072 4.09518
72 2 4.04838 14.9279 1.3669
73 2 5.40439 10.8582 0.00555337
74 2 5.4043 13.5689 2.7304
75 2 8.11734 10.8579 2.72753
76 2 8.11778 13.5713 0.00493185
77 2 6.76091 12.2148 1.36668
78 2 6.76451 14.9206 4.09387
79 2 9.47283 12.2117 4.09112
80 2 9.47369 14.9289 1.36655
81 2 10.8307 10.8589 0.00581712
82 2 10.8287 13.5706 2.7287
83 2 13.5424 10.8571 2.72891
84 2 13.5436 13.572 0.00418426
85 2 12.1872 12.2155 1.36712
86 2 12.1867 14.9279 4.08748
87 2 14.8995 12.2151 4.08766
88 2 14.9017 14.93 1.36537
89 2 16.2582 10.8582 0.00457112
90 2 16.2592 13.5717 2.72618
91 2 18.977 10.8573 2.72705
92 2 18.978 13.5723 0.00666091
93 2 17.6184 12.2145 1.36572
94 2 17.6188 14.9301 4.08433
95 2 20.339 12.2134 4.08605
96 2 20.3374 14.93 1.36606
97 2 21.6962 16.2882 0.00648564
98 2 21.6959 19.0058 2.7245
99 2 2.68919 16.2874 2.7247
100 2 2.68932 19.0054 0.0063062
101 2 1.33076 17.6467 1.36569
102 2 1.33069 20.3649 4.08326
103 2 4.04766 17.6455 4.08426
104 2 4.04706 20.3649 1.36575
105 2 5.40578 16.2857 0.00455468
106 2 5.405 19.0061 2.72543
107 2 8.11628 16.2838 2.72954
108 2 8.11866 19.0043 0.00495723
109 2 6.76189 17.6448 1.36655
110 2 6.7613 20.3674 4.08565
111 2 9.47488 17.6423 4.08811
112 2 9.47294 20.367 1.36772
113 2 10.8301 16.2864 0.00438444
114 2 10.8295 19.0053 2.7272
115 2 13.5435 16.2877 2.72624
116 2 13.5445 19.0063 0.00696642
117 2 12.1863 17.6466 1.36562
118 2 12.1856 20.3673 4.08633
119 2 14.9019 17.6472 4.08444
120 2 14.9023 20.3657 1.36648
121 2 16.2607 16.2888 0.00680483
122 2 16.2606 19.0062 2.72519
123 2 18.9779 16.2884 2.7249
124 2 18.9784 19.0061 0.00697867
125 2 17.6194 17.6475 1.36597
126 2 17.6191 20.3654 4.0838
127 2 20.3371 17.6469 4.08346
128 2 20.3372 20.3649 1.36583
129 2 21.6971 21.7246 5.44236
130 2 21.7028 2.72108 8.16011
131 2 2.69357 0.00614539 8.15987
132 2 2.69339 2.72075 5.44588
133 2 1.33299 1.3605 6.80022
134 2 1.34319 4.08214 9.51519
135 2 4.05467 1.37059 9.51496
136 2 4.05322 4.08068 6.80569
137 2 5.40744 0.00612767 5.44592
138 2 5.41616 2.73766 8.16854
139 2 8.118 0.00445594 8.15872
140 2 8.1249 2.74451 5.46943
141 2 6.76256 1.37063 6.80698
142 2 6.77557 4.10582 9.52794
143 2 9.47292 1.36545 9.51677
144 2 9.45561 4.12756 6.8524
145 2 10.8296 0.0065145 5.44599
146 2 10.822 2.73727 8.1668
147 2 13.5415 0.00653591 8.15763
148 2 13.5416 2.72065 5.44557
149 2 12.1798 1.37116 6.80707
150 2 12.1561 4.11275 9.52604
151 2 14.8931 1.37003 9.5179
152 2 14.8948 4.08043 6.80539
153 2 16.26 0.000559838 5.44244
154 2 16.257 2.72007 8.15776
155 2 18.9787 0.00099847 8.15793
156 2 18.979 2.71751 5.44264
157 2 17.6181 1.36011 6.80095
158 2 17.6157 4.07724 9.51582
159 2 20.3399 1.36115 9.51422
160 2 20.3402 4.07558 6.80073
161 2 21.7026 5.43493 5.44607
162 2 21.7005 8.14552 8.15861
163 2 2.71008 5.44357 8.16852
164 2 2.71655 8.15227 5.46909
165 2 1.34296 6.79007 6.80707
166 2 1.33739 9.5004 9.51655
167 2 4.07816 6.80304 9.52787
168 2 4.09946 9.48309 6.85196
169 2 5.41598 5.44357 5.46253
170 2 5.4996 8.162 8.25209
171 2 8.13432 5.5276 8.25232
172 2 8.12042 8.14839 5.45267
173 2 6.77534 6.80309 6.83057
176 2 9.47056 9.49862 6.82076
177 2 10.8218 5.44191 5.46193
178 2 10.778 8.14232 8.22015
179 2 13.5331 5.43975 8.16449
180 2 13.5266 8.14201 5.46283
181 2 12.1559 6.80114 6.83742
182 2 12.1242 9.50525 9.56588
183 2 14.8907 6.79471 9.51953
184 2 14.8816 9.50587 6.81788
185 2 16.2569 5.43269 5.44487
186 2 16.253 8.14671 8.16081
187 2 18.9774 5.43223 8.1572
188 2 18.9774 8.1455 5.4434
189 2 17.6155 6.79069 6.80212
190 2 17.6166 9.50217 9.51449
191 2 20.3387 6.78874 9.51374
192 2 20.3389 9.50142 6.80088
193 2 21.7022 10.8571 5.44548
194 2 21.702 13.569 8.15689
195 2 2.70885 10.8494 8.16612
196 2 2.69217 13.569 5.44465
197 2 1.34275 12.2073 6.80643
198 2 1.34157 14.9206 9.51705
199 2 4.08434 12.1835 9.52525
200 2 4.05198 14.9222 6.80438
201 2 5.41357 10.8494 5.4613
202 2 5.41122 13.5606 8.16367
203 2 8.11399 10.806 8.21978
204 2 8.11356 13.5545 5.46228
205 2 6.77275 12.1836 6.8367
206 2 6.76628 14.9183 9.51865
207 2 9.47692 12.1523 9.56552
208 2 9.47746 14.9096 6.81735
209 2 10.8249 10.8532 5.45373
210 2 10.8183 13.5353 8.18823
211 2 13.507 10.8467 8.18842
212 2 13.539 13.5675 5.44964
213 2 12.1799 12.2082 6.81137
214 2 12.1775 14.9107 9.52249
215 2 14.8824 12.2059 9.52264
216 2 14.8988 14.9273 6.80289
217 2 16.2497 10.8548 5.45147
218 2 16.2483 13.5656 8.16455
219 2 18.9771 10.8585 8.15707
220 2 18.9765 13.5708 5.44372
221 2 17.6132 12.215 6.80302
222 2 17.613 14.9266 9.51467
223 2 20.3383 12.215 9.51359
224 2 20.3385 14.9281 6.80107
225 2 21.6963 16.2875 5.44177
226 2 21.6971 19.0063 8.15754
227 2 2.69174 16.2844 8.15687
228 2 2.68964 19.0064 5.44207
229 2 1.33187 17.6456 6.80021
230 2 1.33335 20.3674 9.51381
231 2 4.04906 17.6431 9.51488
232 2 4.04777 20.3676 6.80016
233 2 5.40443 16.2844 5.4441
234 2 5.40434 19.0049 8.15667
235 2 8.11842 16.2809 8.16034
236 2 8.11764 19.0053 5.44321
237 2 6.76252 17.6431 6.80134
238 2 6.76098 20.3663 9.51325
239 2 9.474 17.6446 9.51406
240 2 9.47362 20.367 6.80079
241 2 10.8266 16.278 5.45135
242 2 10.8306 19.0054 8.15725
243 2 13.5373 16.2768 8.16464
244 2 13.5429 19.005 5.44411
245 2 12.1868 17.6415 6.80298
246 2 12.1872 20.3667 9.51388
247 2 14.8984 17.6414 9.51481
248 2 14.9003 20.367 6.80156
249 2 16.2586 16.2869 5.44387
250 2 16.258 19.0045 8.15875
251 2 18.9762 16.286 8.15842
252 2 18.9779 19.0058 5.442
253 2 17.6184 17.6467 6.80043
254 2 17.6171 20.3665 9.5149
255 2 20.3382 17.645 9.51452
256 2 20.3373 20.3652 6.79976
257 2 21.703 0.00651454 10.8724
258 2 21.703 2.72092 13.5822
259 2 2.69358 0.00618253 13.582
260 2 2.71707 2.74439 10.8774
261 2 1.34555 1.37291 12.2218
262 2 1.34354 4.08189 14.9324
263 2 4.05463 1.37076 14.9322
264 2 4.10003 4.12736 12.2081
265 2 5.4064 0.00432021 10.8703
266 2 5.41435 2.73691 13.5744
267 2 8.118 0.00322214 13.5827
268 2 8.12091 2.7282 10.8733
269 2 6.76445 1.36529 12.2252
270 2 6.77353 4.11239 14.9086
271 2 9.47355 1.36687 14.9365
272 2 9.4711 4.09633 12.2235
273 2 10.8303 0.00342931 10.8704
274 2 10.8256 2.7295 13.5782
275 2 13.5429 0.00460519 13.5819
276 2 13.527 2.7384 10.867
277 2 12.1841 1.36706 12.226
278 2 12.1806 4.08714 14.9332
279 2 14.9002 1.36328 14.94
280 2 14.8821 4.0934 12.2309
281 2 16.2562 0.00547133 10.8695
282 2 16.2504 2.72711 13.5799
283 2 18.9777 0.00254638 13.5823
284 2 18.9778 2.71873 10.8707
285 2 17.6148 1.36392 12.2281
286 2 17.6139 4.07854 14.9401
287 2 20.3397 1.36147 14.9384
288 2 20.3395 4.07617 12.2266
289 2 21.7008 5.43385 10.8705
290 2 21.6993 8.14539 13.5827
291 2 2.70946 5.44158 13.5743
292 2 2.70021 8.14825 10.873
293 2 1.33771 6.79182 12.2254
294 2 1.33895 9.50087 14.9363
295 2 4.08491 6.80076 14.9085
296 2 4.06834 9.49841 12.2231
297 2 5.49992 5.52747 10.8868
298 2 5.46765 8.14198 13.5305
299 2 8.1146 5.49548 13.5308
512 2 20.3379 20.3655 17.6548
302 2 6.81334 9.50493 14.8767
303 2 9.47746 6.84129 14.877
305 2 10.7784 5.4957 10.8671
307 2 13.5075 5.46421 13.5716
308 2 13.5235 8.14922 10.8738
309 2 12.1245 6.84152 12.2301
310 2 12.092 9.4854 14.8446
311 2 14.883 6.7983 14.9308
312 2 14.8916 9.49933 12.2239
313 2 16.2533 5.43625 10.8716
314 2 16.2545 8.14725 13.5805
315 2 18.9777 5.43258 13.5835
316 2 18.9779 8.14548 10.8702
317 2 17.6169 6.78983 12.2272
318 2 17.6154 9.50201 14.9385
319 2 20.3389 6.78904 14.9401
320 2 20.3382 9.50217 12.2269
321 2 21.6991 10.8579 10.87
322 2 21.7002 13.5704 13.5812
323 2 2.70119 10.8529 13.5775
324 2 2.70986 13.5544 10.8661
325 2 1.33872 12.2115 12.2254
326 2 1.33499 14.9276 14.9392
327 2 4.05885 12.2079 14.9324
328 2 4.065 14.9094 12.2299
329 2 5.46733 10.8059 10.8665
330 2 5.43573 13.5349 13.5708
332 2 8.12073 13.5514 10.8732
333 2 6.81313 12.1521 12.2294
334 2 6.77 14.9104 14.9299
335 2 9.45724 12.1198 14.8442
336 2 9.47099 14.9195 12.2234
338 2 10.8161 13.5416 13.5686
339 2 13.5134 10.8445 13.5689
340 2 13.4918 13.5201 10.8888
341 2 12.0917 12.1199 12.2097
342 2 12.1756 14.9098 14.9281
343 2 14.8816 12.2038 14.9283
344 2 14.8748 14.9031 12.2194
345 2 16.2542 10.8558 10.8717
346 2 16.2486 13.5653 13.5817
347 2 18.9773 10.8588 13.5834
348 2 18.9765 13.5714 10.8704
349 2 17.6152 12.2137 12.2265
350 2 17.6131 14.9264 14.9367
351 2 20.3386 12.2153 14.9399
352 2 20.3382 14.9289 12.2263
353 2 21.7012 16.2838 10.8688
354 2 21.6988 19.0051 13.5819
355 2 2.69888 16.2777 13.579
356 2 2.69088 19.0051 10.87
357 2 1.3358 17.6422 12.2273
358 2 1.3339 20.367 14.938
359 2 4.05053 17.6412 14.9392
360 2 4.0485 20.3668 12.226
361 2 5.40795 16.2808 10.8708
362 2 5.40482 19.0051 13.5829
363 2 8.11904 16.2823 13.58
364 2 8.11762 19.0058 10.87
365 2 6.76173 17.6444 12.2263
366 2 6.76143 20.3663 14.9395
367 2 9.47395 17.6433 14.938
368 2 9.47444 20.3661 12.2268
369 2 10.8275 16.2824 10.8715
370 2 10.831 19.0055 13.5835
371 2 13.5372 16.2769 13.5817
372 2 13.5435 19.0049 10.8708
373 2 12.1856 17.6434 12.2264
374 2 12.1876 20.3668 14.9401
375 2 14.8983 17.6413 14.9368
376 2 14.9011 20.3666 12.2268
377 2 16.2463 16.2746 10.875
378 2 16.2585 19.0041 13.5829
379 2 18.9759 16.2864 13.5826
380 2 18.9766 19.0045 10.8712
381 2 17.6129 17.641 12.2243
382 2 17.6188 20.3652 14.9392
383 2 20.3372 17.6465 14.9388
384 2 20.3394 20.3671 12.2255
385 2 21.6974 21.7247 16.2964
386 2 21.6969 2.71703 19.0126
387 2 2.68979 4.76509e-05 19.0124
388 2 2.69302 2.72015 16.2941
389 2 1.33317 1.36038 17.653
390 2 1.33243 4.07547 20.3708
391 2 4.04822 1.35965 20.3706
392 2 4.05276 4.07993 17.6473
393 2 5.40507 0.00603053 16.2939
394 2 5.40508 2.71954 19.0094
395 2 8.11684 0.00508995 19.0087
396 2 8.11437 2.73801 16.2795
397 2 6.76527 1.36957 17.6455
398 2 6.76306 4.07683 20.3682
399 2 9.47542 1.36366 20.3672
400 2 9.47823 4.0931 17.6346
401 2 10.8293 0.00444935 16.2954
402 2 10.8272 2.72692 19.0029
403 2 13.544 0.00175161 19.0125
404 2 13.5398 2.72536 16.2924
405 2 12.1874 1.36318 17.6527
406 2 12.1874 4.07847 20.3665
407 2 14.9025 1.35982 20.3721
408 2 14.8996 4.07848 17.6523
409 2 16.2599 0.00176355 16.2965
410 2 16.2593 2.71925 19.0119
411 2 18.9785 21.7242 19.0133
412 2 18.9773 2.7192 16.2958
413 2 17.6195 1.35978 17.6551
414 2 17.619 4.07569 20.3717
415 2 20.3377 1.35867 20.3719
416 2 20.3393 4.07648 17.6533
417 2 21.7027 5.43234 16.2941
418 2 21.7013 8.14413 19.0086
419 2 2.69221 5.4322 19.0094
420 2 2.71021 8.14154 16.2792
421 2 1.34212 6.79251 17.6456
422 2 1.33578 9.50272 20.367
423 2 4.04937 6.79027 20.3681
424 2 4.06521 9.50543 17.6342
425 2 5.41189 5.43925 16.2856
426 2 5.40811 8.14624 19.0055
427 2 8.11892 5.43586 19.0058
428 2 8.12109 8.14888 16.2761
429 2 6.76684 6.79427 17.6432
430 2 6.76175 9.50184 20.3691
431 2 9.47438 6.78961 20.3694
432 2 9.47127 9.49909 17.6441
433 2 10.8189 5.46403 16.2601
434 2 10.8277 8.14711 19.0071
435 2 13.5378 5.44016 19.0017
436 2 13.4921 8.1645 16.2448
437 2 12.1781 6.7982 17.6356
438 2 12.1857 9.50199 20.368
439 2 14.8988 6.79025 20.3663
440 2 14.8751 9.49511 17.6278
441 2 16.249 5.44018 16.2905
442 2 16.2466 8.15047 18.9993
443 2 18.9767 5.43374 19.0109
444 2 18.9769 8.14594 16.2962
445 2 17.6136 6.7902 17.6516
446 2 17.613 9.49978 20.3658
447 2 20.3386 6.78981 20.37
448 2 20.3384 9.5018 17.6537
449 2 21.7002 10.8567 16.295
450 2 21.6975 13.5714 19.0118
451 2 2.69875 10.8544 19.0022
452 2 2.69699 13.567 16.2915
453 2 1.33497 12.2147 17.6521
454 2 1.33158 14.9298 20.3713
455 2 4.05028 12.2146 20.3656
456 2 4.05024 14.9268 17.6513
457 2 5.43579 10.8463 16.2595
458 2 5.41187 13.5651 19.0008
459 2 8.11898 10.8555 19.0067
460 2 8.13619 13.5199 16.2443
461 2 6.77001 12.2055 17.6348
462 2 6.762 14.9263 20.3653
463 2 9.4738 12.2136 20.3676
464 2 9.46687 14.9029 17.6272
465 2 10.8162 10.8443 16.266
466 2 10.8291 13.5653 19.0011
467 2 13.5371 10.8574 19.0014
468 2 13.5384 13.5667 16.291
469 2 12.1757 12.2038 17.6342
470 2 12.1841 14.9264 20.3656
471 2 14.8982 12.2124 20.3658
472 2 14.8983 14.9266 17.6509
473 2 16.2487 10.8574 16.2898
474 2 16.2586 13.5721 19.0113
475 2 18.9758 10.8581 19.0109
476 2 18.9755 13.5718 16.2962
477 2 17.6131 12.2124 17.6509
478 2 17.6185 14.9299 20.3712
479 2 20.337 12.2143 20.3711
480 2 20.3367 14.9298 17.6543
481 2 21.6976 16.2873 16.2959
482 2 21.6966 19.0058 19.013
483 2 2.69117 16.2865 19.0111
484 2 2.69154 19.0045 16.2953
485 2 1.33182 17.6468 17.6544
486 2 1.33109 20.365 20.3716
487 2 4.0477 17.6463 20.3708
488 2 4.04894 20.3665 17.6527
489 2 5.41205 16.2764 16.2897
490 2 5.40609 19.004 19.0104
491 2 8.12238 16.2743 18.9988
492 2 8.11823 19.0046 16.2959
493 2 6.76222 17.641 17.6507
494 2 6.76221 20.3661 20.3695