ITEM: TIMESTEP
1
ITEM: NUMBER OF ATOMS
511
ITEM: BOX BOUNDS
0.0 21.724
0.0 21.724
0.0 21.724
ITEM: ATOMS id type x y z 
174 1 7.08412 9.17711 9.83656 
175 1 9.14962 7.11203 9.8368 
301 1 7.08435 7.11191 11.9021 
304 1 9.14971 9.17733 11.9022 
306 1 10.7242 8.15687 13.4767 
331 1 8.12883 10.7518 13.4764 
337 1 10.7239 10.7519 10.8814 
1 2 21.6964 21.7237 0.0067386 
2 2 21.6964 2.71644 2.72496 
3 2 2.68904 21.7237 2.72479 
4 2 2.69017 2.71735 0.00618422 
5 2 1.33108 1.35844 1.36518 
6 2 1.33182 4.07412 4.08442 
7 2 4.04667 1.3592 4.08428 
8 2 4.04711 4.07442 1.36902 
9 2 5.40435 0.00188329 0.00662992 
10 2 5.40658 2.72002 2.73115 
11 2 8.11939 0.00816785 2.73315 
12 2 8.11699 2.71774 0.00755582 
13 2 6.76063 1.3606 1.36897 
14 2 6.76168 4.08061 4.09534 
15 2 9.46805 1.37543 4.10036 
16 2 9.4729 4.07543 1.36924 
17 2 10.8295 0.00231278 0.00829357 
18 2 10.829 2.72259 2.73417 
19 2 13.5439 0.00235823 2.72732 
20 2 13.5438 2.71795 0.00896347 
21 2 12.1848 1.36215 1.37077 
22 2 12.1762 4.0854 4.10073 
23 2 14.8984 1.36313 4.08814 
24 2 14.8995 4.0769 1.37093 
25 2 16.2615 0.000130136 0.00824061 
26 2 16.2593 2.71755 2.72735 
27 2 18.9782 21.7239 2.725 
28 2 18.979 2.71635 0.00759209 
29 2 17.6191 1.35938 1.36751 
30 2 17.6157 4.07675 4.08718 
31 2 20.3366 1.35861 4.08376 
32 2 20.3376 4.07491 1.36627 
33 2 21.6985 5.43168 0.0067455 
34 2 21.7044 8.14682 2.733 
35 2 2.69258 5.43387 2.73108 
36 2 2.69004 8.1442 0.00722971 
37 2 1.33311 6.78801 1.36901 
38 2 1.34752 9.4955 4.10011 
39 2 4.05302 6.78907 4.09523 
40 2 4.0476 9.50022 1.36882 
41 2 5.40345 5.43081 0.00696986 
42 2 5.40519 8.14395 2.72947 
43 2 8.11651 5.43299 2.72973 
44 2 8.11683 8.14454 0.00743945 
45 2 6.76008 6.78759 1.36757 
46 2 6.76358 9.49742 4.09069 
47 2 9.46985 6.79151 4.09099 
48 2 9.47355 9.50141 1.36762 
49 2 10.8305 5.43124 0.00814171 
50 2 10.8282 8.14504 2.72979 
51 2 13.5389 5.4326 2.73424 
52 2 13.5436 8.14483 0.00771492 
53 2 12.186 6.7888 1.36938 
54 2 12.1804 9.4999 4.09554 
55 2 14.8859 6.79351 4.10066 
56 2 14.9005 9.50108 1.36933 
57 2 16.2594 5.43211 0.00843288 
58 2 16.253 8.1421 2.73333 
59 2 18.9782 5.43186 2.72718 
60 2 18.9788 8.14449 0.0075055 
61 2 17.6168 6.78963 1.36979 
62 2 17.617 9.5009 4.08586 
63 2 20.3404 6.78816 4.0858 
64 2 20.3408 9.49948 1.36949 
65 2 21.6983 10.8569 0.00786564 
66 2 21.6981 13.5714 2.7267 
67 2 2.69448 10.8563 2.73354 
68 2 2.6898 13.571 0.00816029 
69 2 1.33403 12.2122 1.37021 
70 2 1.33487 14.9259 4.08743 
71 2 4.05721 12.2035 4.10002 
72 2 4.04873 14.9268 1.37005 
73 2 5.4032 10.8578 0.00755061 
74 2 5.40437 13.5664 2.7335 
75 2 8.1169 10.856 2.72948 
76 2 8.11664 13.5713 0.00719171 
77 2 6.76067 12.2135 1.36874 
78 2 6.76526 14.9135 4.0999 
79 2 9.4717 12.2083 4.09522 
80 2 9.47286 14.9284 1.36883 
81 2 10.8302 10.8583 0.00705612 
82 2 10.8268 13.569 2.73113 
83 2 13.5408 10.8551 2.73131 
84 2 13.5435 13.5717 0.00630682 
85 2 12.1865 12.2146 1.36915 
86 2 12.1866 14.9298 4.0844 
87 2 14.9015 12.2149 4.08456 
88 2 14.9024 14.9307 1.36532 
89 2 16.2591 10.8573 0.00685605 
90 2 16.261 13.5725 2.72496 
91 2 18.9793 10.857 2.72695 
92 2 18.9786 13.5726 0.00727588 
93 2 17.62 12.2142 1.36618 
94 2 17.6207 14.9305 4.08365 
95 2 20.3416 12.2123 4.08672 
96 2 20.3384 14.9297 1.36706 
97 2 21.6961 16.2888 0.00769571 
98 2 21.6961 19.0056 2.72469 
99 2 2.68947 16.2866 2.72662 
100 2 2.68871 19.0062 0.00711534 
101 2 1.3314 17.6465 1.36691 
102 2 1.33088 20.3641 4.08344 
103 2 4.04871 17.6431 4.08642 
104 2 4.04727 20.3649 1.36581 
105 2 5.4041 16.2867 0.00772552 
106 2 5.40412 19.0056 2.72676 
107 2 8.11399 16.2808 2.73291 
108 2 8.11679 19.0065 0.00730747 
109 2 6.76163 17.6443 1.3691 
110 2 6.76043 20.368 4.08544 
111 2 9.47282 17.6449 4.08549 
112 2 9.4718 20.3686 1.3694 
113 2 10.8293 16.2872 0.00669232 
114 2 10.8293 19.0074 2.72709 
115 2 13.5443 16.2893 2.72501 
116 2 13.5449 19.0068 0.00755547 
117 2 12.1862 17.6481 1.36609 
118 2 12.1845 20.3698 4.08696 
119 2 14.9024 17.649 4.08375 
120 2 14.902 20.3666 1.36743 
121 2 16.2612 16.2893 0.00682614 
122 2 16.2612 19.0073 2.72502 
123 2 18.9792 16.289 2.72477 
124 2 18.9788 19.0065 0.00736255 
125 2 17.6199 17.648 1.36619 
126 2 17.6189 20.3665 4.08436 
127 2 20.3384 17.6466 4.08406 
128 2 20.3375 20.3652 1.36613 
129 2 21.6963 21.7238 5.44161 
130 2 21.7027 2.72017 8.15916 
131 2 2.6927 0.00607775 8.15896 
132 2 2.69076 2.71811 5.44325 
133 2 1.33182 1.35929 6.79925 
134 2 1.34293 4.08065 9.51428 
135 2 4.05323 1.37032 9.51409 
136 2 4.04958 4.07701 6.80206 
137 2 5.40653 0.00606472 5.44506 
138 2 5.4118 2.73493 8.16419 
139 2 8.11659 0.00487991 8.15793 
140 2 8.12488 2.74784 5.4728 
141 2 6.76168 1.37036 6.80556 
142 2 6.76938 4.10286 9.52177 
143 2 9.47001 1.36624 9.5164 
144 2 9.45208 4.13417 6.85906 
145 2 10.829 0.00922256 5.44753 
146 2 10.8165 2.74259 8.17016 
147 2 13.539 0.00944344 8.15758 
148 2 13.5384 2.7233 5.44826 
149 2 12.1761 1.37582 6.81033 
150 2 12.1274 4.13447 9.53451 
151 2 14.886 1.37584 9.51853 
152 2 14.8859 4.0855 6.81049 
153 2 16.2592 0.00233366 5.44262 
154 2 16.2525 2.72277 8.15763 
155 2 18.9782 0.00222104 8.15698 
156 2 18.9777 2.71768 5.44281 
157 2 17.6157 1.36211 6.80187 
158 2 17.6173 4.07566 9.51384 
159 2 20.3406 1.36082 9.5133 
160 2 20.3405 4.07466 6.79981 
161 2 21.7026 5.434 5.44519 
162 2 21.701 8.14407 8.15782 
163 2 2.70737 5.43916 8.16416 
164 2 2.71997 8.15223 5.4725 
165 2 1.34274 6.78914 6.80564 
166 2 1.33828 9.49744 9.51621 
167 2 4.07523 6.79677 9.52171 
168 2 4.10619 9.47948 6.85869 
169 2 5.41163 5.43916 5.45983 
170 2 5.5097 8.15632 8.26219 
171 2 8.1288 5.53761 8.26241 
172 2 8.11669 8.14454 5.45443 
173 2 6.76919 6.79681 6.82766 
176 2 9.46429 9.4922 6.82771 
177 2 10.8164 5.44523 5.46734 
178 2 10.7239 8.13298 8.26249 
179 2 13.5193 5.44543 8.17025 
180 2 13.5134 8.13681 5.47295 
181 2 12.1273 6.80956 6.85922 
182 2 12.1585 9.49245 9.522 
183 2 14.8955 6.79185 9.51674 
184 2 14.8908 9.49996 6.80592 
185 2 16.2524 5.43257 5.44764 
186 2 16.2566 8.14515 8.15813 
187 2 18.9785 5.43113 8.15612 
188 2 18.9787 8.1445 5.44271 
189 2 17.6172 6.78871 6.80059 
190 2 17.6186 9.50155 9.51283 
191 2 20.3391 6.78777 9.5128 
192 2 20.3403 9.50043 6.80029 
193 2 21.705 10.8564 5.44708 
194 2 21.7051 13.5665 8.15694 
195 2 2.71435 10.8438 8.16957 
196 2 2.69499 13.5657 5.44747 
197 2 1.34758 12.2036 6.80978 
198 2 1.34757 14.9135 9.51779 
199 2 4.10626 12.1548 9.53384 
200 2 4.05722 14.9132 6.80964 
201 2 5.41703 10.8438 5.4668 
202 2 5.4171 13.5467 8.16954 
203 2 8.10478 10.7516 8.26225 
204 2 8.10849 13.5412 5.4725 
205 2 6.78135 12.1548 6.85864 
206 2 6.76361 14.9229 9.51598 
207 2 9.4643 12.1863 9.5217 
208 2 9.47168 14.9186 6.80548 
209 2 10.8217 10.8499 5.45992 
210 2 10.8218 13.5543 8.16422 
211 2 13.5262 10.8501 8.16437 
212 2 13.5426 13.5709 5.44338 
213 2 12.1838 12.212 6.80219 
214 2 12.1804 14.9189 9.51425 
215 2 14.8908 12.2086 9.51439 
216 2 14.9015 14.9298 6.79938 
217 2 16.2548 10.855 5.44527 
218 2 16.2548 13.569 8.15913 
219 2 18.9791 10.8581 8.15586 
220 2 18.9797 13.5713 5.44246 
221 2 17.6169 12.2145 6.79967 
222 2 17.617 14.9285 9.51315 
223 2 20.3404 12.2137 9.51333 
224 2 20.3416 14.9271 6.80139 
225 2 21.6982 16.2867 5.44204 
226 2 21.6984 19.0057 8.15665 
227 2 2.6946 16.2798 8.15686 
228 2 2.68988 19.005 5.44232 
229 2 1.33402 17.6432 6.80124 
230 2 1.33312 20.368 9.51295 
231 2 4.04762 17.6447 9.51303 
232 2 4.04693 20.3679 6.79932 
233 2 5.40442 16.2798 5.44697 
234 2 5.40332 19.006 8.15566 
235 2 8.11698 16.2844 8.15773 
236 2 8.11668 19.0065 5.44255 
237 2 6.76064 17.6447 6.79992 
238 2 6.76007 20.3667 9.51237 
239 2 9.47349 17.6465 9.51245 
240 2 9.47267 20.3683 6.80021 
241 2 10.8268 16.283 5.44518 
242 2 10.8302 19.0073 8.15601 
243 2 13.5408 16.2832 8.15921 
244 2 13.5435 19.008 5.4428 
245 2 12.1864 17.6451 6.79964 
246 2 12.1859 20.3686 9.51358 
247 2 14.9004 17.6453 9.51326 
248 2 14.8993 20.3699 6.8018 
249 2 16.261 16.2892 5.4417 
250 2 16.2591 19.0075 8.157 
251 2 18.9793 16.287 8.15672 
252 2 18.9787 19.0065 5.44135 
253 2 17.6199 17.648 6.79999 
254 2 17.6168 20.3688 9.51456 
255 2 20.3408 17.6445 9.51424 
256 2 20.3374 20.3652 6.79994 
257 2 21.7048 0.00819629 10.8719 
258 2 21.7057 2.72243 13.5816 
259 2 2.69511 0.00892603 13.5814 
260 2 2.72042 2.74773 10.8773 
261 2 1.348 1.37534 12.2206 
262 2 1.34824 4.08514 14.9288 
263 2 4.05788 1.37547 14.9286 
264 2 4.10667 4.13399 12.2046 
265 2 5.40558 0.00475828 10.8689 
266 2 5.41771 2.74228 13.5689 
267 2 8.11748 0.00504529 13.5809 
268 2 8.11711 2.72985 10.8695 
269 2 6.76405 1.3661 12.2224 
270 2 6.78201 4.13416 14.8799 
271 2 9.47233 1.37082 14.9332 
272 2 9.46474 4.10318 12.2172 
273 2 10.8285 0.00522888 10.8699 
274 2 10.8224 2.73555 13.5749 
275 2 13.5413 0.00687503 13.58 
276 2 13.5138 2.7484 10.8618 
277 2 12.1808 1.37099 12.2248 
278 2 12.1845 4.07776 14.9371 
279 2 14.9022 1.36004 14.9399 
280 2 14.8912 4.0813 12.225 
281 2 16.2533 0.00866804 10.8671 
282 2 16.2555 2.72076 13.5801 
283 2 18.9798 0.00233597 13.582 
284 2 18.9791 2.71796 10.8696 
285 2 17.6175 1.36113 12.226 
286 2 17.6176 4.07508 14.9396 
287 2 20.3423 1.36205 14.9374 
288 2 20.3408 4.0755 12.2256 
289 2 21.7013 5.433 10.8691 
290 2 21.7013 8.14486 13.5809 
291 2 2.71486 5.44493 13.5689 
292 2 2.70196 8.14442 10.8693 
293 2 1.33856 6.7914 12.2225 
294 2 1.343 9.49964 14.9331 
295 2 4.1067 6.80923 14.8798 
296 2 4.07527 9.49201 12.2168 
297 2 5.50997 5.53749 10.8813 
298 2 5.50997 8.13268 13.4764 
299 2 8.10529 5.53776 13.4766 
512 2 20.3389 20.3664 17.6546 
302 2 6.76946 9.49217 14.911 
303 2 9.4648 6.79723 14.9113 
305 2 10.7242 5.53794 10.8578 
307 2 13.5267 5.43994 13.575 
308 2 13.5319 8.14503 10.8697 
309 2 12.1588 6.79738 12.2174 
310 2 12.1276 9.4802 14.8801 
311 2 14.8913 6.78989 14.9336 
312 2 14.8955 9.49805 12.2228 
313 2 16.2569 5.43346 10.8701 
314 2 16.2569 8.14465 13.5812 
315 2 18.9796 5.43126 13.5831 
316 2 18.979 8.14471 10.8695 
317 2 17.6189 6.78808 12.2266 
318 2 17.6174 9.50087 14.9388 
319 2 20.3408 6.7887 14.9388 
320 2 20.3392 9.50143 12.2263 
321 2 21.701 10.856 10.8695 
322 2 21.7026 13.5688 13.5794 
323 2 2.70739 10.8496 13.5743 
324 2 2.72007 13.5411 10.861 
325 2 1.34281 12.2082 12.2243 
326 2 1.33192 14.9295 14.9391 
327 2 4.04968 12.2117 14.9363 
328 2 4.05311 14.9184 12.2241 
329 2 5.50977 10.7515 10.8573 
330 2 5.41171 13.554 13.5742 
332 2 8.11676 13.5596 10.8692 
333 2 6.76926 12.1862 12.2167 
334 2 6.76177 14.9186 14.9328 
335 2 9.45219 12.1552 14.8798 
336 2 9.46988 14.9232 12.2223 
338 2 10.8164 13.5472 13.5689 
339 2 13.5193 10.8446 13.5691 
340 2 13.5134 13.5417 10.8775 
341 2 12.1273 12.1553 12.2047 
342 2 12.1762 14.914 14.9287 
343 2 14.886 12.2044 14.9289 
344 2 14.8859 14.9141 12.2207 
345 2 16.2566 10.8564 10.8692 
346 2 16.2524 13.567 13.5815 
347 2 18.9785 10.8582 13.5829 
348 2 18.9788 13.5715 10.8692 
349 2 17.6172 12.214 12.2254 
350 2 17.6158 14.9275 14.9372 
351 2 20.3406 12.2145 14.9391 
352 2 20.3405 14.9284 12.2254 
353 2 21.7045 16.2808 10.8665 
354 2 21.6987 19.0072 13.5817 
355 2 2.69271 16.2827 13.5793 
356 2 2.6902 19.0064 10.8691 
357 2 1.33316 17.6448 12.2253 
358 2 1.33452 20.3696 14.937 
359 2 4.04719 17.6448 14.9388 
360 2 4.04789 20.3681 12.225 
361 2 5.40533 16.2843 10.8694 
362 2 5.40357 19.007 13.5826 
363 2 8.11659 16.2845 13.5807 
364 2 8.11692 19.0067 10.8693 
365 2 6.76011 17.6463 12.2258 
366 2 6.76113 20.3683 14.9383 
367 2 9.47291 17.6452 14.9384 
368 2 9.47376 20.367 12.2261 
369 2 10.8283 16.2847 10.8691 
370 2 10.8305 19.0066 13.5829 
371 2 13.539 16.2806 13.5816 
372 2 13.5436 19.007 10.8696 
373 2 12.186 17.6453 12.2254 
374 2 12.1868 20.3687 14.9393 
375 2 14.8995 17.6439 14.9373 
376 2 14.9007 20.3687 12.2259 
377 2 16.2531 16.2812 10.872 
378 2 16.2594 19.0063 13.582 
379 2 18.9782 16.2871 13.5818 
380 2 18.9789 19.0067 10.8694 
381 2 17.6168 17.6448 12.2244 
382 2 17.6204 20.3656 14.939 
383 2 20.3376 17.648 14.9387 
384 2 20.341 20.3687 12.2244 
385 2 21.6988 0.00205616 16.2964 
386 2 21.6988 2.71724 19.0118 
387 2 2.69 0.00188196 19.0116 
388 2 2.69572 2.72286 16.2909 
389 2 1.33556 1.36278 17.6509 
390 2 1.33449 4.07645 20.3683 
391 2 4.04918 1.36171 20.3682 
392 2 4.05788 4.08506 17.6384 
393 2 5.40503 0.00899744 16.2914 
394 2 5.40498 2.72231 19.0049 
395 2 8.11449 0.00833523 19.0058 
396 2 8.10921 2.74807 16.2663 
397 2 6.76592 1.37544 17.6384 
398 2 6.76112 4.0753 20.3698 
399 2 9.47329 1.36092 20.3699 
400 2 9.47237 4.08104 17.6437 
401 2 10.8274 0.00673826 16.2938 
402 2 10.8274 2.7206 19.008 
403 2 13.5448 0.000412961 19.0142 
404 2 13.5433 2.71894 16.2959 
405 2 12.1873 1.35996 17.6547 
406 2 12.1869 4.07503 20.3701 
407 2 14.9029 1.35904 20.3739 
408 2 14.9022 4.07485 17.6549 
409 2 16.2616 0.000421104 16.2974 
410 2 16.2616 2.71699 19.0142 
411 2 18.9797 21.724 19.014 
412 2 18.9804 2.71785 16.2964 
413 2 17.6213 1.359 17.6555 
414 2 17.6204 4.07521 20.3731 
415 2 20.3389 1.35923 20.3717 
416 2 20.3423 4.07672 17.6522 
417 2 21.7057 5.43231 16.2915 
418 2 21.7047 8.1418 19.0057 
419 2 2.69501 5.43213 19.0049 
420 2 2.72035 8.13639 16.266 
421 2 1.34803 6.79318 17.6386 
422 2 1.33314 9.50062 20.3697 
423 2 4.04788 6.78835 20.3697 
424 2 4.05328 9.49956 17.6433 
425 2 5.41766 5.44499 16.2717 
426 2 5.40547 8.14473 19.0091 
427 2 8.11742 5.43313 19.0094 
428 2 8.11708 8.14473 16.2845 
429 2 6.76409 6.79148 17.6479 
430 2 6.76013 9.50126 20.3711 
431 2 9.47384 6.78789 20.3714 
432 2 9.47013 9.49784 17.648 
433 2 10.8224 5.4398 16.2793 
434 2 10.8285 8.14453 19.0094 
435 2 13.5414 5.43461 19.0081 
436 2 13.5138 8.15304 16.2665 
437 2 12.1809 6.78981 17.6438 
438 2 12.1861 9.50085 20.37 
439 2 14.9008 6.78863 20.3702 
440 2 14.8862 9.49626 17.6389 
441 2 16.2555 5.43462 16.294 
442 2 16.2533 8.1474 19.006 
443 2 18.9798 5.43199 19.012 
444 2 18.9791 8.1447 16.2963 
445 2 17.6175 6.78859 17.6536 
446 2 17.6169 9.4998 20.3696 
447 2 20.3411 6.78949 20.3696 
448 2 20.3407 9.50089 17.6532 
449 2 21.7027 10.8548 16.2934 
450 2 21.6963 13.5722 19.0136 
451 2 2.69259 10.8546 19.0074 
452 2 2.69077 13.5705 16.2951 
453 2 1.33191 12.2146 17.6541 
454 2 1.33094 14.9302 20.3732 
455 2 4.04698 12.2142 20.3694 
456 2 4.04676 14.9294 17.654 
457 2 5.41176 10.8497 16.2787 
458 2 5.40649 13.5687 19.0073 
459 2 8.11654 10.8561 19.0091 
460 2 8.12491 13.5414 16.2659 
461 2 6.76178 12.2083 17.6432 
462 2 6.7605 14.9282 20.3694 
463 2 9.47278 12.2139 20.3696 
464 2 9.46814 14.9139 17.6383 
465 2 10.8165 10.8445 16.2718 
466 2 10.829 13.567 19.0049 
467 2 13.539 10.8571 19.0051 
468 2 13.5384 13.5666 16.291 
469 2 12.1763 12.2043 17.6385 
470 2 12.1846 14.9275 20.3683 
471 2 14.8994 12.2128 20.3685 
472 2 14.8985 14.9266 17.6511 
473 2 16.2525 10.8571 16.2916 
474 2 16.2592 13.572 19.0118 
475 2 18.9782 10.8572 19.0118 
476 2 18.9777 13.5715 16.2961 
477 2 17.6158 12.2127 17.6521 
478 2 17.6189 14.93 20.3716 
479 2 20.3375 12.2141 20.3726 
480 2 20.3367 14.9304 17.655 
481 2 21.6964 16.289 16.2968 
482 2 21.6964 19.007 19.0137 
483 2 2.68904 16.2888 19.0135 
484 2 2.69025 19.0076 16.2959 
485 2 1.33115 17.6486 17.6548 
486 2 1.33168 20.3661 20.3714 
487 2 4.04731 17.6477 20.3723 
488 2 4.04921 20.3695 17.6517 
489 2 5.40664 16.2828 16.2933 
490 2 5.40438 19.0071 19.0116 
491 2 8.1194 16.2809 19.0055 
492 2 8.11704 19.0068 16.2961 
493 2 6.76069 17.6449 17.6528 
494 2 6.7619 20.3685 20.3691 
495 2 9.47183 17.6447 20.3692 
496 2 9.47329 20.3684 17.6531 
497 2 10.8291 16.2805 16.2914 
498 2 10.8295 19.0062 19.0119 
499 2 13.5439 16.2873 19.0118 
500 2 13.5438 19.0059 16.2963 
501 2 12.1848 17.6439 17.652 
502 2 12.1864 20.3655 20.3728 
503 2 14.9021 17.6471 20.3716 
504 2 14.9028 20.3648 17.6554 
505 2 16.2593 16.2873 16.2964 
506 2 16.2615 19.0062 19.014 
507 2 18.9782 16.2892 19.0138 
508 2 18.979 19.0067 16.2974 
509 2 17.6191 17.647 17.6546 
510 2 17.6202 20.3655 20.3728 
511 2 20.3375 17.6478 20.3725 
ITEM: TIMESTEP
2
ITEM: NUMBER OF ATOMS
511
ITEM: BOX BOUNDS
0.0 21.724
0.0 21.724
0.0 21.724
ITEM: ATOMS id type x y z 
174 1 6.99143 9.36278 9.74385 
175 1 9.33496 7.01938 9.74418 
301 1 6.99176 7.01924 12.0874 
304 1 8.79624 8.82427 11.5487 
306 1 10.6003 8.28425 13.353 
331 1 8.25601 10.6282 13.3527 
337 1 10.6001 10.6284 11.0085 
1 2 21.6964 21.7237 0.0067386 
2 2 21.6964 2.71644 2.72496 
3 2 2.68904 21.7237 2.72479 
4 2 2.69017 2.71735 0.00618422 
5 2 1.33108 1.35844 1.36518 
6 2 1.33182 4.07412 4.08442 
7 2 4.04667 1.3592 4.08428 
8 2 4.04711 4.07442 1.36902 
9 2 5.40435 0.00188329 0.00662992 
10 2 5.40658 2.72002 2.73115 
11 2 8.11939 0.00816785 2.73315 
12 2 8.11699 2.71774 0.00755582 
13 2 6.76063 1.3606 1.36897 
14 2 6.76168 4.08061 4.09534 
15 2 9.46805 1.37543 4.10036 
16 2 9.4729 4.07543 1.36924 
17 2 10.8295 0.00231278 0.00829357 
18 2 10.829 2.72259 2.73417 
19 2 13.5439 0.00235823 2.72732 
20 2 13.5438 2.71795 0.00896347 
21 2 12.1848 1.36215 1.37077 
22 2 12.1762 4.0854 4.10073 
23 2 14.8984 1.36313 4.08814 
24 2 14.8995 4.0769 1.37093 
25 2 16.2615 0.000130136 0.00824061 
26 2 16.2593 2.71755 2.72735 
27 2 18.9782 21.7239 2.725 
28 2 18.979 2.71635 0.00759209 
29 2 17.6191 1.35938 1.36751 
30 2 17.6157 4.07675 4.08718 
31 2 20.3366 1.35861 4.08376 
32 2 20.3376 4.07491 1.36627 
33 2 21.6985 5.43168 0.0067455 
34 2 21.7044 8.14682 2.733 
35 2 2.69258 5.43387 2.73108 
36 2 2.69004 8.1442 0.00722971 
37 2 1.33311 6.78801 1.36901 
38 2 1.34752 9.4955 4.10011 
39 2 4.05302 6.78907 4.09523 
40 2 4.0476 9.50022 1.36882 
41 2 5.40345 5.43081 0.00696986 
42 2 5.40519 8.14395 2.72947 
43 2 8.11651 5.43299 2.72973 
44 2 8.11683 8.14454 0.00743945 
45 2 6.76008 6.78759 1.36757 
46 2 6.76358 9.49742 4.09069 
47 2 9.46985 6.79151 4.09099 
48 2 9.47355 9.50141 1.36762 
49 2 10.8305 5.43124 0.00814171 
50 2 10.8282 8.14504 2.72979 
51 2 13.5389 5.4326 2.73424 
52 2 13.5436 8.14483 0.00771492 
53 2 12.186 6.7888 1.36938 
54 2 12.1804 9.4999 4.09554 
55 2 14.8859 6.79351 4.10066 
56 2 14.9005 9.50108 1.36933 
57 2 16.2594 5.43211 0.00843288 
58 2 16.253 8.1421 2.73333 
59 2 18.9782 5.43186 2.72718 
60 2 18.9788 8.14449 0.0075055 
61 2 17.6168 6.78963 1.36979 
62 2 17.617 9.5009 4.08586 
63 2 20.3404 6.78816 4.0858 
64 2 20.3408 9.49948 1.36949 
65 2 21.6983 10.8569 0.00786564 
66 2 21.6981 13.5714 2.7267 
67 2 2.69448 10.8563 2.73354 
68 2 2.6898 13.571 0.00816029 
69 2 1.33403 12.2122 1.37021 
70 2 1.33487 14.9259 4.08743 
71 2 4.05721 12.2035 4.10002 
72 2 4.04873 14.9268 1.37005 
73 2 5.4032 10.8578 0.00755061 
74 2 5.40437 13.5664 2.7335 
75 2 8.1169 10.856 2.72948 
76 2 8.11664 13.5713 0.00719171 
77 2 6.76067 12.2135 1.36874 
78 2 6.76526 14.9135 4.0999 
79 2 9.4717 12.2083 4.09522 
80 2 9.47286 14.9284 1.36883 
81 2 10.8302 10.8583 0.00705612 
82 2 10.8268 13.569 2.73113 
83 2 13.5408 10.8551 2.73131 
84 2 13.5435 13.5717 0.00630682 
85 2 12.1865 12.2146 1.36915 
86 2 12.1866 14.9298 4.0844 
87 2 14.9015 12.2149 4.08456 
88 2 14.9024 14.9307 1.36532 
89 2 16.2591 10.8573 0.00685605 
90 2 16.261 13.5725 2.72496 
91 2 18.9793 10.857 2.72695 
92 2 18.9786 13.5726 0.00727588 
93 2 17.62 12.2142 1.36618 
94 2 17.6207 14.9305 4.08365 
95 2 20.3416 12.2123 4.08672 
96 2 20.3384 14.9297 1.36706 
97 2 21.6961 16.2888 0.00769571 
98 2 21.6961 19.0056 2.72469 
99 2 2.68947 16.2866 2.72662 
100 2 2.68871 19.0062 0.00711534 
101 2 1.3314 17.6465 1.36691 
102 2 1.33088 20.3641 4.08344 
103 2 4.04871 17.6431 4.08642 
104 2 4.04727 20.3649 1.36581 
105 2 5.4041 16.2867 0.00772552 
106 2 5.40412 19.0056 2.72676 
107 2 8.11399 16.2808 2.73291 
108 2 8.11679 19.0065 0.00730747 
109 2 6.76163 17.6443 1.3691 
110 2 6.76043 20.368 4.08544 
111 2 9.47282 17.6449 4.08549 
112 2 9.4718 20.3686 1.3694 
113 2 10.8293 16.2872 0.00669232 
114 2 10.8293 19.0074 2.72709 
115 2 13.5443 16.2893 2.72501 
116 2 13.5449 19.0068 0.00755547 
117 2 12.1862 17.6481 1.36609 
118 2 12.1845 20.3698 4.08696 
119 2 14.9024 17.649 4.08375 
120 2 14.902 20.3666 1.36743 
121 2 16.2612 16.2893 0.00682614 
122 2 16.2612 19.0073 2.72502 
123 2 18.9792 16.289 2.72477 
124 2 18.9788 19.0065 0.00736255 
125 2 17.6199 17.648 1.36619 
126 2 17.6189 20.3665 4.08436 
127 2 20.3384 17.6466 4.08406 
128 2 20.3375 20.3652 1.36613 
129 2 21.6963 21.7238 5.44161 
130 2 21.7027 2.72017 8.15916 
131 2 2.6927 0.00607775 8.15896 
132 2 2.69076 2.71811 5.44325 
133 2 1.33182 1.35929 6.79925 
134 2 1.34293 4.08065 9.51428 
135 2 4.05323 1.37032 9.51409 
136 2 4.04958 4.07701 6.80206 
137 2 5.40653 0.00606472 5.44506 
138 2 5.4118 2.73493 8.16419 
139 2 8.11659 0.00487991 8.15793 
140 2 8.12488 2.74784 5.4728 
141 2 6.76168 1.37036 6.80556 
142 2 6.76938 4.10286 9.52177 
143 2 9.47001 1.36624 9.5164 
144 2 9.45208 4.13417 6.85906 
145 2 10.829 0.00922256 5.44753 
146 2 10.8165 2.74259 8.17016 
147 2 13.539 0.00944344 8.15758 
148 2 13.5384 2.7233 5.44826 
149 2 12.1761 1.37582 6.81033 
150 2 12.1274 4.13447 9.53451 
151 2 14.886 1.37584 9.51853 
152 2 14.8859 4.0855 6.81049 
153 2 16.2592 0.00233366 5.44262 
154 2 16.2525 2.72277 8.15763 
155 2 18.9782 0.00222104 8.15698 
156 2 18.9777 2.71768 5.44281 
157 2 17.6157 1.36211 6.80187 
158 2 17.6173 4.07566 9.51384 
159 2 20.3406 1.36082 9.5133 
160 2 20.3405 4.07466 6.79981 
161 2 21.7026 5.434 5.44519 
162 2 21.701 8.14407 8.15782 
163 2 2.70737 5.43916 8.16416 
164 2 2.71997 8.15223 5.4725 
165 2 1.34274 6.78914 6.80564 
166 2 1.33828 9.49744 9.51621 
167 2 4.07523 6.79677 9.52171 
168 2 4.10619 9.47948 6.85869 
169 2 5.41163 5.43916 5.45983 
170 2 5.5097 8.15632 8.26219 
171 2 8.1288 5.53761 8.26241 
172 2 8.11669 8.14454 5.45443 
173 2 6.76919 6.79681 6.82766 
176 2 9.46429 9.4922 6.82771 
177 2 10.8164 5.44523 5.46734 
178 2 10.7239 8.13298 8.26249 
179 2 13.5193 5.44543 8.17025 
180 2 13.5134 8.13681 5.47295 
181 2 12.1273 6.80956 6.85922 
182 2 12.1585 9.49245 9.522 
183 2 14.8955 6.79185 9.51674 
184 2 14.8908 9.49996 6.80592 
185 2 16.2524 5.43257 5.44764 
186 2 16.2566 8.14515 8.15813 
187 2 18.9785 5.43113 8.15612 
188 2 18.9787 8.1445 5.44271 
189 2 17.6172 6.78871 6.80059 
190 2 17.6186 9.50155 9.51283 
191 2 20.3391 6.78777 9.5128 
192 2 20.3403 9.50043 6.80029 
193 2 21.705 10.8564 5.44708 
194 2 21.7051 13.5665 8.15694 
195 2 2.71435 10.8438 8.16957 
196 2 2.69499 13.5657 5.44747 
197 2 1.34758 12.2036 6.80978 
198 2 1.34757 14.9135 9.51779 
199 2 4.10626 12.1548 9.53384 
200 2 4.05722 14.9132 6.80964 
201 2 5.41703 10.8438 5.4668 
202 2 5.4171 13.5467 8.16954 
203 2 8.10478 10.7516 8.26225 
204 2 8.10849 13.5412 5.4725 
205 2 6.78135 12.1548 6.85864 
206 2 6.76361 14.9229 9.51598 
207 2 9.4643 12.1863 9.5217 
208 2 9.47168 14.9186 6.80548 
209 2 10.8217 10.8499 5.45992 
210 2 10.8218 13.5543 8.16422 
211 2 13.5262 10.8501 8.16437 
212 2 13.5426 13.5709 5.44338 
213 2 12.1838 12.212 6.80219 
214 2 12.1804 14.9189 9.51425 
215 2 14.8908 12.2086 9.51439 
216 2 14.9015 14.9298 6.79938 
217 2 16.2548 10.855 5.44527 
218 2 16.2548 13.569 8.15913 
219 2 18.9791 10.8581 8.15586 
220 2 18.9797 13.5713 5.44246 
221 2 17.6169 12.2145 6.79967 
222 2 17.617 14.9285 9.51315 
223 2 20.3404 12.2137 9.51333 
224 2 20.3416 14.9271 6.80139 
225 2 21.6982 16.2867 5.44204 
226 2 21.6984 19.0057 8.15665 
227 2 2.6946 16.2798 8.15686 
228 2 2.68988 19.005 5.44232 
229 2 1.33402 17.6432 6.80124 
230 2 1.33312 20.368 9.51295 
231 2 4.04762 17.6447 9.51303 
232 2 4.04693 20.3679 6.79932 
233 2 5.40442 16.2798 5.44697 
234 2 5.40332 19.006 8.15566 
235 2 8.11698 16.2844 8.15773 
236 2 8.11668 19.0065 5.44255 
237 2 6.76064 17.6447 6.79992 
238 2 6.76007 20.3667 9.51237 
239 2 9.47349 17.6465 9.51245 
240 2 9.47267 20.3683 6.80021 
241 2 10.8268 16.283 5.44518 
242 2 10.8302 19.0073 8.15601 
243 2 13.5408 16.2832 8.15921 
244 2 13.5435 19.008 5.4428 
245 2 12.1864 17.6451 6.79964 
246 2 12.1859 20.3686 9.51358 
247 2 14.9004 17.6453 9.51326 
248 2 14.8993 20.3699 6.8018 
249 2 16.261 16.2892 5.4417 
250 2 16.2591 19.0075 8.157 
251 2 18.9793 16.287 8.15672 
252 2 18.9787 19.0065 5.44135 
253 2 17.6199 17.648 6.79999 
254 2 17.6168 20.3688 9.51456 
255 2 20.3408 17.6445 9.51424 
256 2 20.3374 20.3652 6.79994 
257 2 21.7048 0.00819629 10.8719 
258 2 21.7057 2.72243 13.5816 
259 2 2.69511 0.00892603 13.5814 
260 2 2.72042 2.74773 10.8773 
261 2 1.348 1.37534 12.2206 
262 2 1.34824 4.08514 14.9288 
263 2 4.05788 1.37547 14.9286 
264 2 4.10667 4.13399 12.2046 
265 2 5.40558 0.00475828 10.8689 
266 2 5.41771 2.74228 13.5689 
267 2 8.11748 0.00504529 13.5809 
268 2 8.11711 2.72985 10.8695 
269 2 6.76405 1.3661 12.2224 
270 2 6.78201 4.13416 14.8799 
271 2 9.47233 1.37082 14.9332 
272 2 9.46474 4.10318 12.2172 
273 2 10.8285 0.00522888 10.8699 
274 2 10.8224 2.73555 13.5749 
275 2 13.5413 0.00687503 13.58 
276 2 13.5138 2.7484 10.8618 
277 2 12.1808 1.37099 12.2248 
278 2 12.1845 4.07776 14.9371 
279 2 14.9022 1.36004 14.9399 
280 2 14.8912 4.0813 12.225 
281 2 16.2533 0.00866804 10.8671 
282 2 16.2555 2.72076 13.5801 
283 2 18.9798 0.00233597 13.582 
284 2 18.9791 2.71796 10.8696 
285 2 17.6175 1.36113 12.226 
286 2 17.6176 4.07508 14.9396 
287 2 20.3423 1.36205 14.9374 
288 2 20.3408 4.0755 12.2256 
289 2 21.7013 5.433 10.8691 
290 2 21.7013 8.14486 13.5809 
291 2 2.71486 5.44493 13.5689 
292 2 2.70196 8.14442 10.8693 
293 2 1.33856 6.7914 12.2225 
294 2 1.343 9.49964 14.9331 
295 2 4.1067 6.80923 14.8798 
296 2 4.07527 9.49201 12.2168 
297 2 5.50997 5.53749 10.8813 
298 2 5.50997 8.13268 13.4764 
299 2 8.10529 5.53776 13.4766 
512 2 20.3389 20.3664 17.6546 
302 2 6.76946 9.49217 14.911 
303 2 9.4648 6.79723 14.9113 
305 2 10.7242 5.53794 10.8578 
307 2 13.5267 5.43994 13.575 
308 2 13.5319 8.14503 10.8697 
309 2 12.1588 6.79738 12.2174 
310 2 12.1276 9.4802 14.8801 
311 2 14.8913 6.78989 14.9336 
312 2 14.8955 9.49805 12.2228 
313 2 16.2569 5.43346 10.8701 
314 2 16.2569 8.14465 13.5812 
315 2 18.9796 5.43126 13.5831 
316 2 18.979 8.14471 10.8695 
317 2 17.6189 6.78808 12.2266 
318 2 17.6174 9.50087 14.9388 
319 2 20.3408 6.7887 14.9388 
320 2 20.3392 9.50143 12.2263 
321 2 21.701 10.856 10.8695 
322 2 21.7026 13.5688 13.5794 
323 2 2.70739 10.8496 13.5743 
324 2 2.72007 13.5411 10.861 
325 2 1.34281 12.2082 12.2243 
326 2 1.33192 14.9295 14.9391 
327 2 4.04968 12.2117 14.9363 
328 2 4.05311 14.9184 12.2241 
329 2 5.50977 10.7515 10.8573 
330 2 5.41171 13.554 13.5742 
332 2 8.11676 13.5596 10.8692 
333 2 6.76926 12.1862 12.2167 
334 2 6.76177 14.9186 14.9328 
335 2 9.45219 12.1552 14.8798 
336 2 9.46988 14.9232 12.2223 
338 2 10.8164 13.5472 13.5689 
339 2 13.5193 10.8446 13.5691 
340 2 13.5134 13.5417 10.8775 
341 2 12.1273 12.1553 12.2047 
342 2 12.1762 14.914 14.9287 
343 2 14.886 12.2044 14.9289 
344 2 14.8859 14.9141 12.2207 
345 2 16.2566 10.8564 10.8692 
346 2 16.2524 13.567 13.5815 
347 2 18.9785 10.8582 13.5829 
348 2 18.9788 13.5715 10.8692 
349 2 17.6172 12.214 12.2254 
350 2 17.6158 14.9275 14.9372 
351 2 20.3406 12.2145 14.9391 
352 2 20.3405 14.9284 12.2254 
353 2 21.7045 16.2808 10.8665 
354 2 21.6987 19.0072 13.5817 
355 2 2.69271 16.2827 13.5793 
356 2 2.6902 19.0064 10.8691 
357 2 1.33316 17.6448 12.2253 
358 2 1.33452 20.3696 14.937 
359 2 4.04719 17.6448 14.9388 
360 2 4.04789 20.3681 12.225 
361 2 5.40533 16.2843 10.8694 
362 2 5.40357 19.007 13.5826 
363 2 8.11659 16.2845 13.5807 
364 2 8.11692 19.0067 10.8693 
365 2 6.76011 17.6463 12.2258 
366 2 6.76113 20.3683 14.9383 
367 2 9.47291 17.6452 14.9384 
368 2 9.47376 20.367 12.2261 
369 2 10.8283 16.2847 10.8691 
370 2 10.8305 19.0066 13.5829 
371 2 13.539 16.2806 13.5816 
372 2 13.5436 19.007 10.8696 
373 2 12.186 17.6453 12.2254 
374 2 12.1868 20.3687 14.9393 
375 2 14.8995 17.6439 14.9373 
376 2 14.9007 20.3687 12.2259 
377 2 16.2531 16.2812 10.872 
378 2 16.2594 19.0063 13.582 
379 2 18.9782 16.2871 13.5818 
380 2 18.9789 19.0067 10.8694 
381 2 17.6168 17.6448 12.2244 
382 2 17.6204 20.3656 14.939 
383 2 20.3376 17.648 14.9387 
384 2 20.341 20.3687 12.2244 
385 2 21.6988 0.00205616 16.2964 
386 2 21.6988 2.71724 19.0118 
387 2 2.69 0.00188196 19.0116 
388 2 2.69572 2.72286 16.2909 
389 2 1.33556 1.36278 17.6509 
390 2 1.33449 4.07645 20.3683 
391 2 4.04918 1.36171 20.3682 
392 2 4.05788 4.08506 17.6384 
393 2 5.40503 0.00899744 16.2914 
394 2 5.40498 2.72231 19.0049 
395 2 8.11449 0.00833523 19.0058 
396 2 8.10921 2.74807 16.2663 
397 2 6.76592 1.37544 17.6384 
398 2 6.76112 4.0753 20.3698 
399 2 9.47329 1.36092 20.3699 
400 2 9.47237 4.08104 17.6437 
401 2 10.8274 0.00673826 16.2938 
402 2 10.8274 2.7206 19.008 
403 2 13.5448 0.000412961 19.0142 
404 2 13.5433 2.71894 16.2959 
405 2 12.1873 1.35996 17.6547 
406 2 12.1869 4.07503 20.3701 
407 2 14.9029 1.35904 20.3739 
408 2 14.9022 4.07485 17.6549 
409 2 16.2616 0.000421104 16.2974 
410 2 16.2616 2.71699 19.0142 
411 2 18.9797 21.724 19.014 
412 2 18.9804 2.71785 16.2964 
413 2 17.6213 1.359 17.6555 
414 2 17.6204 4.07521 20.3731 
415 2 20.3389 1.35923 20.3717 
416 2 20.3423 4.07672 17.6522 
417 2 21.7057 5.43231 16.2915 
418 2 21.7047 8.1418 19.0057 
419 2 2.69501 5.43213 19.0049 
420 2 2.72035 8.13639 16.266 
421 2 1.34803 6.79318 17.6386 
422 2 1.33314 9.50062 20.3697 
423 2 4.04788 6.78835 20.3697 
424 2 4.05328 9.49956 17.6433 
425 2 5.41766 5.44499 16.2717 
426 2 5.40547 8.14473 19.0091 
427 2 8.11742 5.43313 19.0094 
428 2 8.11708 8.14473 16.2845 
429 2 6.76409 6.79148 17.6479 
430 2 6.76013 9.50126 20.3711 
431 2 9.47384 6.78789 20.3714 
432 2 9.47013 9.49784 17.648 
433 2 10.8224 5.4398 16.2793 
434 2 10.8285 8.14453 19.0094 
435 2 13.5414 5.43461 19.0081 
436 2 13.5138 8.15304 16.2665 
437 2 12.1809 6.78981 17.6438 
438 2 12.1861 9.50085 20.37 
439 2 14.9008 6.78863 20.3702 
440 2 14.8862 9.49626 17.6389 
441 2 16.2555 5.43462 16.294 
442 2 16.2533 8.1474 19.006 
443 2 18.9798 5.43199 19.012 
444 2 18.9791 8.1447 16.2963 
445 2 17.6175 6.78859 17.6536 
446 2 17.6169 9.4998 20.3696 
447 2 20.3411 6.78949 20.3696 
448 2 20.3407 9.50089 17.6532 
449 2 21.7027 10.8548 16.2934 
450 2 21.6963 13.5722 19.0136 
451 2 2.69259 10.8546 19.0074 
452 2 2.69077 13.5705 16.2951 
453 2 1.33191 12.2146 17.6541 
454 2 1.33094 14.9302 20.3732 
455 2 4.04698 12.2142 20.3694 