ITEM: TIMESTEP
0
ITEM: NUMBER OF ATOMS
7
ITEM: BOX BOUNDS pp pp pp
0.0000000000000000e+00 2.1724000000000000e+01
0.0000000000000000e+00 2.1724000000000000e+01
0.0000000000000000e+00 2.1724000000000000e+01
ITEM: ATOMS id type x y z
174 1 7.08193 9.17509 9.83735
175 1 9.15099 7.1123 9.83776
301 1 7.08405 7.11101 11.9002
304 1 9.15212 9.17675 11.9013
306 1 10.7279 8.1596 13.478
331 1 8.13015 10.7516 13.4758
337 1 10.7252 10.754 10.8817
ITEM: TIMESTEP
59
ITEM: NUMBER OF ATOMS
7
ITEM: BOX BOUNDS pp pp pp
0.0000000000000000e+00 2.1724000000000000e+01
0.0000000000000000e+00 2.1724000000000000e+01
0.0000000000000000e+00 2.1724000000000000e+01
ITEM: ATOMS id type x y z
174 1 7.0841 9.17708 9.83654
175 1 9.14964 7.11205 9.83681
301 1 7.08437 7.11191 11.9021
304 1 9.14973 9.17734 11.9022
306 1 10.7242 8.15692 13.4768
331 1 8.12885 10.7518 13.4764
337 1 10.7239 10.752 10.8814
ITEM: TIMESTEP
63
ITEM: NUMBER OF ATOMS
7
ITEM: BOX BOUNDS pp pp pp
0.0000000000000000e+00 2.1724000000000000e+01
0.0000000000000000e+00 2.1724000000000000e+01
0.0000000000000000e+00 2.1724000000000000e+01
ITEM: ATOMS id type x y z
174 1 7.08412 9.17711 9.83656
175 1 9.14962 7.11203 9.8368
301 1 7.08435 7.11191 11.9021
304 1 9.14971 9.17733 11.9022
306 1 10.7242 8.15687 13.4767
331 1 8.12883 10.7518 13.4764
337 1 10.7239 10.7519 10.8814
