ITEM: TIMESTEP
0
ITEM: NUMBER OF ATOMS
504
ITEM: BOX BOUNDS pp pp pp
0.0000000000000000e+00 2.1724000000000000e+01
0.0000000000000000e+00 2.1724000000000000e+01
0.0000000000000000e+00 2.1724000000000000e+01
ITEM: ATOMS id type x y z
1 2 21.6973 21.721 0.00688225
2 2 21.6969 2.71493 2.72619
3 2 2.68745 21.7205 2.72477
4 2 2.69088 2.71495 0.00630037
5 2 1.33124 1.35658 1.36548
6 2 1.33187 4.07362 4.0858
7 2 4.0455 1.35692 4.08394
8 2 4.0483 4.07206 1.36949
9 2 5.40358 21.724 0.00751835
10 2 5.40732 2.71783 2.73233
11 2 8.11877 0.00678071 2.73421
12 2 8.11782 2.71709 0.0091092
13 2 6.76084 1.35864 1.36924
14 2 6.76167 4.07952 4.09599
15 2 9.46794 1.37418 4.10031
16 2 9.47402 4.07461 1.37142
17 2 10.8297 0.0021368 0.00990572
18 2 10.8296 2.72181 2.73604
19 2 13.5441 0.00241007 2.72871
20 2 13.5457 2.71794 0.0107972
21 2 12.1852 1.36252 1.37221
22 2 12.1758 4.08487 4.10209
23 2 14.8989 1.36373 4.08939
24 2 14.9 4.07789 1.37327
25 2 16.263 21.7239 0.00874342
26 2 16.2605 2.71804 2.72856
27 2 18.9788 21.7229 2.72683
28 2 18.9815 2.71514 0.00829986
29 2 17.6208 1.35907 1.36846
30 2 17.6157 4.07805 4.08923
31 2 20.3365 1.35835 4.08599
32 2 20.3386 4.07428 1.36745
33 2 21.7 5.42945 0.00718387
34 2 21.7026 8.14432 2.73181
35 2 2.69281 5.43167 2.73109
36 2 2.69029 8.14175 0.00552514
37 2 1.33372 6.78625 1.36899
38 2 1.34647 9.49239 4.09852
39 2 4.05248 6.78736 4.09537
40 2 4.0482 9.49761 1.36666
41 2 5.40397 5.42992 0.00741903
42 2 5.40477 8.14158 2.72905
43 2 8.11653 5.43192 2.73081
44 2 8.11626 8.14489 0.00694921
45 2 6.76113 6.78632 1.36769
46 2 6.76207 9.49594 4.08983
47 2 9.4689 6.79126 4.09125
48 2 9.47293 9.5019 1.36743
49 2 10.8308 5.43189 0.0104455
50 2 10.8266 8.1452 2.73044
51 2 13.5383 5.43272 2.73627
52 2 13.5427 8.1464 0.0102018
53 2 12.1862 6.78937 1.37164
54 2 12.1772 9.50034 4.09737
55 2 14.884 6.79407 4.10295
56 2 14.8988 9.50238 1.37236
57 2 16.2604 5.43145 0.0103244
58 2 16.2509 8.1421 2.73527
59 2 18.9779 5.4314 2.7278
60 2 18.9779 8.14298 0.00836771
61 2 17.6158 6.78987 1.37184
62 2 17.6146 9.50084 4.08753
63 2 20.3395 6.78711 4.08726
64 2 20.3392 9.49817 1.36886
65 2 21.6965 10.8534 0.00552137
66 2 21.6956 13.5679 2.72487
67 2 2.69262 10.8521 2.73029
68 2 2.68784 13.5676 0.00340759
69 2 1.33208 12.209 1.3675
70 2 1.333 14.9221 4.0855
71 2 4.05544 12.2001 4.09579
72 2 4.04623 14.9239 1.3653
73 2 5.40228 10.8559 0.00409466
74 2 5.40224 13.5642 2.72943
75 2 8.11471 10.8546 2.72912
76 2 8.1139 13.5719 0.00565944
77 2 6.75949 12.2112 1.36619
78 2 6.76397 14.9106 4.09673
79 2 9.46892 12.208 4.09475
80 2 9.47098 14.929 1.36714
81 2 10.8283 10.8612 0.00760532
82 2 10.8238 13.5699 2.73128
83 2 13.5374 10.8557 2.73351
84 2 13.5414 13.5749 0.00778613
85 2 12.1854 12.2164 1.37034
86 2 12.1842 14.9304 4.08549
87 2 14.8981 12.2162 4.08619
88 2 14.9011 14.9329 1.36669
89 2 16.2566 10.8583 0.00912664
90 2 16.2584 13.5735 2.726
91 2 18.977 10.8557 2.72685
92 2 18.9756 13.5711 0.00736887
93 2 17.6175 12.2145 1.36759
94 2 17.6184 14.9314 4.08396
95 2 20.3398 12.2107 4.08609
96 2 20.3358 14.9281 1.36662
97 2 21.6945 16.286 0.00613419
98 2 21.6941 19.0033 2.72404
99 2 2.68717 16.283 2.72309
100 2 2.68705 19.0032 0.00638053
101 2 1.32854 17.6442 1.36533
102 2 1.32868 20.3616 4.08288
103 2 4.04667 17.639 4.08395
104 2 4.04538 20.3623 1.36487
105 2 5.40179 16.2848 0.00451572
106 2 5.4019 19.0026 2.7254
107 2 8.11177 16.2805 2.731
108 2 8.11563 19.006 0.00690771
109 2 6.75924 17.643 1.36592
110 2 6.75879 20.3649 4.08426
111 2 9.47178 17.6438 4.08453
112 2 9.47053 20.368 1.36948
113 2 10.8277 16.2893 0.00681783
114 2 10.8285 19.0079 2.72794
115 2 13.5425 16.2906 2.72663
116 2 13.5452 19.008 0.00777545
117 2 12.1857 17.6498 1.36618
118 2 12.1839 20.37 4.08797
119 2 14.9013 17.65 4.08564
120 2 14.9026 20.367 1.36811
121 2 16.2601 16.2899 0.00681262
122 2 16.2611 19.0077 2.72704
123 2 18.9769 16.288 2.72469
124 2 18.9788 19.0049 0.00693457
125 2 17.6191 17.6482 1.36676
126 2 17.6188 20.3671 4.08685
127 2 20.3354 17.6459 4.08355
128 2 20.3367 20.3638 1.36629
129 2 21.6963 21.7223 5.44234
130 2 21.7026 2.71923 8.16141
131 2 2.69429 0.00395357 8.15739
132 2 2.69017 2.71594 5.44387
133 2 1.33139 1.35796 6.80056
134 2 1.3433 4.07984 9.51578
135 2 4.05506 1.36844 9.51219
136 2 4.0495 4.07474 6.8023
137 2 5.4063 0.00391323 5.4437
138 2 5.41301 2.73247 8.16264
139 2 8.11754 0.0048164 8.15678
140 2 8.12566 2.74674 5.47217
141 2 6.76238 1.36859 6.80351
142 2 6.76999 4.10096 9.52033
143 2 9.47168 1.36658 9.5148
144 2 9.45163 4.13463 6.85932
145 2 10.8285 0.00935513 5.44821
146 2 10.8178 2.74444 8.1711
147 2 13.5387 0.0126815 8.16071
148 2 13.5389 2.72397 5.44928
149 2 12.1764 1.3771 6.81081
150 2 12.1281 4.13699 9.53602
151 2 14.8851 1.38003 9.52191
152 2 14.8855 4.08693 6.81166
153 2 16.2595 0.00399757 5.44626
154 2 16.2518 2.72657 8.16137
155 2 18.9783 0.00327583 8.16025
156 2 18.9765 2.71752 5.44557
157 2 17.6148 1.36432 6.80712
158 2 17.6174 4.07813 9.51778
159 2 20.3407 1.36139 9.51713
160 2 20.339 4.07435 6.80343
161 2 21.7012 5.43213 5.44717
162 2 21.7011 8.14251 8.15884
163 2 2.70668 5.43691 8.16371
164 2 2.71827 8.1499 5.47183
165 2 1.34212 6.78743 6.80627
166 2 1.33802 9.49621 9.51622
167 2 4.07439 6.79553 9.51986
168 2 4.10387 9.47846 6.85702
169 2 5.41065 5.43712 5.45996
170 2 5.50787 8.1566 8.26146
171 2 8.12773 5.53838 8.26254
172 2 8.11472 8.14386 5.45426
173 2 6.76703 6.79654 6.82741
176 2 9.46134 9.49256 6.82829
177 2 10.8159 5.44562 5.46774
178 2 10.7235 8.13534 8.26306
179 2 13.5199 5.44746 8.1719
180 2 13.5109 8.13761 5.47421
181 2 12.1261 6.81054 6.86049
182 2 12.1597 9.49321 9.52355
183 2 14.8977 6.79366 9.51861
184 2 14.8886 9.50014 6.80676
185 2 16.2515 5.43385 5.4493
186 2 16.2561 8.14731 8.15889
187 2 18.9775 5.43289 8.15927
188 2 18.9774 8.1444 5.44367
189 2 17.616 6.78997 6.80227
190 2 17.6186 9.50317 9.5132
191 2 20.3401 6.78776 9.51614
192 2 20.34 9.49876 6.80132
193 2 21.7035 10.8537 5.44535
194 2 21.7048 13.5655 8.15397
195 2 2.71192 10.8424 8.16753
196 2 2.69423 13.5619 5.44437
197 2 1.34639 12.2016 6.8069
198 2 1.34763 14.912 9.51486
199 2 4.10456 12.1532 9.53125
200 2 4.05592 14.9098 6.80622
201 2 5.41445 10.842 5.46438
202 2 5.41575 13.5454 8.16777
203 2 8.10091 10.751 8.26265
204 2 8.10552 13.5398 5.47217
205 2 6.77821 12.1529 6.85668
206 2 6.76286 14.9205 9.51572
207 2 9.46241 12.1849 9.52155
208 2 9.46937 14.9173 6.80528
209 2 10.8183 10.8508 5.4611
210 2 10.8193 13.5543 8.16527
211 2 13.5252 10.8507 8.16484
212 2 13.5391 13.5719 5.44575
213 2 12.1812 12.2119 6.80374
214 2 12.1779 14.919 9.5158
215 2 14.8896 12.2092 9.51429
216 2 14.8985 14.9313 6.80087
217 2 16.2513 10.8551 5.44573
218 2 16.2524 13.5697 8.15862
219 2 18.9784 10.8584 8.15474
220 2 18.9771 13.5705 5.44141
221 2 17.614 12.214 6.7995
222 2 17.6151 14.93 9.51117
223 2 20.3411 12.2131 9.51153
224 2 20.3398 14.9263 6.79991
225 2 21.6961 16.2848 5.43973
226 2 21.6985 19.0052 8.15416
227 2 2.69459 16.2776 8.15352
228 2 2.68891 19.0023 5.43999
229 2 1.3328 17.641 6.79873
230 2 1.33361 20.3672 9.51107
231 2 4.04885 17.6409 9.51052
232 2 4.04701 20.3649 6.79707
233 2 5.40336 16.2762 5.44415
234 2 5.4038 19.0026 8.15315
235 2 8.11627 16.2823 8.15877
236 2 8.1153 19.0044 5.44213
237 2 6.76023 17.64 6.79823
238 2 6.76076 20.3655 9.50923
239 2 9.47286 17.6454 9.51312
240 2 9.47184 20.3672 6.79916
241 2 10.825 16.2835 5.44687
242 2 10.8291 19.0087 8.15805
243 2 13.5385 16.2842 8.16206
244 2 13.5429 19.0099 5.44561
245 2 12.1852 17.6461 6.80172
246 2 12.1847 20.3719 9.51476
247 2 14.8986 17.6473 9.5147
248 2 14.8982 20.3725 6.80519
249 2 16.2592 16.2897 5.44291
250 2 16.2578 19.0097 8.15972
251 2 18.9777 16.2874 8.15444
252 2 18.978 19.0065 5.44246
253 2 17.6175 17.6499 6.80062
254 2 17.6151 20.3715 9.51738
255 2 20.3393 17.6454 9.51155
256 2 20.3361 20.3659 6.80063
257 2 21.7065 0.00732585 10.8714
258 2 21.7088 2.72122 13.5823
259 2 2.69821 0.00700299 13.5796
260 2 2.72194 2.74518 10.8758
261 2 1.34993 1.37407 12.2201
262 2 1.35134 4.08396 14.9285
263 2 4.06163 1.37508 14.9258
264 2 4.10773 4.13117 12.2034
265 2 5.40823 0.00447746 10.8672
266 2 5.42103 2.74195 13.5673
267 2 8.1185 0.00758281 13.5805
268 2 8.1202 2.73038 10.868
269 2 6.76651 1.36707 12.2199
270 2 6.785 4.13445 14.878
271 2 9.47353 1.37472 14.9325
272 2 9.46625 4.10506 12.2168
273 2 10.8288 0.00874897 10.8712
274 2 10.8245 2.74064 13.5767
275 2 13.5416 0.0120134 13.5825
276 2 13.5148 2.75363 10.8646
277 2 12.1812 1.3753 12.2259
278 2 12.1868 4.08265 14.9399
279 2 14.9028 1.36433 14.9426
280 2 14.8927 4.08568 12.2288
281 2 16.2527 0.0126913 10.8707
282 2 16.2565 2.72472 13.5845
283 2 18.9823 0.00313668 13.5833
284 2 18.9793 2.71979 10.8735
285 2 17.6177 1.36392 12.2306
286 2 17.6197 4.07746 14.944
287 2 20.3456 1.36164 14.9386
288 2 20.3425 4.07559 12.2299
289 2 21.7025 5.432 10.8716
290 2 21.7026 8.14397 13.5819
291 2 2.71715 5.44328 13.568
292 2 2.70151 8.14256 10.8682
293 2 1.33988 6.79042 12.2236
294 2 1.34417 9.49853 14.9333
295 2 4.10889 6.80714 14.8792
296 2 4.07426 9.49104 12.2155
297 2 5.5091 5.53545 10.8793
298 2 5.51018 8.13157 13.475
299 2 8.10772 5.5395 13.4765
512 2 20.3398 20.3644 17.6521
302 2 6.77154 9.49008 14.91
303 2 9.46838 6.79837 14.9104
305 2 10.7266 5.54155 10.86
307 2 13.5295 5.44484 13.5787
308 2 13.5347 8.14689 10.8719
309 2 12.1623 6.80019 12.2199
310 2 12.1315 9.48246 14.8822
311 2 14.8938 6.79402 14.9369
312 2 14.8974 9.50079 12.2246
313 2 16.2587 5.43707 10.8739
314 2 16.259 8.14862 13.5839
315 2 18.981 5.43302 13.5863
316 2 18.9795 8.14668 10.8708
317 2 17.6209 6.7916 12.2299
318 2 17.62 9.5038 14.9412
319 2 20.3435 6.78869 14.9419
320 2 20.341 9.50168 12.2272
321 2 21.7014 10.8555 10.8687
322 2 21.7024 13.5686 13.5765
323 2 2.70678 10.849 13.5733
324 2 2.7197 13.54 10.8587
325 2 1.34303 12.2076 12.2224
326 2 1.33267 14.9282 14.9361
327 2 4.0504 12.2096 14.9356
328 2 4.05307 14.9168 12.2226
329 2 5.50789 10.7512 10.856
330 2 5.41154 13.5529 13.5736
332 2 8.11592 13.5582 10.8694
333 2 6.76808 12.1846 12.2161
334 2 6.76215 14.9179 14.9324
335 2 9.45316 12.1554 14.8802
336 2 9.46898 14.9221 12.2229
338 2 10.8162 13.5475 13.5693
339 2 13.5206 10.8469 13.5699
340 2 13.5132 13.5429 10.8772
341 2 12.1282 12.1574 12.2057
342 2 12.1757 14.9148 14.928
343 2 14.8868 12.2069 14.9288
344 2 14.8851 14.9157 12.2195
345 2 16.2563 10.8581 10.8689
346 2 16.2527 13.5687 13.5794
347 2 18.9791 10.8596 13.5816
348 2 18.9788 13.5727 10.8651
349 2 17.6183 12.2159 12.223
350 2 17.6163 14.9291 14.9344
351 2 20.3416 12.2144 14.9377
352 2 20.3411 14.9286 12.2211
353 2 21.7044 16.2806 10.8619
354 2 21.6999 19.0058 13.5775
355 2 2.69324 16.282 13.5769
356 2 2.69188 19.0045 10.865
357 2 1.33422 17.6433 12.2211
358 2 1.33612 20.3675 14.9341
359 2 4.04886 17.6434 14.9365
360 2 4.05001 20.3666 12.2212
361 2 5.40607 16.2821 10.8688
362 2 5.40533 19.0066 13.5809
363 2 8.11736 16.2845 13.5819
364 2 8.11703 19.0068 10.8693
365 2 6.76111 17.6447 12.225
366 2 6.76207 20.3692 14.9366
367 2 9.47304 17.6473 14.9387
368 2 9.47354 20.3695 12.2252
369 2 10.8271 16.285 10.8713
370 2 10.8292 19.0102 13.5842
371 2 13.5383 16.282 13.5812
372 2 13.5421 19.0101 10.8716
373 2 12.1841 17.6479 12.2269
374 2 12.1861 20.373 14.9394
375 2 14.8982 17.6461 14.9364
376 2 14.8992 20.3728 12.228
377 2 16.2518 16.2827 10.871
378 2 16.2583 19.0083 13.5815
379 2 18.9782 16.2873 13.5769
380 2 18.9786 19.0082 10.8682
381 2 17.6153 17.6468 12.2225
382 2 17.6207 20.3663 14.9383
383 2 20.3377 17.6475 14.934
384 2 20.3416 20.3689 12.2232
385 2 21.7014 21.7239 16.295
386 2 21.7014 2.71431 19.012
387 2 2.69159 8.71663e-06 19.0118
388 2 2.69954 2.72113 16.29
389 2 1.33851 1.36053 17.6499
390 2 1.3362 4.07456 20.3678
391 2 4.05083 1.36043 20.3678
392 2 4.06164 4.08465 17.6372
393 2 5.40698 0.00932569 16.2908
394 2 5.40721 2.72192 19.005
395 2 8.1154 0.00995443 19.0071
396 2 8.11137 2.75061 16.2674
397 2 6.76799 1.37634 17.638
398 2 6.7628 4.07529 20.3702
399 2 9.47505 1.36179 20.371
400 2 9.47493 4.08365 17.6443
401 2 10.8277 0.0107251 16.2948
402 2 10.8281 2.72277 19.01
403 2 13.5455 0.00214913 19.0148
404 2 13.5449 2.72295 16.2992
405 2 12.1878 1.36344 17.6562
406 2 12.1881 4.07589 20.3727
407 2 14.9047 1.35934 20.3749
408 2 14.9043 4.07745 17.6584
409 2 16.2626 0.00191213 16.2979
410 2 16.2639 2.71687 19.0155
411 2 18.9822 21.7222 19.0132
412 2 18.9837 2.71746 16.2981
413 2 17.6239 1.3586 17.6568
414 2 17.6224 4.07461 20.3749
415 2 20.3406 1.35716 20.3719
416 2 20.3457 4.07564 17.6544
417 2 21.7084 5.43039 16.2922
418 2 21.7058 8.13931 19.0051
419 2 2.69691 5.43009 19.0037
420 2 2.7222 8.13429 16.2646
421 2 1.35044 6.79151 17.6378
422 2 1.33342 9.4986 20.3678
423 2 4.0493 6.78664 20.3681
424 2 4.05471 9.49804 17.6411
425 2 5.42134 5.44438 16.2707
426 2 5.40641 8.14347 19.0071
427 2 8.11917 5.43378 19.0101
428 2 8.12061 8.14423 16.2836
429 2 6.76741 6.79191 17.6467
430 2 6.761 9.50105 20.3679
431 2 9.47532 6.78909 20.3722
432 2 9.47219 9.49859 17.6472
433 2 10.8245 5.44375 16.2815
434 2 10.8295 8.14718 19.0111
435 2 13.5425 5.43683 19.0118
436 2 13.5164 8.15605 16.2702
437 2 12.1829 6.79317 17.6462
438 2 12.1864 9.50417 20.3721
439 2 14.902 6.79029 20.3745
440 2 14.8877 9.49935 17.6423
441 2 16.2573 5.43762 16.298
442 2 16.2536 8.14835 19.0094
443 2 18.9823 5.43077 19.0138
444 2 18.9803 8.14484 16.2985
445 2 17.6199 6.78986 17.6582
446 2 17.6162 9.50082 20.3727
447 2 20.3424 6.78852 20.3712
448 2 20.3417 9.50059 17.6549
449 2 21.7023 10.8533 16.2928
450 2 21.6943 13.5695 19.0119
451 2 2.69194 10.8519 19.0039
452 2 2.6905 13.5689 16.2931
453 2 1.33146 12.213 17.6522
454 2 1.32891 14.9284 20.3705
455 2 4.0463 12.2117 20.3647
456 2 4.04661 14.9287 17.6511
457 2 5.4136 10.848 16.2773
458 2 5.4059 13.5677 19.0041
459 2 8.1175 10.8571 19.0067
460 2 8.1257 13.5414 16.2653
461 2 6.76227 12.2078 17.6412
462 2 6.75943 14.9284 20.3658
463 2 9.47195 12.2163 20.3682
464 2 9.46803 14.9158 17.6368
465 2 10.8182 10.8462 16.2723
466 2 10.8286 13.5701 19.0047
467 2 13.5385 10.8605 19.0067
468 2 13.5388 13.5687 16.291
469 2 12.1764 12.2072 17.6391
470 2 12.1841 14.9311 20.3681
471 2 14.8984 12.2157 20.3709
472 2 14.8988 14.9294 17.6506
473 2 16.253 10.8597 16.293
474 2 16.2578 13.5731 19.0121
475 2 18.977 10.8563 19.0124
476 2 18.9771 13.5714 16.2938
477 2 17.6165 12.2145 17.6533
478 2 17.6179 14.9301 20.3715
479 2 20.3351 12.2128 20.3729
480 2 20.3365 14.9293 17.6525
481 2 21.696 16.2878 16.2931
482 2 21.6971 19.0045 19.0113
483 2 2.68809 16.2867 19.0113
484 2 2.69199 19.0062 16.2937
485 2 1.33201 17.6468 17.6514
486 2 1.33227 20.3638 20.3701
487 2 4.04586 17.6466 20.3699
488 2 4.05057 20.3687 17.6505
489 2 5.40742 16.2824 16.2925
490 2 5.40469 19.0065 19.0115
491 2 8.11933 16.2819 19.0044
492 2 8.11774 19.0091 16.2963
493 2 6.76126 17.6455 17.6517
494 2 6.76202 20.3687 20.3691
495 2 9.47136 17.6464 20.3679
496 2 9.47383 20.3712 17.6537
497 2 10.8296 16.2827 16.2912
498 2 10.8297 19.0087 19.0119
499 2 13.5443 16.2899 19.0117
500 2 13.5429 19.0087 16.2957
501 2 12.185 17.6466 17.652
502 2 12.1872 20.3671 20.3732
503 2 14.9026 17.6493 20.3711
504 2 14.9034 20.3661 17.6554
505 2 16.259 16.2886 16.2937
506 2 16.2625 19.0061 19.0123
507 2 18.977 16.2874 19.0112
508 2 18.98 19.006 16.2938
509 2 17.6195 17.6474 17.6517
510 2 17.6211 20.3648 20.372
511 2 20.3368 17.6457 20.3707
ITEM: TIMESTEP
59
ITEM: NUMBER OF ATOMS
504
ITEM: BOX BOUNDS pp pp pp
0.0000000000000000e+00 2.1724000000000000e+01
0.0000000000000000e+00 2.1724000000000000e+01
0.0000000000000000e+00 2.1724000000000000e+01
ITEM: ATOMS id type x y z
1 2 21.6964 21.7236 0.00673084
2 2 21.6964 2.71638 2.72496
3 2 2.68903 21.7236 2.72477
4 2 2.69018 2.71729 0.00618047
5 2 1.33108 1.35839 1.36518
6 2 1.33182 4.07407 4.08443
7 2 4.04666 1.35915 4.08426
8 2 4.04712 4.07437 1.36902
9 2 5.40435 21.7258 0.00662118
10 2 5.40657 2.71997 2.73115
11 2 8.11939 0.00814531 2.73316
12 2 8.117 2.71773 0.00757922
13 2 6.76063 1.36057 1.36896
14 2 6.76167 4.08057 4.09534
15 2 9.46804 1.37542 4.10037
16 2 9.47291 4.07543 1.36926
17 2 10.8295 0.00232485 0.00832234
18 2 10.829 2.72259 2.73421
19 2 13.5439 0.0023743 2.72736
20 2 13.5439 2.71797 0.00901501
21 2 12.1848 1.36216 1.37081
22 2 12.1762 4.08541 4.10077
23 2 14.8984 1.36315 4.08818
24 2 14.8996 4.07691 1.37099
25 2 16.2615 21.7241 0.00827053
26 2 16.2593 2.71755 2.7274
27 2 18.9782 21.7239 2.72502
28 2 18.979 2.71632 0.00761651
29 2 17.6191 1.35937 1.36754
30 2 17.6157 4.07675 4.08723
31 2 20.3366 1.35858 4.08378
32 2 20.3376 4.07489 1.3663
33 2 21.6986 5.43162 0.00674855
34 2 21.7044 8.14676 2.73299
35 2 2.69257 5.4338 2.73108
36 2 2.69004 8.14414 0.00720411
37 2 1.33311 6.78796 1.36901
38 2 1.34749 9.49545 4.10009
39 2 4.053 6.78902 4.09521
40 2 4.04758 9.50017 1.36878
41 2 5.40346 5.43076 0.00696964
42 2 5.40517 8.14391 2.72944
43 2 8.1165 5.43297 2.72974
44 2 8.11683 8.14453 0.00744381
45 2 6.76008 6.78756 1.36757
46 2 6.76355 9.49739 4.09067
47 2 9.46984 6.7915 4.09101
48 2 9.47354 9.50141 1.36762
49 2 10.8305 5.43125 0.00818554
50 2 10.8282 8.14505 2.72982
51 2 13.5389 5.43262 2.73429
52 2 13.5436 8.14486 0.00775939
53 2 12.186 6.78882 1.36943
54 2 12.1804 9.49992 4.09556
55 2 14.8859 6.79353 4.10071
56 2 14.9005 9.50111 1.36938
57 2 16.2594 5.43211 0.00847999
58 2 16.253 8.1421 2.73336
59 2 18.9782 5.43183 2.7272
60 2 18.9788 8.14447 0.00752006
61 2 17.6168 6.78963 1.36983
62 2 17.617 9.5009 4.08589
63 2 20.3404 6.78813 4.08582
64 2 20.3408 9.49946 1.3695
65 2 21.6982 10.8568 0.00783458
66 2 21.6981 13.5713 2.72666
67 2 2.69444 10.8563 2.73349
68 2 2.68976 13.571 0.0081009
69 2 1.334 12.2121 1.37017
70 2 1.33482 14.9258 4.08738
71 2 4.05716 12.2035 4.09996
72 2 4.04869 14.9268 1.36999
73 2 5.40318 10.8578 0.00750937
74 2 5.40432 13.5663 2.73345
75 2 8.11686 10.856 2.72947
76 2 8.11661 13.5713 0.00716097
77 2 6.76064 12.2135 1.36869
78 2 6.76521 14.9134 4.09985
79 2 9.47165 12.2083 4.0952
80 2 9.47282 14.9284 1.3688
81 2 10.8302 10.8583 0.00706735
82 2 10.8268 13.569 2.73113
83 2 13.5408 10.8551 2.73134
84 2 13.5434 13.5717 0.00631957
85 2 12.1864 12.2147 1.36916
86 2 12.1866 14.9298 4.08441
87 2 14.9015 12.2149 4.08458
88 2 14.9024 14.9307 1.36533
89 2 16.2591 10.8573 0.00687753
90 2 16.261 13.5725 2.72497
91 2 18.9792 10.857 2.72695
92 2 18.9786 13.5726 0.00726009
93 2 17.6199 12.2142 1.3662
94 2 17.6206 14.9305 4.08365
95 2 20.3416 12.2123 4.0867
96 2 20.3384 14.9297 1.36704
97 2 21.6961 16.2888 0.00765391
98 2 21.6961 19.0056 2.72467
99 2 2.68943 16.2865 2.72656
100 2 2.6887 19.0061 0.00707791
101 2 1.33136 17.6464 1.36686
102 2 1.33086 20.364 4.08342
103 2 4.04866 17.643 4.08637
104 2 4.04725 20.3648 1.36578
105 2 5.40407 16.2867 0.00767561
106 2 5.40409 19.0055 2.72673
107 2 8.11395 16.2808 2.73288
108 2 8.11678 19.0065 0.00729568
109 2 6.7616 17.6443 1.36905
110 2 6.76041 20.3679 4.08541
111 2 9.47278 17.6449 4.08547
112 2 9.47179 20.3686 1.36939
113 2 10.8292 16.2872 0.00668842
114 2 10.8292 19.0074 2.7271
115 2 13.5443 16.2893 2.72503
116 2 13.5449 19.0068 0.00757528
117 2 12.1861 17.6481 1.36609
118 2 12.1845 20.3699 4.08698
119 2 14.9023 17.649 4.08377
120 2 14.902 20.3666 1.36746
121 2 16.2612 16.2893 0.0068303
122 2 16.2612 19.0073 2.72504
123 2 18.9791 16.289 2.72476
124 2 18.9788 19.0065 0.00735662
125 2 17.6199 17.648 1.3662
126 2 17.6188 20.3665 4.08439
127 2 20.3383 17.6466 4.08405
128 2 20.3375 20.3651 1.36613
129 2 21.6963 21.7238 5.44161
130 2 21.7027 2.72014 8.15917
131 2 2.6927 0.0060361 8.15894
132 2 2.69075 2.71806 5.44324
133 2 1.33182 1.35925 6.79925
134 2 1.34295 4.08062 9.51429
135 2 4.05324 1.37029 9.51407
136 2 4.04957 4.07696 6.80205
137 2 5.40652 0.00602025 5.44505
138 2 5.41181 2.73491 8.16418
139 2 8.1166 0.00488491 8.15793
140 2 8.12488 2.74783 5.47281
141 2 6.76167 1.37033 6.80555
142 2 6.7694 4.10286 9.52176
143 2 9.47002 1.36626 9.5164
144 2 9.45208 4.13418 6.85908
145 2 10.829 0.00923846 5.44756
146 2 10.8165 2.74263 8.17019
147 2 13.539 0.0094943 8.15763
148 2 13.5384 2.72333 5.44831
149 2 12.1761 1.37584 6.81037
150 2 12.1275 4.13451 9.53455
151 2 14.886 1.37589 9.51858
152 2 14.8859 4.08553 6.81055
153 2 16.2592 0.00235071 5.44266
154 2 16.2525 2.72281 8.15768
155 2 18.9782 0.00222538 8.15701
156 2 18.9777 2.71766 5.44284
157 2 17.6157 1.36213 6.80192
158 2 17.6173 4.07568 9.5139
159 2 20.3406 1.36082 9.51333
160 2 20.3405 4.07465 6.79985
161 2 21.7026 5.43395 5.44519
162 2 21.701 8.14404 8.15781
163 2 2.70737 5.43912 8.16415
164 2 2.71994 8.15218 5.47247
165 2 1.34272 6.7891 6.80563
166 2 1.33827 9.49741 9.51619
167 2 4.07523 6.79673 9.52169
168 2 4.10616 9.47944 6.85865
169 2 5.41162 5.43912 5.45982
170 2 5.50968 8.15629 8.26217
171 2 8.1288 5.53762 8.26241
172 2 8.11667 8.14454 5.45442
173 2 6.76917 6.79679 6.82765
176 2 9.46426 9.4922 6.82771
177 2 10.8164 5.44525 5.46737
178 2 10.7239 8.13301 8.2625
179 2 13.5193 5.44548 8.1703
180 2 13.5134 8.13684 5.47298
181 2 12.1273 6.80959 6.85925
182 2 12.1585 9.49248 9.52202
183 2 14.8955 6.79189 9.51679
184 2 14.8907 9.49998 6.80596
185 2 16.2524 5.43258 5.44768
186 2 16.2566 8.14518 8.15816
187 2 18.9785 5.43113 8.15615
188 2 18.9787 8.14448 5.44272
189 2 17.6172 6.78872 6.80063
190 2 17.6186 9.50157 9.51286
191 2 20.3392 6.78777 9.51283
192 2 20.3403 9.5004 6.80029
193 2 21.705 10.8564 5.44705
194 2 21.7051 13.5664 8.1569
195 2 2.71432 10.8438 8.16953
196 2 2.69494 13.5657 5.44741
197 2 1.34754 12.2036 6.80974
198 2 1.34755 14.9134 9.51774
199 2 4.10623 12.1547 9.53379
200 2 4.05718 14.9132 6.80958
201 2 5.41699 10.8438 5.46677
202 2 5.41706 13.5466 8.16949
203 2 8.10474 10.7516 8.26224
204 2 8.10844 13.5412 5.47248
205 2 6.78131 12.1548 6.85861
206 2 6.76359 14.9229 9.51594
207 2 9.46427 12.1863 9.52169
208 2 9.47163 14.9186 6.80545
209 2 10.8217 10.8499 5.45993
210 2 10.8217 13.5543 8.16423
211 2 13.5262 10.8501 8.16439
212 2 13.5425 13.571 5.4434
213 2 12.1838 12.2121 6.8022
214 2 12.1803 14.9189 9.51425
215 2 14.8907 12.2087 9.51441
216 2 14.9015 14.9298 6.79939
217 2 16.2548 10.855 5.44528
218 2 16.2548 13.5691 8.15913
219 2 18.9791 10.8581 8.15585
220 2 18.9796 13.5713 5.44245
221 2 17.6169 12.2145 6.79968
222 2 17.617 14.9285 9.51314
223 2 20.3403 12.2137 9.51331
224 2 20.3416 14.927 6.80136
225 2 21.6981 16.2866 5.442
226 2 21.6984 19.0057 8.15662
227 2 2.69458 16.2798 8.15681
228 2 2.68985 19.005 5.44228
229 2 1.33399 17.6431 6.8012
230 2 1.33312 20.368 9.51292
231 2 4.04761 17.6446 9.51297
232 2 4.04691 20.3679 6.79928
233 2 5.40438 16.2798 5.44693
234 2 5.40331 19.0059 8.15563
235 2 8.11695 16.2844 8.1577
236 2 8.11666 19.0065 5.44254
237 2 6.76061 17.6447 6.79987
238 2 6.76007 20.3667 9.51234
239 2 9.47347 17.6465 9.51243
240 2 9.47265 20.3683 6.8002
241 2 10.8268 16.283 5.44518
242 2 10.8302 19.0073 8.15603
243 2 13.5408 16.2832 8.15923
244 2 13.5435 19.008 5.44283
245 2 12.1863 17.6451 6.79965
246 2 12.1859 20.3686 9.5136
247 2 14.9004 17.6453 9.51328
248 2 14.8992 20.37 6.80184
249 2 16.261 16.2892 5.44172
250 2 16.2591 19.0076 8.15703
251 2 18.9793 16.287 8.1567
252 2 18.9786 19.0065 5.44136
253 2 17.6198 17.648 6.80001
254 2 17.6167 20.3689 9.51459
255 2 20.3407 17.6445 9.51422
256 2 20.3374 20.3651 6.79995
257 2 21.7048 0.00817924 10.8719
258 2 21.7058 2.72242 13.5816
259 2 2.69516 0.00890164 13.5813
260 2 2.72045 2.7477 10.8773
261 2 1.34804 1.37532 12.2206
262 2 1.3483 4.08512 14.9288
263 2 4.05793 1.37545 14.9285
264 2 4.10671 4.13397 12.2045
265 2 5.40561 0.00474712 10.8689
266 2 5.41776 2.74227 13.5689
267 2 8.11752 0.00507767 13.5809
268 2 8.11715 2.72988 10.8695
269 2 6.76408 1.3661 12.2223
270 2 6.78206 4.13416 14.8799
271 2 9.47237 1.37086 14.9332
272 2 9.46478 4.10322 12.2172
273 2 10.8285 0.00528637 10.87
274 2 10.8224 2.73561 13.5749
275 2 13.5414 0.0069474 13.58
276 2 13.5138 2.74847 10.8619
277 2 12.1808 1.37105 12.2249
278 2 12.1846 4.07782 14.9371
279 2 14.9022 1.36011 14.9399
280 2 14.8912 4.08136 12.2251
281 2 16.2533 0.00871987 10.8671
282 2 16.2555 2.72081 13.5801
283 2 18.9799 0.00235172 13.5821
284 2 18.9791 2.71798 10.8697
285 2 17.6175 1.36117 12.226
286 2 17.6176 4.07512 14.9397
287 2 20.3424 1.36205 14.9374
288 2 20.3408 4.0755 12.2256
289 2 21.7013 5.43298 10.8691
290 2 21.7013 8.14484 13.5809
291 2 2.7149 5.44491 13.5689
292 2 2.70196 8.14439 10.8692
293 2 1.33858 6.79137 12.2225
294 2 1.34302 9.49962 14.933
295 2 4.10674 6.8092 14.8798
296 2 4.07527 9.49199 12.2168
297 2 5.50999 5.53748 10.8812
298 2 5.50999 8.13267 13.4764
299 2 8.10533 5.5378 13.4766
512 2 20.3389 20.3664 17.6545
302 2 6.76949 9.49216 14.911
303 2 9.46484 6.79726 14.9113
305 2 10.7242 5.538 10.8579
307 2 13.5268 5.44001 13.5751
308 2 13.532 8.14509 10.8697
309 2 12.1588 6.79744 12.2174
310 2 12.1276 9.48025 14.8802
311 2 14.8913 6.78995 14.9337
312 2 14.8956 9.4981 12.2228
313 2 16.2569 5.43351 10.8702
314 2 16.2569 8.1447 13.5812
315 2 18.9797 5.43128 13.5832
316 2 18.979 8.14472 10.8695
317 2 17.6189 6.78812 12.2266
318 2 17.6175 9.50091 14.9389
319 2 20.3409 6.78871 14.9388
320 2 20.3392 9.50143 12.2263
321 2 21.701 10.856 10.8695
322 2 21.7026 13.5688 13.5793
323 2 2.70739 10.8496 13.5743
324 2 2.72006 13.5411 10.8609
325 2 1.34281 12.2082 12.2242
326 2 1.33193 14.9295 14.9391
327 2 4.04968 12.2117 14.9363
328 2 4.05311 14.9184 12.2241
329 2 5.50976 10.7515 10.8573
330 2 5.41171 13.554 13.5742
332 2 8.11674 13.5596 10.8692
333 2 6.76926 12.1861 12.2167
334 2 6.76178 14.9186 14.9327
335 2 9.4522 12.1552 14.8798
336 2 9.46987 14.9233 12.2223
338 2 10.8164 13.5473 13.5689
339 2 13.5193 10.8446 13.5691
340 2 13.5134 13.5417 10.8775
341 2 12.1273 12.1554 12.2047
342 2 12.1762 14.914 14.9287
343 2 14.886 12.2044 14.9289
344 2 14.8859 14.9141 12.2207
345 2 16.2566 10.8564 10.8692
346 2 16.2524 13.5671 13.5815
347 2 18.9785 10.8583 13.5829
348 2 18.9787 13.5715 10.8692
349 2 17.6172 12.214 12.2254
350 2 17.6158 14.9275 14.9372
351 2 20.3406 12.2145 14.9391
352 2 20.3405 14.9284 12.2254
353 2 21.7045 16.2808 10.8664
354 2 21.6987 19.0072 13.5817
355 2 2.69272 16.2827 13.5792
356 2 2.69022 19.0064 10.869
357 2 1.33317 17.6448 12.2252
358 2 1.33456 20.3696 14.937
359 2 4.04721 17.6448 14.9387
360 2 4.04792 20.3681 12.225
361 2 5.40532 16.2842 10.8693
362 2 5.4036 19.007 13.5826
363 2 8.11659 16.2845 13.5807
364 2 8.11693 19.0068 10.8693
365 2 6.76011 17.6463 12.2258
366 2 6.76116 20.3683 14.9383
367 2 9.47292 17.6452 14.9383
368 2 9.47377 20.3671 12.2261
369 2 10.8283 16.2847 10.8691
370 2 10.8305 19.0066 13.583
371 2 13.539 16.2806 13.5816
372 2 13.5436 19.0071 10.8696
373 2 12.186 17.6453 12.2254
374 2 12.1869 20.3688 14.9393
375 2 14.8995 17.644 14.9373
376 2 14.9007 20.3687 12.2259
377 2 16.253 16.2813 10.872
378 2 16.2594 19.0063 13.582
379 2 18.9782 16.2872 13.5817
380 2 18.9789 19.0067 10.8693
381 2 17.6168 17.6449 12.2244
382 2 17.6204 20.3656 14.939
383 2 20.3377 17.648 14.9386
384 2 20.3411 20.3687 12.2244
385 2 21.6988 21.726 16.2964
386 2 21.6988 2.7172 19.0118
387 2 2.69003 0.00183497 19.0116
388 2 2.69577 2.72282 16.2909
389 2 1.3356 1.36275 17.6509
390 2 1.33453 4.07641 20.3683
391 2 4.0492 1.36167 20.3682
392 2 4.05793 4.08503 17.6383
393 2 5.40508 0.00898639 16.2913
394 2 5.40502 2.72228 19.0049
395 2 8.11451 0.00834032 19.0058
396 2 8.10926 2.74809 16.2663
397 2 6.76596 1.37544 17.6384
398 2 6.76115 4.07528 20.3698
399 2 9.47331 1.36093 20.3699
400 2 9.47241 4.08107 17.6437
401 2 10.8275 0.00679177 16.2939
402 2 10.8275 2.72063 19.008
403 2 13.5449 0.000450287 19.0142
404 2 13.5434 2.719 16.296
405 2 12.1873 1.36 17.6547
406 2 12.1869 4.07506 20.3702
407 2 14.9029 1.35907 20.374
408 2 14.9023 4.07489 17.6549
409 2 16.2617 0.000459432 16.2974
410 2 16.2617 2.71701 19.0143
411 2 18.9797 21.724 19.014
412 2 18.9805 2.71785 16.2964
413 2 17.6214 1.35903 17.6555
414 2 17.6205 4.07522 20.3732
415 2 20.3389 1.35921 20.3717
416 2 20.3424 4.07671 17.6522
417 2 21.7057 5.43229 16.2916
418 2 21.7047 8.14177 19.0056
419 2 2.69504 5.43208 19.0049
420 2 2.72037 8.13636 16.266
421 2 1.34807 6.79315 17.6386
422 2 1.33315 9.50058 20.3696
423 2 4.0479 6.78831 20.3697
424 2 4.05331 9.49953 17.6432
425 2 5.41771 5.44497 16.2717
426 2 5.40548 8.1447 19.0091
427 2 8.11745 5.43313 19.0094
428 2 8.11711 8.14475 16.2845
429 2 6.76413 6.79147 17.6479
430 2 6.76014 9.50124 20.371
431 2 9.47386 6.7879 20.3714
432 2 9.47016 9.49786 17.648
433 2 10.8224 5.43985 16.2793
434 2 10.8285 8.14456 19.0095
435 2 13.5414 5.43465 19.0081
436 2 13.5139 8.1531 16.2665
437 2 12.181 6.78985 17.6439
438 2 12.1861 9.50089 20.37
439 2 14.9008 6.78866 20.3703
440 2 14.8862 9.49631 17.6389
441 2 16.2555 5.43467 16.2941
442 2 16.2533 8.14743 19.0061
443 2 18.9798 5.43197 19.0121
444 2 18.9791 8.14471 16.2963
445 2 17.6176 6.78862 17.6536
446 2 17.6169 9.49983 20.3697
447 2 20.3411 6.78948 20.3696
448 2 20.3407 9.5009 17.6533
449 2 21.7027 10.8548 16.2934
450 2 21.6963 13.5722 19.0135
451 2 2.69258 10.8546 19.0073
452 2 2.69077 13.5705 16.2951
453 2 1.33191 12.2146 17.6541
454 2 1.33092 14.9301 20.3732
455 2 4.04697 12.2141 20.3693
456 2 4.04676 14.9294 17.6539
457 2 5.41177 10.8497 16.2787
458 2 5.40648 13.5686 19.0072
459 2 8.11654 10.8561 19.0091
460 2 8.12492 13.5414 16.2659
461 2 6.76179 12.2083 17.6431
462 2 6.76048 14.9282 20.3693
463 2 9.47277 12.2139 20.3696
464 2 9.46814 14.9139 17.6383
465 2 10.8165 10.8445 16.2718
466 2 10.8289 13.567 19.0049
467 2 13.539 10.8572 19.0052
468 2 13.5384 13.5666 16.291
469 2 12.1763 12.2043 17.6385
470 2 12.1846 14.9275 20.3683
471 2 14.8994 12.2129 20.3685
472 2 14.8985 14.9267 17.6511
473 2 16.2525 10.8571 16.2917
474 2 16.2592 13.572 19.0118
475 2 18.9781 10.8572 19.0118
476 2 18.9777 13.5716 16.296
477 2 17.6158 12.2128 17.6521
478 2 17.6189 14.9301 20.3716
479 2 20.3374 12.2141 20.3726
480 2 20.3367 14.9305 17.655
481 2 21.6964 16.289 16.2968
482 2 21.6964 19.0069 19.0137
483 2 2.68903 16.2888 19.0134
484 2 2.69028 19.0075 16.2958
485 2 1.33116 17.6486 17.6548
486 2 1.33169 20.3661 20.3713
487 2 4.0473 17.6476 20.3722
488 2 4.04923 20.3695 17.6516
489 2 5.40665 16.2827 16.2932
490 2 5.40438 19.0071 19.0115
491 2 8.1194 16.281 19.0055
492 2 8.11706 19.0068 16.296
493 2 6.76069 17.6449 17.6527
494 2 6.7619 20.3685 20.3691