LAMMPS (29 Aug 2024)
Running on 3 partitions of processors
Reading NEB coordinate file(s) ...
Setting up regular NEB ...
    Step     MaxReplicaForce  MaxAtomForce      GradV0         GradV1         GradVc          EBF            EBR            RDT            RD1            PE1            RD2            PE2            RD3            PE3       
         0   7.5525391        2.671788       0.16683659     7.5525391      7.5525391      1.5383951      0              1.6207355      0              -2213.3343     0.5            -2212.4096     1              -2211.7959     
        10   0.27332818       0.0016764867   0.039164338    0.27332818     0.17804882     0.51235911     0.497084       1.6790474      0              -2213.3364     0.49024121     -2212.824      1              -2213.3211     
        20   0.1820396        0.00032579948  0.024428411    0.1820396      0.08601739     0.51038174     0.5080746      1.7224961      0              -2213.337      0.49199582     -2212.8266     1              -2213.3347     
        30   0.043288796      4.6388121e-05  0.017372479    0.043288796    0.049466709    0.51032316     0.5095943      1.7304745      0              -2213.3371     0.49553568     -2212.8268     1              -2213.3364     
        40   0.042139304      1.3716478e-05  0.01173707     0.042139304    0.026104735    0.51022733     0.5100163      1.7366752      0              -2213.3373     0.49838067     -2212.8271     1              -2213.3371     
        50   0.025899085      5.2007368e-06  0.008105691    0.025899085    0.016908924    0.5101712      0.51008591     1.739143       0              -2213.3373     0.49923344     -2212.8272     1              -2213.3373     
        59   0.0096284694     1.6760417e-06  0.0056575752   0.0093671846   0.012040883    0.51014185     0.51010207     1.7404554      0              -2213.3374     0.49955698     -2212.8272     1              -2213.3373     
Setting up climbing ...
Climbing replica = 2
    Step     MaxReplicaForce  MaxAtomForce      GradV0         GradV1         GradVc          EBF            EBR            RDT            RD1            PE1            RD2            PE2            RD3            PE3       
        59   0.012040883      9.9260842e-06  0.0056575752   0.0093671846   0.012040883    0.51014185     0.51010207     1.7404554      0              -2213.3374     0.49955698     -2212.8272     1              -2213.3373     
        63   0.0091523009     2.7864726e-06  0.0049647046   0.0081989042   0.0091523009   0.51013743     0.51010775     1.7409028      0              -2213.3374     0.50022236     -2212.8272     1              -2213.3373     
