LAMMPS (29 Aug 2024)
Processor partition = 2
Lattice spacing in x,y,z = 5.431 5.431 5.431
Reading data file ...
  orthogonal box = (0 0 0) to (21.724 21.724 21.724)
  1 by 1 by 1 MPI processor grid
  reading atoms ...
  512 atoms
  reading velocities ...
  512 velocities
  read_data CPU = 0.006 seconds
512 atoms in group Si
1 atoms in group del
Deleted 1 atoms, new total = 511
7 atoms in group vacneigh
504 atoms in group background
Setting atom values ...
  504 settings made for type
Reading sw potential file Si.sw with DATE: 2007-06-11
Displacing atoms ...

CITE-CITE-CITE-CITE-CITE-CITE-CITE-CITE-CITE-CITE-CITE-CITE-CITE

Your simulation uses code contributions which should be cited:
- Type Label Framework: https://doi.org/10.1021/acs.jpcb.3c08419
The log file lists these citations in BibTeX format.

CITE-CITE-CITE-CITE-CITE-CITE-CITE-CITE-CITE-CITE-CITE-CITE-CITE

Neighbor list info ...
  update: every = 1 steps, delay = 0 steps, check = yes
  max neighbors/atom: 2000, page size: 100000
  master list distance cutoff = 5.77118
  ghost atom cutoff = 5.77118
  binsize = 2.88559, bins = 8 8 8
  1 neighbor lists, perpetual/occasional/extra = 1 0 0
  (1) pair sw, perpetual
      attributes: full, newton on
      pair build: full/bin/atomonly
      stencil: full/bin/3d
      bin: standard
Setting up cg style minimization ...
  Unit style    : metal
  Current step  : 0
Per MPI rank memory allocation (min/avg/max) = 4.122 | 4.122 | 4.122 Mbytes
   Step          Temp          E_pair         E_mol          TotEng         Press     
         0   0             -593.40319      0             -593.40319      355294.02    
        33   0             -2213.3343      0             -2213.3343     -3383.2606    
Loop time of 0.017194 on 1 procs for 33 steps with 511 atoms

99.2% CPU use with 1 MPI tasks x no OpenMP threads

Minimization stats:
  Stopping criterion = energy tolerance
  Energy initial, next-to-last, final = 
     -593.403188091472  -2213.33209897182  -2213.33426537417
  Force two-norm initial, final = 1101.8254 0.16683659
  Force max component initial, final = 334.49264 0.014961353
  Final line search alpha, max atom move = 1 0.014961353
  Iterations, force evaluations = 33 44

MPI task timing breakdown:
Section |  min time  |  avg time  |  max time  |%varavg| %total
---------------------------------------------------------------
Pair    | 0.015928   | 0.015928   | 0.015928   |   0.0 | 92.64
Neigh   | 0.00063946 | 0.00063946 | 0.00063946 |   0.0 |  3.72
Comm    | 0.00017783 | 0.00017783 | 0.00017783 |   0.0 |  1.03
Output  | 0          | 0          | 0          |   0.0 |  0.00
Modify  | 0          | 0          | 0          |   0.0 |  0.00
Other   |            | 0.0004487  |            |       |  2.61

Nlocal:            511 ave         511 max         511 min
Histogram: 1 0 0 0 0 0 0 0 0 0
Nghost:           1451 ave        1451 max        1451 min
Histogram: 1 0 0 0 0 0 0 0 0 0
Neighs:              0 ave           0 max           0 min
Histogram: 1 0 0 0 0 0 0 0 0 0
FullNghs:        17378 ave       17378 max       17378 min
Histogram: 1 0 0 0 0 0 0 0 0 0

Total # of neighbors = 17378
Ave neighs/atom = 34.007828
Neighbor list builds = 1
Dangerous builds = 0
Setting up quickmin style minimization ...
  Unit style    : metal
  Current step  : 0
Per MPI rank memory allocation (min/avg/max) = 2.997 | 2.997 | 2.997 Mbytes
   Step          Temp          E_pair         E_mol          TotEng         Press     
         0   0             -2211.7959      0             -2211.7959     -3150.9854    
        59   0.00012990235 -2213.3373      0             -2213.3373     -3383.4237    
Loop time of 0.0153235 on 1 procs for 59 steps with 511 atoms

97.6% CPU use with 1 MPI tasks x no OpenMP threads

Minimization stats:
  Stopping criterion = force tolerance
  Energy initial, next-to-last, final = 
       -2211.795870238   -2213.3373183748  -2213.33732205252
  Force two-norm initial, final = 7.5525391 0.0093671846
  Force max component initial, final = 1.6345605 0.00071639563
  Final line search alpha, max atom move = 0 0
  Iterations, force evaluations = 59 59

MPI task timing breakdown:
Section |  min time  |  avg time  |  max time  |%varavg| %total
---------------------------------------------------------------
Pair    | 0.01241    | 0.01241    | 0.01241    |   0.0 | 80.98
Neigh   | 0          | 0          | 0          |   0.0 |  0.00
Comm    | 0.0002242  | 0.0002242  | 0.0002242  |   0.0 |  1.46
Output  | 0          | 0          | 0          |   0.0 |  0.00
Modify  | 0.00109    | 0.00109    | 0.00109    |   0.0 |  7.11
Other   |            | 0.0016     |            |       | 10.44

Nlocal:            511 ave         511 max         511 min
Histogram: 1 0 0 0 0 0 0 0 0 0
Nghost:           1451 ave        1451 max        1451 min
Histogram: 1 0 0 0 0 0 0 0 0 0
Neighs:              0 ave           0 max           0 min
Histogram: 1 0 0 0 0 0 0 0 0 0
FullNghs:        17376 ave       17376 max       17376 min
Histogram: 1 0 0 0 0 0 0 0 0 0

Total # of neighbors = 17376
Ave neighs/atom = 34.003914
Neighbor list builds = 0
Dangerous builds = 0
Setting up quickmin style minimization ...
  Unit style    : metal
  Current step  : 59
Per MPI rank memory allocation (min/avg/max) = 5.517 | 5.517 | 5.517 Mbytes
   Step          Temp          E_pair         E_mol          TotEng         Press     
        59   0             -2213.3373      0             -2213.3373     -3383.4246    
        63   0.00035101647 -2213.3373      0             -2213.3373     -3383.4321    
Loop time of 0.00154425 on 1 procs for 4 steps with 511 atoms

97.1% CPU use with 1 MPI tasks x no OpenMP threads

Minimization stats:
  Stopping criterion = force tolerance
  Energy initial, next-to-last, final = 
     -2213.33732205252  -2213.33733055046  -2213.33733843547
  Force two-norm initial, final = 0.0093671846 0.0081989042
  Force max component initial, final = 0.00071639563 0.00061875617
  Final line search alpha, max atom move = 0 0
  Iterations, force evaluations = 4 4

MPI task timing breakdown:
Section |  min time  |  avg time  |  max time  |%varavg| %total
---------------------------------------------------------------
Pair    | 0.0010115  | 0.0010115  | 0.0010115  |   0.0 | 65.50
Neigh   | 0          | 0          | 0          |   0.0 |  0.00
Comm    | 1.825e-05  | 1.825e-05  | 1.825e-05  |   0.0 |  1.18
Output  | 0          | 0          | 0          |   0.0 |  0.00
Modify  | 9.7209e-05 | 9.7209e-05 | 9.7209e-05 |   0.0 |  6.29
Other   |            | 0.0004172  |            |       | 27.02

Nlocal:            511 ave         511 max         511 min
Histogram: 1 0 0 0 0 0 0 0 0 0
Nghost:           1451 ave        1451 max        1451 min
Histogram: 1 0 0 0 0 0 0 0 0 0
Neighs:              0 ave           0 max           0 min
Histogram: 1 0 0 0 0 0 0 0 0 0
FullNghs:        17364 ave       17364 max       17364 min
Histogram: 1 0 0 0 0 0 0 0 0 0

Total # of neighbors = 17364
Ave neighs/atom = 33.980431
Neighbor list builds = 0
Dangerous builds = 0
Total wall time: 0:00:00
