LAMMPS (29 Aug 2024)
Processor partition = 1
Lattice spacing in x,y,z = 5.431 5.431 5.431
Reading data file ...
  orthogonal box = (0 0 0) to (21.724 21.724 21.724)
  1 by 1 by 1 MPI processor grid
  reading atoms ...
  512 atoms
  reading velocities ...
  512 velocities
  read_data CPU = 0.005 seconds
512 atoms in group Si
1 atoms in group del
Deleted 1 atoms, new total = 511
7 atoms in group vacneigh
504 atoms in group background
Setting atom values ...
  504 settings made for type
Reading sw potential file Si.sw with DATE: 2007-06-11
Displacing atoms ...

CITE-CITE-CITE-CITE-CITE-CITE-CITE-CITE-CITE-CITE-CITE-CITE-CITE

Your simulation uses code contributions which should be cited:
- Type Label Framework: https://doi.org/10.1021/acs.jpcb.3c08419
The log file lists these citations in BibTeX format.

CITE-CITE-CITE-CITE-CITE-CITE-CITE-CITE-CITE-CITE-CITE-CITE-CITE

Neighbor list info ...
  update: every = 1 steps, delay = 0 steps, check = yes
  max neighbors/atom: 2000, page size: 100000
  master list distance cutoff = 5.77118
  ghost atom cutoff = 5.77118
  binsize = 2.88559, bins = 8 8 8
  1 neighbor lists, perpetual/occasional/extra = 1 0 0
  (1) pair sw, perpetual
      attributes: full, newton on
      pair build: full/bin/atomonly
      stencil: full/bin/3d
      bin: standard
Setting up cg style minimization ...
  Unit style    : metal
  Current step  : 0
Per MPI rank memory allocation (min/avg/max) = 4.122 | 4.122 | 4.122 Mbytes
   Step          Temp          E_pair         E_mol          TotEng         Press     
         0   0             -593.40319      0             -593.40319      355294.02    
        33   0             -2213.3343      0             -2213.3343     -3383.2606    
Loop time of 0.0171087 on 1 procs for 33 steps with 511 atoms

99.8% CPU use with 1 MPI tasks x no OpenMP threads

Minimization stats:
  Stopping criterion = energy tolerance
  Energy initial, next-to-last, final = 
     -593.403188091472  -2213.33209897182  -2213.33426537417
  Force two-norm initial, final = 1101.8254 0.16683659
  Force max component initial, final = 334.49264 0.014961353
  Final line search alpha, max atom move = 1 0.014961353
  Iterations, force evaluations = 33 44

MPI task timing breakdown:
Section |  min time  |  avg time  |  max time  |%varavg| %total
---------------------------------------------------------------
Pair    | 0.015825   | 0.015825   | 0.015825   |   0.0 | 92.49
Neigh   | 0.00065633 | 0.00065633 | 0.00065633 |   0.0 |  3.84
Comm    | 0.00018146 | 0.00018146 | 0.00018146 |   0.0 |  1.06
Output  | 0          | 0          | 0          |   0.0 |  0.00
Modify  | 0          | 0          | 0          |   0.0 |  0.00
Other   |            | 0.0004464  |            |       |  2.61

Nlocal:            511 ave         511 max         511 min
Histogram: 1 0 0 0 0 0 0 0 0 0
Nghost:           1451 ave        1451 max        1451 min
Histogram: 1 0 0 0 0 0 0 0 0 0
Neighs:              0 ave           0 max           0 min
Histogram: 1 0 0 0 0 0 0 0 0 0
FullNghs:        17378 ave       17378 max       17378 min
Histogram: 1 0 0 0 0 0 0 0 0 0

Total # of neighbors = 17378
Ave neighs/atom = 34.007828
Neighbor list builds = 1
Dangerous builds = 0
Setting up quickmin style minimization ...
  Unit style    : metal
  Current step  : 0
Per MPI rank memory allocation (min/avg/max) = 2.997 | 2.997 | 2.997 Mbytes
   Step          Temp          E_pair         E_mol          TotEng         Press     
         0   0             -2212.4096      0             -2212.4096     -3560.3326    
        59   0.00011694018 -2212.8272      0             -2212.8272     -3541.2055    
Loop time of 0.0153227 on 1 procs for 59 steps with 511 atoms

98.2% CPU use with 1 MPI tasks x no OpenMP threads

Minimization stats:
  Stopping criterion = force tolerance
  Energy initial, next-to-last, final = 
     -2212.40959192473  -2212.82721678138  -2212.82721998453
  Force two-norm initial, final = 3.6779668 0.0096284694
  Force max component initial, final = 0.7226471 0.0012946203
  Final line search alpha, max atom move = 0 0
  Iterations, force evaluations = 59 59

MPI task timing breakdown:
Section |  min time  |  avg time  |  max time  |%varavg| %total
---------------------------------------------------------------
Pair    | 0.012579   | 0.012579   | 0.012579   |   0.0 | 82.09
Neigh   | 0          | 0          | 0          |   0.0 |  0.00
Comm    | 0.00022983 | 0.00022983 | 0.00022983 |   0.0 |  1.50
Output  | 0          | 0          | 0          |   0.0 |  0.00
Modify  | 0.0015526  | 0.0015526  | 0.0015526  |   0.0 | 10.13
Other   |            | 0.0009612  |            |       |  6.27

Nlocal:            511 ave         511 max         511 min
Histogram: 1 0 0 0 0 0 0 0 0 0
Nghost:           1451 ave        1451 max        1451 min
Histogram: 1 0 0 0 0 0 0 0 0 0
Neighs:              0 ave           0 max           0 min
Histogram: 1 0 0 0 0 0 0 0 0 0
FullNghs:        17376 ave       17376 max       17376 min
Histogram: 1 0 0 0 0 0 0 0 0 0

Total # of neighbors = 17376
Ave neighs/atom = 34.003914
Neighbor list builds = 0
Dangerous builds = 0
Setting up quickmin style minimization ...
  Unit style    : metal
  Current step  : 59
Per MPI rank memory allocation (min/avg/max) = 5.517 | 5.517 | 5.517 Mbytes
   Step          Temp          E_pair         E_mol          TotEng         Press     
        59   0             -2212.8272      0             -2212.8272     -3541.2063    
        63   0.000517481   -2212.8272      0             -2212.8272     -3540.8628    
Loop time of 0.00154258 on 1 procs for 4 steps with 511 atoms

96.8% CPU use with 1 MPI tasks x no OpenMP threads

Minimization stats:
  Stopping criterion = force tolerance
  Energy initial, next-to-last, final = 
     -2212.82721998453  -2212.82722449906  -2212.82723068089
  Force two-norm initial, final = 0.012040883 0.0091523009
  Force max component initial, final = 0.0031505689 0.0016692731
  Final line search alpha, max atom move = 0 0
  Iterations, force evaluations = 4 4

MPI task timing breakdown:
Section |  min time  |  avg time  |  max time  |%varavg| %total
---------------------------------------------------------------
Pair    | 0.0010668  | 0.0010668  | 0.0010668  |   0.0 | 69.16
Neigh   | 0          | 0          | 0          |   0.0 |  0.00
Comm    | 1.8708e-05 | 1.8708e-05 | 1.8708e-05 |   0.0 |  1.21
Output  | 0          | 0          | 0          |   0.0 |  0.00
Modify  | 8.4333e-05 | 8.4333e-05 | 8.4333e-05 |   0.0 |  5.47
Other   |            | 0.0003727  |            |       | 24.16

Nlocal:            511 ave         511 max         511 min
Histogram: 1 0 0 0 0 0 0 0 0 0
Nghost:           1451 ave        1451 max        1451 min
Histogram: 1 0 0 0 0 0 0 0 0 0
Neighs:              0 ave           0 max           0 min
Histogram: 1 0 0 0 0 0 0 0 0 0
FullNghs:        17376 ave       17376 max       17376 min
Histogram: 1 0 0 0 0 0 0 0 0 0

Total # of neighbors = 17376
Ave neighs/atom = 34.003914
Neighbor list builds = 0
Dangerous builds = 0
Total wall time: 0:00:00
