ITEM: TIMESTEP
0
ITEM: NUMBER OF ATOMS
12
ITEM: BOX BOUNDS xy xz yz pp pp pp
-8.8344296827430302e-01 5.1364755065543157e+00 0.0000000000000000e+00
0.0000000000000000e+00 5.1934133375444702e+00 -8.8344296827430302e-01
0.0000000000000000e+00 5.2461598045212767e+00 0.0000000000000000e+00
ITEM: ATOMS id type x y z fx fy fz
   1 1    0.7764329051189616    2.3883770147399264    3.7428982040525338    0.5751473242415712   -0.3595561333774326   -0.1690783814915773
   2 1    3.0348766520490256    4.9850835322431557    4.1263398582187962   -0.5751765189413340   -0.3595812519804798    0.1690539530580575
   3 1    3.4910768019674823    2.8065776567824425    1.5916077290637045   -0.3656238174667329    0.1488591286850330   -0.3779263609052871
   4 1    1.2036761445451210    0.2098716822620063    1.0314687018951281    0.3656115207864787    0.1488452364182324    0.3779587106059731
   5 2    2.1492114253142827    3.7241850774385554    0.1044883847109566   -0.0350075383809967    0.0343698495983980   -0.0588841269656518
   6 2    2.5455433778154823    1.1274774029709032    2.5185876617026355    0.0349919410854975    0.0343685392943558    0.0588968167602733
   7 2    1.8385141361850152    1.2005062654667178    5.1735206504322759    0.0886692920893510    0.0508950184825658   -0.3573438279341584
   8 2    1.9727932413204652    3.7972119709564534    2.6957181019210248   -0.0886391536061416    0.0508869542872960    0.3573228135400017
   9 2    0.1678241865379509    1.8647735935530811    1.7995933399932018    0.1386526049555439   -0.2407545436704939   -0.2937980329855305
  10 2    4.5269298859061049    4.4614792247269301    0.8234838345655081   -0.1386531505891532   -0.2407483708139734    0.2937931417161630
  11 2    4.3604722608218243    3.5801789380672537    3.3985707457352015    0.1226173282397890    0.3661913273565323    0.2917514876191636
  12 2   -0.5491644433982625    0.9834713975527660    4.4706659717857127   -0.1225898324138721    0.3662242457199665   -0.2917461930174357
