ITEM: TIMESTEP
0
ITEM: NUMBER OF ATOMS
12
ITEM: BOX BOUNDS xy xz yz pp pp pp
-8.8344296827430302e-01 5.1364755065543157e+00 0.0000000000000000e+00
0.0000000000000000e+00 5.1934133375444702e+00 -8.8344296827430302e-01
0.0000000000000000e+00 5.2461598045212767e+00 0.0000000000000000e+00
ITEM: ATOMS id type x y z fx fy fz
   1 1    0.8593385360336055    2.4818667256850602    3.7440610006340314   -3.1715724685931015   -2.2528346070869345   -1.9381467537099204
   2 1    2.9615460641892364    4.9291583155843925    4.1692029212820296    2.6933218798396736    1.9511876463475744   -0.7532432321559289
   3 1    3.4162893383785011    2.8593328300198757    1.4938006435711619    1.2105204171870039   -2.8563989588333012    1.1547650707457062
   4 1    1.3144549673919341    0.1203256369757257    1.0694650622837465   -3.4791530767490930    2.4666458207708040    1.0164061452311350
   5 2    1.4705212072535616    4.0382056436832690    5.1617598566561016   -0.0051196522210559   -2.1917465654479988   -0.3378350110966168
   6 2    2.4132808560061703    1.1971292329517980    2.4174286905349653    0.2018097904229460   -0.5187323362366026    1.8122608611043445
   7 2    1.6946168769700933    1.3180104806283774    5.0748892996681496    6.3834876156263345    0.1280909966657880    2.6561892027776244
   8 2    1.6813763943156870    3.7753796636769956    2.5008778657841377    3.1077798050075125    1.0903840863005099   -0.1870015460892338
   9 2   -0.0542306585359328    1.6658267985527959    1.9122781074114572   -0.6028978130517726    1.1528378167731361    0.2062843841553998
  10 2    4.4242020526722250    4.4122793707263961    1.0444358234124103    1.1943519336301591    1.4885378611638778   -1.6235295089946629
  11 2    4.2186728131115130    3.4111248368282512    3.7155274528435354   -1.5845353465099459    1.5082316304120247   -1.1241055235930204
  12 2   -0.2281005161463138    0.9126972581022204    4.5796884986439261   -5.9479930845886564   -1.9662033908288767   -0.8820440883748325
