ITEM: TIMESTEP
0
ITEM: NUMBER OF ATOMS
12
ITEM: BOX BOUNDS xy xz yz pp pp pp
-8.8344296827430302e-01 5.1364755065543157e+00 0.0000000000000000e+00
0.0000000000000000e+00 5.1934133375444702e+00 -8.8344296827430302e-01
0.0000000000000000e+00 5.2461598045212767e+00 0.0000000000000000e+00
ITEM: ATOMS id type x y z fx fy fz
   1 1    0.7929680599999999    2.3789195900000006    3.7137930099999998   -0.0274637886803268   -0.1339493465954811    0.0865766072283091
   2 1    3.0183409399999994    4.9756267799999998    4.1554425899999998    0.0274640627462506   -0.1339509225348831   -0.0865275163654137
   3 1    3.4600634499999998    2.8144947700000000    1.5323642200000001    0.0274573469588069    0.1339504384886140   -0.0865751030537187
   4 1    1.2346900599999999    0.2177875900000001    1.0907146500000000   -0.0274626161201912    0.1339503675257725    0.0865264315371509
   5 2    1.4366105600000001    3.8562449400000003    5.1337742300000002    0.0924190586051227    0.2892948283056530    0.2739780649364181
   6 2    2.3746984400000000    1.2595377600000000    2.7354618800000003   -0.0924099824030656    0.2893005611712919   -0.2739663075629242
   7 2    2.8164204399999999    1.3371694199999999    0.1123830000000000   -0.0924182402622372   -0.2892947336715853   -0.2739779078553887
   8 2    1.8783325600000000    3.9338766100000004    2.5106953600000006    0.0924106393772391   -0.2893010248304961    0.2739658853055913
   9 2    0.0452384800000000    1.7177678800000002    1.8164965900000003   -0.2842233025627441    0.1850362140959856   -0.0115092004006371
  10 2    4.6495150299999999    4.3144750600000004    0.8065822900000003    0.2842101415006710    0.1850238524084513    0.0114847643158800
  11 2    4.2077925200000008    3.4756464900000004    3.4296606500000006    0.2842254159883458   -0.1850377882499996    0.0115095429538172
  12 2   -0.3964840300000001    0.8789393100000001    4.4395749500000017   -0.2842087351478662   -0.1850224461133227   -0.0114852610390810
