ITEM: TIMESTEP
0
ITEM: NUMBER OF ATOMS
12
ITEM: BOX BOUNDS xy xz yz pp pp pp
-8.8344296827430302e-01 5.1364755065543157e+00 0.0000000000000000e+00
0.0000000000000000e+00 5.1934133375444702e+00 -8.8344296827430302e-01
0.0000000000000000e+00 5.2461598045212767e+00 0.0000000000000000e+00
ITEM: ATOMS id type x y z fx fy fz
   1 1    0.8114266159346939    2.4835718827186311    3.8438924830321231   -0.1636839076003813    0.0766815345094201   -0.4508460293668548
   2 1    3.1101897652614934    5.0944273829270141    4.3730349692360120   -0.0348982508885936   -1.2735280823872963   -0.9280066869739624
   3 1    3.4151994434556396    2.8455531420291420    1.7291051341951915    1.6661406909563425    0.7933650070041184    0.4538258014816008
   4 1    1.3267007159260120    0.2967265559961689    1.1995399780478115   -1.2768774854699694   -0.1464995436976457    0.3040811635452151
   5 2    2.2657606295328754    3.7658011471349528    0.2758793712047518   -0.9310591218568713    0.4581214020038051   -0.2293493778622212
   6 2    2.5162045081046509    1.2123057661495238    2.6727500915702578    0.5682893252806956    0.8197063676689211    0.0416048146850683
   7 2    2.7832198522037106    1.2878316419029965    0.0312407853439306   -0.1527021681028085    0.2711322641008226    0.4493660619184845
   8 2    1.9917456623968981    3.9800068188552444    2.8965835028208211    0.1233588468034209   -0.5832706485533012   -0.2689333951620842
   9 2    0.1959665214717755    1.9565281032763637    1.9168140006538021   -0.0398342483046523   -0.1470249212619787   -0.2965119621429261
  10 2    4.6146967319221739    4.5328076000792610    0.9715936647682260    0.1622878628227987   -0.1541621384316299    0.4513146303421073
  11 2    4.3890967129369738    3.7113536892518195    3.5037167644377964    0.4539202918956527   -0.3611582966973892    0.6588259134682277
  12 2   -0.4691733090969371    1.0993906191636484    4.5983910930927028   -0.3749418355356289    0.2466370557421578   -0.1853709339326595
