ITEM: TIMESTEP
0
ITEM: NUMBER OF ATOMS
12
ITEM: BOX BOUNDS xy xz yz pp pp pp
-8.8344296827430302e-01 5.1364755065543157e+00 0.0000000000000000e+00
0.0000000000000000e+00 5.1934133375444702e+00 -8.8344296827430302e-01
0.0000000000000000e+00 5.2461598045212767e+00 0.0000000000000000e+00
ITEM: ATOMS id type x y z fx fy fz
   1 1    0.7938307948975004    2.3803246870214458    3.7139691990125794   -0.0347127821418161   -0.1691512191097155    0.0673786618765035
   2 1    3.0176599609407884    4.9747707956448028    4.1554191858795075    0.0716647556575034   -0.0778055064591701   -0.0869621031658024
   3 1    3.4593824651084586    2.8153507534342785    1.5323408079672416    0.0716580256610179    0.0778053040015684   -0.0870090614536825
   4 1    1.2355527938313497    0.2163824934908110    1.0908908249340694   -0.0347117339322227    0.1691520796509720    0.0673286576758613
   5 2    1.4355345631413823    3.8591101942142210    5.1338479534221708    0.1219334892157195    0.2828124337034559    0.2848901647611656
   6 2    2.3714372624854714    1.2576715903824243    2.7299586790952630   -0.0297363868666239    0.2662600174984991   -0.2343876437710254
   7 2    2.8131592334048383    1.3390356071084228    0.1068797684727146   -0.0297447966485640   -0.2662540764812679   -0.2343989289920325
   8 2    1.8772565372407710    3.9310113512754739    2.5107691727998400    0.1219252535339305   -0.2828183930975983    0.2848767823934935
   9 2    0.0477598378294081    1.7150457420919332    1.8173483773771215   -0.3776628876888726    0.2603581131465464   -0.0156872346508971
  10 2    4.6493032082798074    4.3156323446263469    0.8094554957856770    0.2485106150338841    0.1705595008159004   -0.0151936007731709
  11 2    4.2075807013224384    3.4744891662763910    3.4325339272895272    0.2485256187103247   -0.1705732077917221   -0.0151704968719911
  12 2   -0.3939626292734266    0.8816614785838668    4.4404268624973717   -0.3776491705342755   -0.2603450458774663   -0.0156651970284197
