ITEM: TIMESTEP
0
ITEM: NUMBER OF ATOMS
12
ITEM: BOX BOUNDS xy xz yz pp pp pp
-8.8344296827430302e-01 5.1364755065543157e+00 0.0000000000000000e+00
0.0000000000000000e+00 5.1934133375444702e+00 -8.8344296827430302e-01
0.0000000000000000e+00 5.2461598045212767e+00 0.0000000000000000e+00
ITEM: ATOMS id type x y z fx fy fz
   1 1    0.7925212375170544    2.3511437087037672    3.6888717112999982    0.1002926694240172    0.0410388768483010   -0.0807894044436906
   2 1    3.0187892910784191    4.9478501685963394    4.1803651687777945   -0.1003054784633824    0.0410354791283104    0.0808074280839723
   3 1    3.4605008972428095    2.8422412505637622    1.5572985639497283   -0.0991724697569572   -0.0426049078580916    0.0817027792991871
   4 1    1.2342510233944157    0.2455348090348969    1.0657790955786655    0.0991852309572003   -0.0426027662724451   -0.0817221627336765
   5 2    2.3196989686594236    3.8575810850846093    0.0586526054288639   -0.2268715330582585    0.1026725037357342   -0.1040389900942482
   6 2    2.3750522989413492    1.2608748538166852    2.5644240293655485    0.2268912159574432    0.1026702371312714    0.1040517908239758
   7 2    1.9313949896272038    1.3344542790768879    5.1874545055647205    0.2256388553288618   -0.1050453537336663    0.1060104778641234
   8 2    1.8799155313090397    3.9311609928584272    2.6817835764986602   -0.2256537488181098   -0.1050418473622984   -0.1060223079390723
   9 2    0.0154102333459143    1.7514034902732911    1.7838279150914595   -0.0416849130872614   -0.2590696803841990    0.0464094662327963
  10 2    4.6793444561160058    4.3481087712246218    0.8392492916554000    0.0416641738016792   -0.2590684698684718   -0.0464149074750278
  11 2    4.2397050513685457    3.4437177352273571    3.4618367199484510    0.0437086338634522    0.2630099859588527   -0.0468504740502854
  12 2   -0.4283968514414240    0.8470121625254756    4.4073995299177966   -0.0436926361486809    0.2630059426767049    0.0468563044319454
