(written by ASE)

12 atoms
2 atom types

0.0      5.1364755065543157  xlo xhi
0.0      5.1934133375444702  ylo yhi
0.0      5.2461598045212767  zlo zhi
                      0    -0.88344296827430302                       0  xy xz yz

Masses

     1      178.48999995408445 # Hf
     2      15.998999995884349 # O

Atoms # atomic

   1   1       0.7764329051189616  2.3883770147399264  3.742898204052534
   2   1       3.034876652049026  4.985083532243156  4.126339858218796
   3   1       3.4910768019674827  2.8065776567824425  1.5916077290637045
   4   1       1.2036761445451207  0.20987168226200625  1.031468701895128
   5   2       2.1492114253142827  3.724185077438555  0.10448838471095664
   6   2       2.5455433778154823  1.1274774029709032  2.5185876617026355
   7   2       1.8385141361850152  1.2005062654667178  5.173520650432276
   8   2       1.9727932413204652  3.797211970956453  2.695718101921025
   9   2       0.16782418653795092  1.864773593553081  1.7995933399932018
  10   2       4.526929885906105  4.46147922472693  0.823483834565508
  11   2       4.360472260821824  3.5801789380672537  3.3985707457352015
  12   2       -0.5491644433982622  0.983471397552766  4.470665971785713
