(written by ASE)

12 atoms
2 atom types

0.0      5.1364755065543157  xlo xhi
0.0      5.1934133375444702  ylo yhi
0.0      5.2461598045212767  zlo zhi
                      0    -0.88344296827430302                       0  xy xz yz

Masses

     1      178.48999995408445 # Hf
     2      15.998999995884349 # O

Atoms # atomic

   1   1     0.79296806  2.3789195900000006  3.71379301
   2   1     3.01834094  4.97562678  4.15544259
   3   1     3.46006345  2.81449477  1.53236422
   4   1     1.23469006  0.21778759000000003  1.09071465
   5   2     1.43661056  3.85624494  5.13377423
   6   2     2.37469844  1.25953776  2.7354618800000003
   7   2     2.81642044  1.33716942  0.112383
   8   2     1.87833256  3.93387661  2.5106953600000006
   9   2     0.04523848  1.7177678800000002  1.8164965900000003
  10   2     4.64951503  4.31447506  0.8065822900000001
  11   2     4.20779252  3.47564649  3.4296606500000006
  12   2     -0.39648403  0.87893931  4.439574950000001
