(written by ASE)

12 atoms
2 atom types

0.0      5.1364755065543157  xlo xhi
0.0      5.1934133375444702  ylo yhi
0.0      5.2461598045212767  zlo zhi
                      0    -0.88344296827430302                       0  xy xz yz

Masses

     1      178.48999995408445 # Hf
     2      15.998999995884349 # O

Atoms # atomic

   1   1   0.8593385360336057  2.48186672568506  3.74406100063403
   2   1   2.9615460641892364  4.9291583155843925  4.169202921282029
   3   1   3.4162893383784994  2.8593328300198753  1.493800643571162
   4   1   1.314454967391934  0.12032563697572568  1.0694650622837465
   5   2   1.4705212072535612  4.038205643683269  5.161759856656102
   6   2   2.4132808560061703  1.197129232951798  2.4174286905349653
   7   2   1.694616876970093  1.3180104806283774  5.07488929966815
   8   2   1.6813763943156868  3.775379663676995  2.5008778657841377
   9   2   -0.05423065853593262  1.665826798552796  1.912278107411457
  10   2   4.424202052672225  4.412279370726396  1.0444358234124103
  11   2   4.218672813111513  3.411124836828251  3.7155274528435345
  12   2   -0.22810051614631344  0.9126972581022202  4.579688498643926
