(written by ASE)

12 atoms
2 atom types

0.0      5.1364755065543157  xlo xhi
0.0      5.1934133375444702  ylo yhi
0.0      5.2461598045212767  zlo zhi
                      0    -0.88344296827430302                       0  xy xz yz

Masses

     1      178.48999995408445 # Hf
     2      15.998999995884349 # O

Atoms # atomic

   1   1    0.7938307948975005  2.380324687021446  3.7139691990125785
   2   1    3.0176599609407893  4.974770795644803  4.1554191858795075
   3   1    3.4593824651084586  2.815350753434279  1.5323408079672411
   4   1    1.2355527938313497  0.21638249349081096  1.0908908249340694
   5   2    1.4355345631413818  3.859110194214221  5.133847953422171
   6   2    2.371437262485471  1.2576715903824243  2.729958679095263
   7   2    2.8131592334048383  1.3390356071084228  0.10687976847271456
   8   2    1.8772565372407715  3.9310113512754734  2.51076917279984
   9   2    0.04775983782940811  1.7150457420919332  1.8173483773771215
  10   2    4.649303208279807  4.315632344626347  0.809455495785677
  11   2    4.207580701322438  3.474489166276391  3.432533927289527
  12   2    -0.39396262927342635  0.8816614785838667  4.440426862497372
