(written by ASE)

12 atoms
2 atom types

0.0      5.1364755065543157  xlo xhi
0.0      5.1934133375444702  ylo yhi
0.0      5.2461598045212767  zlo zhi
                      0    -0.88344296827430302                       0  xy xz yz

Masses

     1      178.48999995408445 # Hf
     2      15.998999995884349 # O

Atoms # atomic

   1   1      0.7925212375170543  2.351143708703767  3.6888717112999982
   2   1      3.018789291078419  4.947850168596339  4.180365168777794
   3   1      3.4605008972428095  2.842241250563762  1.5572985639497283
   4   1      1.2342510233944157  0.24553480903489688  1.0657790955786652
   5   2      2.3196989686594236  3.857581085084609  0.05865260542886391
   6   2      2.375052298941349  1.2608748538166852  2.564424029365548
   7   2      1.9313949896272038  1.3344542790768879  5.1874545055647205
   8   2      1.8799155313090397  3.9311609928584272  2.68178357649866
   9   2      0.015410233345914298  1.7514034902732911  1.7838279150914595
  10   2      4.679344456116006  4.348108771224622  0.8392492916554
  11   2      4.239705051368546  3.4437177352273567  3.46183671994845
  12   2      -0.42839685144142403  0.8470121625254756  4.407399529917797
