(written by ASE)

12 atoms
2 atom types

0.0      5.1364755065543157  xlo xhi
0.0      5.1934133375444702  ylo yhi
0.0      5.2461598045212767  zlo zhi
                      0    -0.88344296827430302                       0  xy xz yz

Masses

     1      178.48999995408445 # Hf
     2      15.998999995884349 # O

Atoms # atomic

   1   1       0.8114266159346938  2.483571882718631  3.843892483032122
   2   1       3.1101897652614934  5.094427382927014  4.373034969236012
   3   1       3.4151994434556396  2.845553142029142  1.7291051341951915
   4   1       1.326700715926012  0.29672655599616893  1.1995399780478113
   5   2       2.265760629532875  3.765801147134953  0.2758793712047517
   6   2       2.516204508104651  1.2123057661495238  2.672750091570257
   7   2       2.7832198522037106  1.2878316419029965  0.031240785343930547
   8   2       1.9917456623968974  3.9800068188552444  2.896583502820821
   9   2       0.19596652147177554  1.9565281032763637  1.916814000653802
  10   2       4.614696731922173  4.532807600079261  0.9715936647682257
  11   2       4.389096712936973  3.7113536892518195  3.503716764437796
  12   2       -0.46917330909693716  1.0993906191636484  4.598391093092703
