ITEM: TIMESTEP
0
ITEM: NUMBER OF ATOMS
12
ITEM: BOX BOUNDS xy xz yz pp pp pp
-8.8344296827430302e-01 5.1364755065543157e+00 0.0000000000000000e+00
0.0000000000000000e+00 5.1934133375444702e+00 -8.8344296827430302e-01
0.0000000000000000e+00 5.2461598045212767e+00 0.0000000000000000e+00
ITEM: ATOMS id type x y z fx fy fz
   1 1    0.7929680599999999    2.3789195900000002    3.7137930099999998   -0.0274637886802638   -0.1339493465954549    0.0865766072282806
   2 1    3.0183409399999994    4.9756267799999998    4.1554425899999998    0.0274640627462443   -0.1339509225348836   -0.0865275163654185
   3 1    3.4600634499999998    2.8144947700000000    1.5323642200000001    0.0274573469588166    0.1339504384886354   -0.0865751030537278
   4 1    1.2346900599999999    0.2177875900000000    1.0907146500000000   -0.0274626161201987    0.1339503675258475    0.0865264315371838
   5 2    1.4366105600000001    3.8562449400000003    5.1337742300000002    0.0924190586051178    0.2892948283056221    0.2739780649364108
   6 2    2.3746984400000013    1.2595377600000000    2.7354618799999999   -0.0924099824031156    0.2893005611712743   -0.2739663075629122
   7 2    2.8164204399999999    1.3371694199999999    0.1123830000000000   -0.0924182402622725   -0.2892947336716238   -0.2739779078554145
   8 2    1.8783325600000000    3.9338766100000004    2.5106953600000006    0.0924106393772275   -0.2893010248305086    0.2739658853056292
   9 2    0.0452384800000002    1.7177678800000000    1.8164965900000001   -0.2842233025627419    0.1850362140959758   -0.0115092004006533
  10 2    4.6495150299999999    4.3144750600000004    0.8065822900000003    0.2842101415006428    0.1850238524084562    0.0114847643158436
  11 2    4.2077925199999999    3.4756464900000004    3.4296606500000002    0.2842254159883906   -0.1850377882499801    0.0115095429538441
  12 2   -0.3964840300000000    0.8789393100000001    4.4395749499999999   -0.2842087351478448   -0.1850224461133543   -0.0114852610390638
ITEM: TIMESTEP
50
ITEM: NUMBER OF ATOMS
12
ITEM: BOX BOUNDS xy xz yz pp pp pp
-8.8344296827430302e-01 5.1364755065543157e+00 0.0000000000000000e+00
0.0000000000000000e+00 5.1934133375444702e+00 -8.8344296827430302e-01
0.0000000000000000e+00 5.2461598045212767e+00 0.0000000000000000e+00
ITEM: ATOMS id type x y z fx fy fz
   1 1    0.7797617882200722    2.3680407408896627    3.7392247159045646   -0.2863512457216588    0.2961368719412207   -0.8099062692588037
   2 1    3.0555758965251663    4.9612877647977962    4.1173696040207091    0.3929657128264914   -0.0400451215408410    1.3708535626829681
   3 1    3.4278075537446844    2.7770915699424616    1.5519752104466373    0.5518394215815898    1.6618337569256796   -0.3576524100320315
   4 1    1.2617949738965257    0.2748661122224322    1.0929453461856065   -1.0867319146301195   -1.2069331016670275   -0.4242604081383750
   5 2    2.0544172763471833    3.6277735133328104    0.1129710143147322    0.8913957489728193    0.6792242722466267    0.5344025464924397
   6 2    2.4411475234754940    1.3094043947422906    2.5766284057883753   -0.1141714719636665   -0.1031194954503830    0.1042021038562020
   7 2    2.7333237989895816    1.1905421994724334   -0.1337916822633520    0.6743805610867701   -0.5607620884402503    0.8596326750089903
   8 2    1.8844738874180551    4.0154388380234876    2.7191088560415384    0.2051300489465916   -0.5592272670772704   -0.4070491201017385
   9 2    0.0647792113115650    1.8183165928347347    1.6736521963805242    0.2511312911576420   -0.0377426259504086    0.8814580001851706
  10 2    4.5927386590282495    4.3954161992753669    0.8750065683241086   -0.5928048645472808    0.0361760962138923   -1.1093603447920319
  11 2    4.3508375917402224    3.5883576108932473    3.3962534147317718   -0.1609079973859146   -0.8147778735444610   -0.2669203597829400
  12 2   -0.4367567115790785    0.8902425078206222    4.4159976715890314   -0.7258752903232564    0.6492365763432244   -0.3753999761198552
ITEM: TIMESTEP
100
ITEM: NUMBER OF ATOMS
12
ITEM: BOX BOUNDS xy xz yz pp pp pp
-8.8344296827430302e-01 5.1364755065543157e+00 0.0000000000000000e+00
0.0000000000000000e+00 5.1934133375444702e+00 -8.8344296827430302e-01
0.0000000000000000e+00 5.2461598045212767e+00 0.0000000000000000e+00
ITEM: ATOMS id type x y z fx fy fz
   1 1    0.7745914318711029    2.3697210909376736    3.7235579379194399   -0.0236445340367468   -0.7715173584387995   -0.5772825446564420
   2 1    3.0927614604810247    4.9358302502821063    4.1634597923398120   -1.5281049807003224    0.5186225059579452   -0.2258705608492137
   3 1    3.4642915346936372    2.8660920632772879    1.5610325384146386   -0.1442681772178610   -1.1762572767687269    0.2093174515820526
   4 1    1.1850095752657364    0.2195318135186927    1.0674062657964793    1.1128949272279147    1.0669099995244236    0.2412131491114142
   5 2    2.1173667755255834    3.6337386315101132    0.0239197851528254    0.5063498984204148    0.4104435736451538    1.5213817116282748
   6 2    2.5492083888961075    1.1244115580365941    2.4795682613000074    0.0238986532411787   -0.0254986579928015   -0.0561629274111625
   7 2    1.7541809184950599    1.0713521203166774    5.1095748688825058    0.0052412449208939    0.3736084079390433   -0.0897232789287800
   8 2    2.0130877739315407    3.7870433795392970    2.7385240575131378   -0.8939960428946646    0.4759381174176540   -0.4778453066909452
   9 2    0.2040286674448877    1.9039522923743899    1.7402080491890402   -0.1765431043495980   -0.3784130477904282    0.0386630507059467
  10 2    4.6381706863786709    4.3848067141956273    0.8433703127779520   -1.3878835447248175    0.2733271686237538   -0.4461102249421068
  11 2    4.3625953931267576    3.6497502987489052    3.3461138428593902    1.1308858626650882   -0.3316459133474029    0.0115778042785861
  12 2   -0.7446767053474223    1.1701116542312762    4.4451694430973445    1.3751697974485109   -0.4355175187698133   -0.1491583238276247
ITEM: TIMESTEP
150
ITEM: NUMBER OF ATOMS
12
ITEM: BOX BOUNDS xy xz yz pp pp pp
-8.8344296827430302e-01 5.1364755065543157e+00 0.0000000000000000e+00
0.0000000000000000e+00 5.1934133375444702e+00 -8.8344296827430302e-01
0.0000000000000000e+00 5.2461598045212767e+00 0.0000000000000000e+00
ITEM: ATOMS id type x y z fx fy fz
   1 1    0.8129512690516730    2.3186778310122707    3.6446860545611983    0.0036008346766332    0.2704938660228913    2.5899897475090863
   2 1    2.9876817299273339    4.9641851513042861    4.1601033461199854    0.8770497231196694    0.9445656237341623    0.8399232931901435
   3 1    3.5089252295095377    2.8617158064443662    1.6155913252338476   -0.5586493797948814    0.1790591721797056   -0.4236989852616403
   4 1    1.1883879672974906    0.2110162819834191    1.0419183751452976    0.8005094864445677    0.7497155299015852   -0.9808088180673359
   5 2    2.1347389359199447    3.7546678950299586    0.1749404767838091    0.1904708576774511    0.7477560381444591    0.4067701738778188
   6 2    2.5123531216139288    1.1842846495401189    2.4941717658119669   -0.0363285917954251   -1.0967704144775430    0.2207985828875851
   7 2    1.9281310774843701    1.3134268903408366    5.1755372033032723   -0.8649921608167834   -0.8016113879161497   -0.4074036256616286
   8 2    2.0197477907895802    3.7379914546678461    2.8554890833635183   -0.0763965843841002    0.8449174934844401   -1.3419914556205295
   9 2    0.1408458953849722    1.9000842244780782    1.8520688564056387   -0.0499008328724266   -0.6849030089766317   -2.0325605653480308
  10 2    4.4630232133546679    4.6006322511248241    0.8832805517517085    0.1285078658395867   -1.0539595335628307    0.1337578662300003
  11 2    4.4257817671236976    3.6419363180142272    3.4692040193148963   -0.0158138062526614    0.0696800978429873   -0.1967009584394993
  12 2   -0.5219495846543861    0.9890865551360538    4.4147981222134103   -0.3980574118416289   -0.1689434763770707    1.1919247447040329
ITEM: TIMESTEP
200
ITEM: NUMBER OF ATOMS
12
ITEM: BOX BOUNDS xy xz yz pp pp pp
-8.8344296827430302e-01 5.1364755065543157e+00 0.0000000000000000e+00
0.0000000000000000e+00 5.1934133375444702e+00 -8.8344296827430302e-01
0.0000000000000000e+00 5.2461598045212767e+00 0.0000000000000000e+00
ITEM: ATOMS id type x y z fx fy fz
   1 1    0.8084214513388399    2.3119360676840612    3.6916982071366036   -0.3548101480463361    0.7375021777059607   -0.4545602831100508
   2 1    2.9316945112029993    5.0150237229737202    4.2144928729922553    1.1831399439866410   -1.9572750199464888   -1.8916195981605124
   3 1    3.5029965523378737    2.8567672668305137    1.6355445792651582    0.4163009528216409    0.1522949735535287    0.2055695254581147
   4 1    1.2497102317914204    0.2425316387208718    0.9734010459885115   -1.0305766345153407   -0.4782074705173782    1.1866843297618124
   5 2    2.4858662057028309    3.7511952013552388   -0.0154368420210050   -1.3482807437097009    0.4670805846211907    0.5903717569279724
   6 2    2.4497326201404914    1.1160386077750395    2.5271739221389269   -0.3530419889030613    0.2368729338046982   -0.0655505971418163
   7 2    1.8746016153175122    1.2918065268250489    5.2331081228175220    0.4374016207075768    0.0049513837701153   -0.1116348013018896
   8 2    1.7977003220504884    3.7730765848432175    2.5964290861590014    1.0036264789762330    0.6461920229691848    0.1765797864456662
   9 2    0.0201132564183673    1.6841601118915173    1.8821907517819263    0.1203391764336446   -0.2141771009111224   -2.0730047121727648
  10 2    4.7540980928738410    4.2814873343249902    0.7338671847982642    0.1955738878820352    0.1406395045188637    0.7886068354003249
  11 2    4.3329109357302578    3.5225756467293263    3.4534059994935369   -0.7195391025061740    0.1012321163483017   -0.0114333889911415
  12 2   -0.5551919817565218    0.9134240461253467    4.3192785119793973    0.4498665568728510    0.1628938940831461    1.6599911468842852
ITEM: TIMESTEP
250
ITEM: NUMBER OF ATOMS
12
ITEM: BOX BOUNDS xy xz yz pp pp pp
-8.8344296827430302e-01 5.1364755065543157e+00 0.0000000000000000e+00
0.0000000000000000e+00 5.1934133375444702e+00 -8.8344296827430302e-01
0.0000000000000000e+00 5.2461598045212767e+00 0.0000000000000000e+00
ITEM: ATOMS id type x y z fx fy fz
   1 1    0.7626002047297884    2.3736458902487478    3.6895233032569696    0.7840084129445231   -0.9689014028846543    0.4791994454915266
   2 1    3.0119980775128141    4.8987112857798145    4.1545224723408714    0.1528994738693068    1.2760425675992013    1.7321654631925205
   3 1    3.5002396978116348    2.8565539328311353    1.6058792782833897   -1.1173730914935112   -0.4047592278496061   -0.6580461411735229
   4 1    1.2479232581180821    0.2501911168208148    1.0352822941518258   -0.3990831072117058    0.6838294239639984    0.4426960506380213
   5 2    2.2424611525293487    3.9215500210230312    0.1131880524455902    1.1725252505228612   -1.2181669549241465   -0.1685889659980780
   6 2    2.2502462775728098    1.4559993744819295    2.6031544812426604    0.8540400438719817   -0.1880072873374001   -1.5205829134075863
   7 2    2.0004548653456089    1.3124029821569727    5.0643228689074373   -0.0322207577806369    0.3642104950326464    1.4607395181357341
   8 2    1.8315926458264244    4.1784765677679587    2.7217882927403614   -0.7747216930998145   -1.1822588845518318   -0.7484690097450144
   9 2   -0.0896708941685470    1.6465536759391421    1.8350904520758060   -0.6975529688647679   -0.4988488506770681   -0.5096920303154656
  10 2    4.7405805787562603    4.2113519322773874    0.8749252219772244    0.5943584697747096    0.7855894702834547   -0.7025687291675644
  11 2    4.2239317826573863    3.3930554372556294    3.4884513000306274   -0.9155047397658836    0.6335694149671749   -0.2831717254400299
  12 2   -0.3737688015111592    0.7404668513078068    4.3629976236568213    0.3786247072329383    0.7177012363782329    0.4763190377894538
ITEM: TIMESTEP
300
ITEM: NUMBER OF ATOMS
12
ITEM: BOX BOUNDS xy xz yz pp pp pp
-8.8344296827430302e-01 5.1364755065543157e+00 0.0000000000000000e+00
0.0000000000000000e+00 5.1934133375444702e+00 -8.8344296827430302e-01
0.0000000000000000e+00 5.2461598045212767e+00 0.0000000000000000e+00
ITEM: ATOMS id type x y z fx fy fz
   1 1    0.7918331140588436    2.3667276581299745    3.7057967005219825   -0.8661760872665547    0.9055132501949756    0.4619876384617460
   2 1    3.0970623701696138    4.9079493490242179    4.2095594380772159   -0.8435368991188710   -0.0499444624960717   -0.3813171924613514
   3 1    3.4517326702155944    2.8243543379716778    1.4554357000539095   -0.1020908517149767   -0.7015013174350323    0.1941789965012729
   4 1    1.2270910081390689    0.3051345559322509    1.1395408629835095   -0.3164313591845604   -1.7733388737251192   -1.0092620314837881
   5 2    1.5342961719678949    3.9137371551079614    5.1878145243680684   -0.7995882303544806   -0.5433267528923202    1.8782010682350969
   6 2    2.1283441145718598    1.4672843115192942    2.5621133349996414    1.7169250902523985    0.4564599622157702   -1.2998927781364149
   7 2    2.1110870810284359    1.3466724492277689    5.1162329381721987   -1.2643145759104597    0.8743216144961439    0.5887410682236555
   8 2    1.5333797429335845    4.1996104855534240    2.7835657945208947    0.6532112605870892   -0.3094975888757507   -0.9799331598155385
   9 2   -0.2139161043145121    1.5016757641406286    1.7440290365089921   -0.6055808799707783    0.3894114323946654    1.1698646249347435
  10 2    4.8019511339003875    4.1130803523873007    0.7441565171785186    0.6893588641662480    0.8478424310645806    0.5665789649165027
  11 2    3.9236889468474159    3.2370689853334889    3.4204547986214746    0.6543573321915513    0.0497176853520607   -0.1185716614787026
  12 2   -0.3780115415248113    0.8011088991531691    4.4714046112754371    1.0838663363234025   -0.1456573802939025   -1.0705755378972301
ITEM: TIMESTEP
350
ITEM: NUMBER OF ATOMS
12
ITEM: BOX BOUNDS xy xz yz pp pp pp
-8.8344296827430302e-01 5.1364755065543157e+00 0.0000000000000000e+00
0.0000000000000000e+00 5.1934133375444702e+00 -8.8344296827430302e-01
0.0000000000000000e+00 5.2461598045212767e+00 0.0000000000000000e+00
ITEM: ATOMS id type x y z fx fy fz
   1 1    0.7585935620048462    2.4220139633132600    3.6898684480777226    1.1365604786472678   -0.9044705149864991   -0.1141639701349070
   2 1    3.0994515704329211    4.9378126403554612    4.2642307449352375    0.0558509936019807    0.5670595735962465   -1.0735042183654901
   3 1    3.4298562228068219    2.7712554535138745    1.3780850823240605   -0.0687463504468493    0.2366570946326487    2.5093880893314102
   4 1    1.1895949131809773    0.2496113047215865    1.1480087142773825    0.5786016019448512   -0.7024327055959323    0.0336775359213393
   5 2    2.4717502138691074    4.0445019511782343    0.0787945895392692   -1.5497787825311440   -0.5477818005676351    0.6923381187050017
   6 2    2.2170308295897332    1.4998864544943111    2.5110206165884699    0.5417182577218620   -0.6905700846118770   -0.4621870995272435
   7 2    2.1400013829825841    1.4722167942775475    5.1227563364322828   -0.0390054866625519    0.0308747524279466   -0.1703275800293511
   8 2    1.8678000686683731    4.0821882458693377    2.8099527693387922   -0.9890118413333338    0.3044397945983997   -1.3666295212873796
   9 2   -0.1821205860099985    1.5514516014619972    1.8061918853271288    0.0238020310306792   -0.1351807504407487    0.4125909425025776
  10 2    4.7625037235685843    4.1472399847518808    0.7720512924288329    1.6974526982081743    0.6423991099768597    1.5007277670915238
  11 2    4.2339217270834819    3.3712888404930768    3.5793395908453194   -1.6329720629208100    0.2284031520588119   -1.5786418147843333
  12 2   -0.1800691627007084    0.6733317411964900    4.4397530110729608    0.2455284627398724    0.9706023789117761   -0.3832682494231524
ITEM: TIMESTEP
400
ITEM: NUMBER OF ATOMS
12
ITEM: BOX BOUNDS xy xz yz pp pp pp
-8.8344296827430302e-01 5.1364755065543157e+00 0.0000000000000000e+00
0.0000000000000000e+00 5.1934133375444702e+00 -8.8344296827430302e-01
0.0000000000000000e+00 5.2461598045212767e+00 0.0000000000000000e+00
ITEM: ATOMS id type x y z fx fy fz
   1 1    0.7718513245956071    2.4368788319603567    3.6031778106996319   -0.0065781952580579   -0.9709622619401873    1.3751118279512982
   2 1    3.0764192970369737    4.9806952225910672    4.2158285397581157   -1.4433816954208563   -0.0551711700234473   -0.2097921278975519
   3 1    3.4285719311883831    2.7797467903925765    1.5541794577278374    0.9251784741587925    0.9812370429528730   -1.4832594322004979
   4 1    1.2418276491621365    0.1772153991106743    1.1419576411875674   -0.6425827012647320    0.3240863212529208   -1.4375418761276908
   5 2    2.3731703191268632    3.9811181004724108    0.0899896477012969   -0.2561321301868304    0.2964376857903375    0.5574565883405616
   6 2    2.3753812894930770    1.3840628440497911    2.4843641556835632   -0.9396070705238346   -0.5480239559352774   -0.0095667882481410
   7 2    2.0780480533481280    1.5505349553440972    5.0461183838296373   -0.1976374184553580   -0.6748643993344867    0.9127556246595625
   8 2    1.6596808592154679    4.0977729697118734    2.7604211002389545    0.1512568901359677   -0.3154386072571206   -0.9329667776933110
   9 2   -0.0144453722643324    1.6442260003512787    1.8366072237351727   -1.0788697704654480   -0.0927421110635951   -0.5318873093770210
  10 2    4.7277575805623036    4.1717804153301223    0.6398930848788883    1.6934024490682584    0.1183838892593758    2.8646545536977088
  11 2    4.0612398916567187    3.3254168713817576    3.4876806745145901   -0.1144948318244049   -0.0506882664320388   -1.3634119818782553
  12 2   -0.3893640959843362    0.7558842480658425    4.3848672284327197    1.9094460000365063    0.9877458327306399    0.2584476987733445
ITEM: TIMESTEP
450
ITEM: NUMBER OF ATOMS
12
ITEM: BOX BOUNDS xy xz yz pp pp pp
-8.8344296827430302e-01 5.1364755065543157e+00 0.0000000000000000e+00
0.0000000000000000e+00 5.1934133375444702e+00 -8.8344296827430302e-01
0.0000000000000000e+00 5.2461598045212767e+00 0.0000000000000000e+00
ITEM: ATOMS id type x y z fx fy fz
   1 1    0.7716445541277861    2.3397291049824296    3.6307360895233209   -0.6725425338376834   -0.0640999137533234    1.1365332423043626
   2 1    2.9816791651418959    5.0328671936219198    4.1751535710731913    0.3663304586545422   -0.6347080294938442    0.0262087987290724
   3 1    3.4777606444180962    2.8660299986479143    1.6068359855699204    0.7218933479929822   -0.8821426247596460    0.3870801793490490
   4 1    1.2589470056536538    0.2124251592042601    1.0261824893048288   -0.6405957906346451   -0.5351320669147404    0.6130240341400686
   5 2    2.5418792667534960    3.9301231679385507    0.1029164046380386   -1.0599369473339881    0.7215406244442165    0.4396622976856506
   6 2    2.1931914539051669    1.2318365833460376    2.6811204182119530    1.1811345927091521    0.0090730347977860   -1.4840850871110507
   7 2    2.0348439327285428    1.4659765911772684    5.2200196961484977    0.0564862871308607    0.0128734946591639    0.2152322351432317
   8 2    1.8061191159093504    3.9573919795768497    2.7789852717086037   -0.0671978988599032    0.0505482573808723   -0.7713801609406298
   9 2   -0.1780439851747767    1.4415528401110664    1.8972249524579967   -0.4086875460763388    0.9956679074121886   -0.6506477121937637
  10 2    4.9349495664468552    4.0448499518412158    0.9175332231119046    0.3033568996643113    0.2582069844834851    0.0607971417898914
  11 2    4.1455514678036778    3.3545144795899495    3.6254731693949060   -0.3813837349496698   -0.7821130973504855   -1.0755457328442406
  12 2   -0.2875182468273104    0.6309224430028615    4.3571740935978935    0.6011428655403721    0.8502854290943254    1.1031207639483598
ITEM: TIMESTEP
500
ITEM: NUMBER OF ATOMS
12
ITEM: BOX BOUNDS xy xz yz pp pp pp
-8.8344296827430302e-01 5.1364755065543157e+00 0.0000000000000000e+00
0.0000000000000000e+00 5.1934133375444702e+00 -8.8344296827430302e-01
0.0000000000000000e+00 5.2461598045212767e+00 0.0000000000000000e+00
ITEM: ATOMS id type x y z fx fy fz
   1 1    0.7548734876508612    2.2378333491660491    3.7221689558442526   -0.0278582860172953    2.0509919635278324   -2.0711065870940817
   2 1    2.9385125161754906    5.0061263721590645    4.1342009736930940    0.8675174076993263   -0.5735647479197624   -0.8893605724414899
   3 1    3.5487892121117586    2.8938164187856379    1.6086985602409809   -0.5013122277502533   -0.0243701829014586   -0.4830396150170169
   4 1    1.2271265646814864    0.2395666803821781    1.0389263691555968    1.0486850685946498    0.0177882448481101    0.1015020475189523
   5 2    2.5368365220413134    4.1102097159645989    0.1029845711302409   -0.9795544933513864   -0.6234331388796268    1.0496133210297731
   6 2    2.3658694031720389    1.2698237610228933    2.4597441607480373    0.4433825383197213   -0.3810156973190222    0.3134602943029797
   7 2    2.1063454767298064    1.5885953523804108    5.0222084365682624    0.4340122858724764   -0.4841291648048169    1.3036030198870410
   8 2    1.7810377520232370    3.8545209785109029    2.7559077837918755    0.0455709378320776    0.3493727772902502   -0.2957663246591692
   9 2    0.0338347904290089    1.6639121589938146    1.7772057049873626   -1.5128140694684657    0.5372973843766902    0.4897115844890109
  10 2    4.9150941021548755    4.2258196543977604    0.8616217100412621   -0.9735338231585497   -1.3134640432791949   -0.3276590989874797
  11 2    4.1239092656327809    3.3735582557588257    3.4898725066680578    0.2444972642348971    0.1280948044869668    0.2506607675947236
  12 2   -0.4406887683297444    0.7930454564570313    4.3847738928776421    0.9114073971928014    0.3164318005740356    0.5583811633767559
