ITEM: TIMESTEP
0
ITEM: NUMBER OF ATOMS
12
ITEM: BOX BOUNDS xy xz yz pp pp pp
-8.8344296827430302e-01 5.1364755065543157e+00 0.0000000000000000e+00
0.0000000000000000e+00 5.1934133375444702e+00 -8.8344296827430302e-01
0.0000000000000000e+00 5.2461598045212767e+00 0.0000000000000000e+00
ITEM: ATOMS id type xs ys zs
1 1      0.27613554845712    0.4580647515194298    0.7079069544925712
2 1    0.7238639169901822     0.958064851882665    0.7920922626906507
3 1    0.7238641669461136    0.5419354453560091    0.2920925547634612
4 1    0.2761356994510259   0.04193534691828968     0.207907248471538
5 2     0.447997467554713    0.7425260978405572    0.9785775541140742
6 2    0.5520020146128084    0.2425259994028378    0.5214217602831137
7 2    0.5520021485586477    0.2574740990348816   0.02142195514195839
8 2    0.4479976018284001     0.757474199398117    0.4785777508790751
9 2   0.06836067340024655    0.3307589379766542    0.3462526224295524
10 2    0.9316391933247404    0.8307590364143737     0.153747182711603
11 2    0.9316389430409616    0.6692412608243006    0.6537468887326363
12 2   0.06836042311646771    0.1692411623865812    0.8462523284505857
ITEM: TIMESTEP
1
ITEM: NUMBER OF ATOMS
12
ITEM: BOX BOUNDS xy xz yz pp pp pp
-8.8344296827430302e-01 5.1364755065543157e+00 0.0000000000000000e+00
0.0000000000000000e+00 5.1934133375444702e+00 -8.8344296827430302e-01
0.0000000000000000e+00 5.2461598045212767e+00 0.0000000000000000e+00
ITEM: ATOMS id type xs ys zs
1 1     0.276067785854672    0.4579835229103038    0.7078583287519781
2 1    0.7239785950789499    0.9580610091374587    0.7918662002681557
3 1    0.7237202011713102    0.5415972069392679    0.2922749499399883
4 1    0.2764065316175376   0.04232220322180245    0.2079786667121235
5 2    0.4473711731681923    0.7420418244460733    0.9794901705443863
6 2    0.5511661310791336    0.2430860910603475    0.5222207994509718
7 2    0.5530520258838745    0.2562274018249282    0.0207289843422444
8 2    0.4491568140712149    0.7580262338306347    0.4796098517994454
9 2   0.06922310982497669     0.331266256452918    0.3471511677064834
10 2    0.9287028776294507    0.8323206238177736    0.1521463285683545
11 2    0.9320298429952598    0.6684071442820455    0.6540610588287165
12 2   0.06735772414888981    0.1690319041955543     0.844822566895409
ITEM: TIMESTEP
2
ITEM: NUMBER OF ATOMS
12
ITEM: BOX BOUNDS xy xz yz pp pp pp
-8.8344296827430302e-01 5.1364755065543157e+00 0.0000000000000000e+00
0.0000000000000000e+00 5.1934133375444702e+00 -8.8344296827430302e-01
0.0000000000000000e+00 5.2461598045212767e+00 0.0000000000000000e+00
ITEM: ATOMS id type xs ys zs
1 1     0.276000169370767    0.4579010796686293    0.7078113921716604
2 1    0.7240929469456808    0.9580555364400638    0.7916393001618102
3 1    0.7235765080179433    0.5412607078093473    0.2924562883809876
4 1    0.2766766005990883   0.04270972989123754    0.2080503930926265
5 2    0.4467557983104405    0.7415886429098247    0.9804368525478648
6 2    0.5503172781217583     0.243679323242629    0.5229754492405768
7 2    0.5540780920026246    0.2549497825264897   0.02001364915746871
8 2    0.4503255759264364     0.758546667287345    0.4806616316809965
9 2   0.07004519227733225    0.3317934196806051    0.3480332644967401
10 2    0.9258187885065333    0.8338988271253296    0.1505685619028345
11 2    0.9324500447816453    0.6675578660253791    0.6543676185331314
12 2   0.06633764441562452    0.1688044899861355    0.8434056381982833
ITEM: TIMESTEP
3
ITEM: NUMBER OF ATOMS
12
ITEM: BOX BOUNDS xy xz yz pp pp pp
-8.8344296827430302e-01 5.1364755065543157e+00 0.0000000000000000e+00
0.0000000000000000e+00 5.1934133375444702e+00 -8.8344296827430302e-01
0.0000000000000000e+00 5.2461598045212767e+00 0.0000000000000000e+00
ITEM: ATOMS id type xs ys zs
1 1    0.2759329840598622    0.4578176024597617     0.707766965228075
2 1    0.7242065012863768    0.9580482226316485    0.7914115412202057
3 1    0.7234332278506622    0.5409262950433581    0.2926364094887462
4 1    0.2769453371745877   0.04309724187061479    0.2081218783069442
5 2    0.4461456363343833    0.7411637207376156    0.9814200387265188
6 2    0.5494591176864081    0.2443048863511059    0.5236729950479811
7 2    0.5550726555724892    0.2536446421077083   0.01928496292525235
8 2    0.4514972411826277    0.7590373134830388    0.4817213910476451
9 2    0.0708202448731399    0.3323384682775083    0.3488837424109577
10 2    0.9230051536404754    0.8354876546628318    0.1490361601931906
11 2    0.9328949372739223    0.6667000563022669     0.654657926165363
12 2    0.0653164878183068     0.168562778772857    0.8420150414792591
ITEM: TIMESTEP
4
ITEM: NUMBER OF ATOMS
12
ITEM: BOX BOUNDS xy xz yz pp pp pp
-8.8344296827430302e-01 5.1364755065543157e+00 0.0000000000000000e+00
0.0000000000000000e+00 5.1934133375444702e+00 -8.8344296827430302e-01
0.0000000000000000e+00 5.2461598045212767e+00 0.0000000000000000e+00
ITEM: ATOMS id type xs ys zs
1 1    0.2758665159558176    0.4577332725969901    0.7077258827717455
2 1    0.7243187831780029    0.9580388816028728    0.7911828343513535
3 1    0.7232905019400797    0.5405943157662746    0.2928151562942317
4 1    0.2772122281391901   0.04348409212351265    0.2081926100444458
5 2    0.4455347276021634    0.7407639245965285    0.9824419157863729
6 2    0.5485957008248395    0.2449615912313245    0.5243010884864908
7 2    0.5560279104182901    0.2523161002866202   0.01855167766061981
8 2    0.4526652894231141    0.7594997749892177    0.4827777364753092
9 2   0.07154171150959632    0.3328991934880302    0.3496876104909867
10 2    0.9202797123544466    0.8370800884124678    0.1475715745569911
11 2    0.9333596509793177    0.6658406329428935    0.6549237873907504
12 2   0.06431043253397369     0.168311079111822    0.8406634607803689
ITEM: TIMESTEP
5
ITEM: NUMBER OF ATOMS
12
ITEM: BOX BOUNDS xy xz yz pp pp pp
-8.8344296827430302e-01 5.1364755065543157e+00 0.0000000000000000e+00
0.0000000000000000e+00 5.1934133375444702e+00 -8.8344296827430302e-01
0.0000000000000000e+00 5.2461598045212767e+00 0.0000000000000000e+00
ITEM: ATOMS id type xs ys zs
1 1    0.2758010492596075    0.4576482715427751    0.7076889837822115
2 1    0.7244293219017908    0.9580273522026689    0.7909530332299635
3 1    0.7231484700913209     0.540265115248485    0.2929923749496828
4 1    0.2774768125886304   0.04386967018795232    0.2082621148256063
5 2    0.4449169780576837    0.7403858423795052    0.9835043094882575
6 2    0.5477314784999032    0.2456478451036149    0.5248479278338255
7 2    0.5569359762994414    0.2509689619165581   0.01782214329254237
8 2    0.4538233727569492    0.7599354327295352    0.4838197632119022
9 2   0.07220321647909694    0.3334732029905398    0.3504302803849847
10 2    0.9176596135628154    0.8386682316864916    0.1461970617645542
11 2    0.9338391140296602    0.6649867791805206    0.6551575954301283
12 2   0.06333531158691975    0.1680540478512908    0.8393626364382114
ITEM: TIMESTEP
6
ITEM: NUMBER OF ATOMS
12
ITEM: BOX BOUNDS xy xz yz pp pp pp
-8.8344296827430302e-01 5.1364755065543157e+00 0.0000000000000000e+00
0.0000000000000000e+00 5.1934133375444702e+00 -8.8344296827430302e-01
0.0000000000000000e+00 5.2461598045212767e+00 0.0000000000000000e+00
ITEM: ATOMS id type xs ys zs
1 1    0.2757368631079794    0.4575627803310477    0.7076571001071137
2 1    0.7245376607289014    0.9580134975169866    0.7907219486916207
3 1    0.7230072683782222    0.5399390352812715    0.2931679140490159
4 1    0.2777386770234322   0.04425340018727837    0.2083299589486496
5 2    0.4442862871714587    0.7400258010140022    0.9846085879098904
6 2    0.5468712974403737    0.2463616294328235    0.5253024315116054
7 2     0.557788949946101    0.2496086599312228   0.01710417123616657
8 2    0.4549653544247378    0.7603454557330084    0.4848372271049853
9 2   0.07279864702669259    0.3340579824786343    0.3510977839541247
10 2    0.9151612926023124    0.8402435007674687    0.1449342914086625
11 2    0.9343281086828137    0.6641459154504648      0.65535245242748
12 2   0.06240639029189407    0.1677965715410194    0.8381232687634617
ITEM: TIMESTEP
7
ITEM: NUMBER OF ATOMS
12
ITEM: BOX BOUNDS xy xz yz pp pp pp
-8.8344296827430302e-01 5.1364755065543157e+00 0.0000000000000000e+00
0.0000000000000000e+00 5.1934133375444702e+00 -8.8344296827430302e-01
0.0000000000000000e+00 5.2461598045212767e+00 0.0000000000000000e+00
ITEM: ATOMS id type xs ys zs
1 1    0.2756742279775366    0.4574769789256183    0.7076310444410671
2 1    0.7246433684299624    0.9579972035386828    0.7904893666431771
3 1    0.7228670270700922    0.5396164129926699    0.2933416236827662
4 1     0.277997449534195   0.04463473839165132    0.2083957487075162
5 2    0.4436366804422434    0.7396798848882797    0.9857555778079701
6 2    0.5460203800458573    0.2471004825008722    0.5256544026371809
7 2    0.5585789676345532    0.2482411759564578   0.01640490327863962
8 2    0.4560853397463688    0.7607308291111029    0.4858207037931789
9 2   0.07332225512172151    0.3346509526746874    0.3516769826025375
10 2    0.9128003229175498    0.8417968468091561    0.1438039328923729
11 2     0.934821335457883    0.6633256649158171    0.6555022724964134
12 2   0.06153814244574979    0.1675436348167599     0.836954952094612
ITEM: TIMESTEP
8
ITEM: NUMBER OF ATOMS
12
ITEM: BOX BOUNDS xy xz yz pp pp pp
-8.8344296827430302e-01 5.1364755065543157e+00 0.0000000000000000e+00
0.0000000000000000e+00 5.1934133375444702e+00 -8.8344296827430302e-01
0.0000000000000000e+00 5.2461598045212767e+00 0.0000000000000000e+00
ITEM: ATOMS id type xs ys zs
1 1    0.2756134018028126    0.4573910455460485    0.7076115978459113
2 1    0.7247460521027504    0.9579783773107959    0.7902550690185196
3 1    0.7227278688095191    0.5392975802212463    0.2935133541564624
4 1    0.2782527933251129     0.045013170421947    0.2084591300444187
5 2    0.4429624416174192    0.7393439591080501    0.9869454946291143
6 2     0.545184287743784    0.2478614896496171    0.5258946829434835
7 2    0.5592982792937438    0.2468729412450038   0.01573068674477532
8 2    0.4571777002864794    0.7610923971485904    0.4867617335322731
9 2   0.07376877380026541    0.3352495221463479     0.352155766615219
10 2    0.9105912416340578    0.8433189925510355    0.1428252280303781
11 2    0.9353134928112125    0.6625338126927264    0.6556018684142673
12 2    0.0607440276674847    0.1673001805344033    0.8358661358552597
ITEM: TIMESTEP
9
ITEM: NUMBER OF ATOMS
12
ITEM: BOX BOUNDS xy xz yz pp pp pp
-8.8344296827430302e-01 5.1364755065543157e+00 0.0000000000000000e+00
0.0000000000000000e+00 5.1934133375444702e+00 -8.8344296827430302e-01
0.0000000000000000e+00 5.2461598045212767e+00 0.0000000000000000e+00
ITEM: ATOMS id type xs ys zs
1 1     0.275554625914346    0.4573051560093737    0.7075994971513556
2 1    0.7248453707473705    0.9579569446831768    0.7900188569886758
3 1    0.7225899070689213    0.5389828635146641    0.2936829543330565
4 1     0.278504399824268    0.0453882081855486    0.2085197877947533
5 2    0.4422582401769812    0.7390137001390658    0.9881778865889362
6 2    0.5443688675550711    0.2486412840542711    0.5260152945561295
7 2    0.5599393331381813    0.2455107216958979   0.01508695710021586
8 2    0.4582370925861534    0.7614309176085586    0.4876529503457732
9 2   0.07413354242521231    0.3358511362726132    0.3525232428062635
10 2    0.9085473540202751    0.8448006698082715    0.1420155591413389
11 2    0.9357993757613359     0.661778258200121    0.6556470228781799
12 2   0.06003627358708891    0.1670709667967819    0.8348641084870398
ITEM: TIMESTEP
10
ITEM: NUMBER OF ATOMS
12
ITEM: BOX BOUNDS xy xz yz pp pp pp
-8.8344296827430302e-01 5.1364755065543157e+00 0.0000000000000000e+00
0.0000000000000000e+00 5.1934133375444702e+00 -8.8344296827430302e-01
0.0000000000000000e+00 5.2461598045212767e+00 0.0000000000000000e+00
ITEM: ATOMS id type xs ys zs
1 1    0.2754981209311441    0.4572194831508055    0.7075954226024542
2 1    0.7249410488754781    0.9579328478681468    0.7897805753290046
3 1    0.7224532448849152    0.5386725847701137    0.2938502695975204
4 1    0.2787519816162237   0.04575938663080744    0.2085774446693078
5 2    0.4415192500964189    0.7386846345206095    0.9894515930960394
6 2    0.5435801820427845     0.249436060429442    0.5260095682334396
7 2    0.5604948692147224    0.2441614912849586    0.0144781295434388
8 2    0.4592584731826083    0.7617471229090542    0.4884881943727186
9 2   0.07441263460582095    0.3364533223390923    0.3527699081470999
10 2    0.9066805273216636    0.8462328464333911    0.1413900270971698
11 2    0.9362739914858799    0.6610669594493912    0.6556345437785714
12 2   0.05942566817913424    0.1668604263765348    0.8339549999177119
ITEM: TIMESTEP
11
ITEM: NUMBER OF ATOMS
12
ITEM: BOX BOUNDS xy xz yz pp pp pp
-8.8344296827430302e-01 5.1364755065543157e+00 0.0000000000000000e+00
0.0000000000000000e+00 5.1934133375444702e+00 -8.8344296827430302e-01
0.0000000000000000e+00 5.2461598045212767e+00 0.0000000000000000e+00
ITEM: ATOMS id type xs ys zs
1 1    0.2754440827664464    0.4571341963962378    0.7075999861354635
2 1    0.7250328893412612    0.9579060430071827    0.7895401365955793
3 1    0.7223179738467239     0.538367062489605    0.2940151394805936
4 1     0.278995265415582    0.0461262604037227    0.2086318601002395
5 2    0.4407412563706006    0.7383521847307528    0.9907647176206754
6 2    0.5428244234415806    0.2502416032731657    0.5258722567188184
7 2    0.5609580199431267    0.2428322984161018   0.01390750164998433
8 2    0.4602371117153969    0.7620417837439567    0.4892626063246946
9 2   0.07460298231850718    0.3370537302909959    0.3528878062732634
10 2    0.9050009873180331     0.847606934244746    0.1409610570685407
11 2    0.9367326864236826    0.6604078679169311    0.6555623023579629
12 2   0.05892136877177595    0.1666725342914346    0.8331437982914771
ITEM: TIMESTEP
12
ITEM: NUMBER OF ATOMS
12
ITEM: BOX BOUNDS xy xz yz pp pp pp
-8.8344296827430302e-01 5.1364755065543157e+00 0.0000000000000000e+00
0.0000000000000000e+00 5.1934133375444702e+00 -8.8344296827430302e-01
0.0000000000000000e+00 5.2461598045212767e+00 0.0000000000000000e+00
ITEM: ATOMS id type xs ys zs
1 1     0.275392678921208    0.4570494615618367    0.7076137206642027
2 1    0.7251207845470538    0.9578764979621351     0.789297543610225
3 1    0.7221841733001251    0.5380666135879244    0.2941773950151139
4 1    0.2792339852800121    0.0464884004866104    0.2086828290549133
5 2    0.4399207462618084    0.7380117201605472    0.9921146149202221
6 2    0.5421078136796885    0.2510533301847543    0.5255996318418676
7 2    0.5613224155586073    0.2415301297324664   0.01337716964312578
8 2    0.4611686036007385    0.7623157709620858    0.4899727028907495
9 2   0.07470249002966389    0.3376501682849826    0.3528706632175543
10 2    0.9035171311720139    0.8489149718149234    0.1407380510329744
11 2    0.9371712781199066    0.6598088529852719    0.6554292534509782
12 2   0.05853073477977049    0.1665106892484025    0.8324343768868561
ITEM: TIMESTEP
13
ITEM: NUMBER OF ATOMS
12
ITEM: BOX BOUNDS xy xz yz pp pp pp
-8.8344296827430302e-01 5.1364755065543157e+00 0.0000000000000000e+00
0.0000000000000000e+00 5.1934133375444702e+00 -8.8344296827430302e-01
0.0000000000000000e+00 5.2461598045212767e+00 0.0000000000000000e+00
ITEM: ATOMS id type xs ys zs
1 1    0.2753440452422181    0.4569654409498262    0.7076370707434996
2 1    0.7252047252193481     0.957844190518643     0.789052908733979
3 1    0.7220519097230146    0.5377715556662029    0.2943368559296554
4 1    0.2794678762383989   0.04684539089394516     0.208730180896791
5 2     0.439054982770924    0.7376586105502229    0.9934978923647781
6 2    0.5414364931601052    0.2518663495662908    0.5251895639559601
7 2    0.5615822922189377     0.240261775905337   0.01288796127089389
8 2    0.4620488831151514    0.7625701120174453    0.4906164318029484
9 2   0.07471013327551794     0.338240631941004    0.3527139985291151
10 2    0.9022353685557114    0.8501497780033069    0.1407271054964967
11 2    0.9375861851377038    0.6592776156516877    0.6552354377612825
12 2   0.05825919095546173    0.1663776142458953     0.831829527450909
ITEM: TIMESTEP
14
ITEM: NUMBER OF ATOMS
12
ITEM: BOX BOUNDS xy xz yz pp pp pp
-8.8344296827430302e-01 5.1364755065543157e+00 0.0000000000000000e+00
0.0000000000000000e+00 5.1934133375444702e+00 -8.8344296827430302e-01
0.0000000000000000e+00 5.2461598045212767e+00 0.0000000000000000e+00
ITEM: ATOMS id type xs ys zs
1 1    0.2752982833092895     0.456882293794335    0.7076703849438915
2 1    0.7252848060754815    0.9578091071378607    0.7888064685415472
3 1    0.7219212362325437    0.5374822096495512    0.2944933278086668
4 1     0.279696668484733   0.04719682549480585    0.2087737783461047
5 2    0.4381420584528803    0.7372882791022879    0.9949104249786674
6 2    0.5408164023725938    0.2526755307947043    0.5246415822391416
7 2    0.5617326003822442    0.2390337038298426   0.01243938849300512
8 2    0.4628742369724951    0.7628060389607408    0.4911932051636543
9 2   0.07462603706894028    0.3388233261438863    0.3524152081138729
10 2    0.9011600004975991     0.851305073825998    0.1409308105172037
11 2    0.9379745489904309    0.6588215920993754    0.6549819668637044
12 2   0.05811012702393815    0.1662752808344616    0.8313309966113114
ITEM: TIMESTEP
15
ITEM: NUMBER OF ATOMS
12
ITEM: BOX BOUNDS xy xz yz pp pp pp
-8.8344296827430302e-01 5.1364755065543157e+00 0.0000000000000000e+00
0.0000000000000000e+00 5.1934133375444702e+00 -8.8344296827430302e-01
0.0000000000000000e+00 5.2461598045212767e+00 0.0000000000000000e+00
ITEM: ATOMS id type xs ys zs
1 1    0.2752554585887039     0.456800177087366    0.7077139102225771
2 1    0.7253612278994304    0.9577712423217221    0.7885585927929984
3 1    0.7217921921959213    0.5371989026818066    0.2946465993651562
4 1    0.2799200822618113   0.04754230502419921    0.2088135165657718
5 2    0.4371809284143923    0.7368962527217119    0.9963473837380969
6 2    0.5402531614042155    0.2534755839068195     0.523956914336461
7 2    0.5617691108887065    0.2378519394572023   0.01202962316382677
8 2    0.4636413178535992    0.7630250256473148     0.491703909601662
9 2   0.07445153055724427    0.3393966783877999    0.3519736156188735
10 2    0.9002931424334046     0.852375571775758    0.1413481422712702
11 2    0.9383343427354719      0.65844784865312     0.654670992076122
12 2   0.05808483812454938    0.1662048604457084     0.830939522608007
ITEM: TIMESTEP
16
ITEM: NUMBER OF ATOMS
12
ITEM: BOX BOUNDS xy xz yz pp pp pp
-8.8344296827430302e-01 5.1364755065543157e+00 0.0000000000000000e+00
0.0000000000000000e+00 5.1934133375444702e+00 -8.8344296827430302e-01
0.0000000000000000e+00 5.2461598045212767e+00 0.0000000000000000e+00
ITEM: ATOMS id type xs ys zs
1 1    0.2752155994503025    0.4567192467841011    0.7077677885107235
2 1    0.7254342957976554    0.9577305985771527    0.7883097870088078
3 1    0.7216648029354065     0.536921971171869    0.2947964399810178
4 1    0.2801378235315809   0.04788143433703718     0.208849322370703
5 2    0.4361714221231943     0.736478207340454    0.9978032766364832
6 2    0.5397519529856155    0.2542611451167374    0.5231385038116135
7 2    0.5616885159989536    0.2367219651537525   0.01165549859893879
8 2    0.4643471570360293    0.7632288125020819    0.4921508919225986
9 2   0.07418917547681336    0.3399593429733005    0.3513904899206666
10 2    0.8996346948997391    0.8533570330546152    0.1419744564194904
11 2    0.9386644614517237    0.6581629704931415    0.6543056584716094
12 2   0.05818250867972748    0.1661667048850242    0.8306548702994369
ITEM: TIMESTEP
17
ITEM: NUMBER OF ATOMS
12
ITEM: BOX BOUNDS xy xz yz pp pp pp
-8.8344296827430302e-01 5.1364755065543157e+00 0.0000000000000000e+00
0.0000000000000000e+00 5.1934133375444702e+00 -8.8344296827430302e-01
0.0000000000000000e+00 5.2461598045212767e+00 0.0000000000000000e+00
ITEM: ATOMS id type xs ys zs
1 1    0.2751786970969795    0.4566396593512304    0.7078320556585906
2 1    0.7255044136848382     0.957687186888643    0.7880606884454074
3 1    0.7215390795401398     0.536651763891656    0.2949425976715868
4 1    0.2803495805021396   0.04821381994912619    0.2088811535323384
5 2    0.4351142344802802    0.7360300069644097    0.9992720020286405
6 2    0.5393174147541576    0.2550268641521118    0.5221910039348318
7 2    0.5614885224820912    0.2356486349680257    0.0113125393201377
8 2    0.4649891753159032    0.7634194177721551    0.4925379191889339
9 2   0.07384276711079556    0.3405101958158991    0.3506690272120366
10 2    0.8991823623930155    0.8542462943295359    0.1428015838787217
11 2    0.9389647903293605    0.6579729472091521    0.6538900451640617
12 2   0.05840024029406762     0.166160356636255     0.830475863195124
ITEM: TIMESTEP
18
ITEM: NUMBER OF ATOMS
12
ITEM: BOX BOUNDS xy xz yz pp pp pp
-8.8344296827430302e-01 5.1364755065543157e+00 0.0000000000000000e+00
0.0000000000000000e+00 5.1934133375444702e+00 -8.8344296827430302e-01
0.0000000000000000e+00 5.2461598045212767e+00 0.0000000000000000e+00
ITEM: ATOMS id type xs ys zs
1 1    0.2751447064025246    0.4565615735849105    0.7079066427905664
2 1    0.7255720753225566    0.9576410275487014    0.7878120557823785
3 1    0.7214150188202394    0.5363886450326464    0.2950847976254189
4 1    0.2805550210562825   0.04853906789993705    0.2089089981262445
5 2    0.4340108974066119    0.7355477358451596      1.00074691376844
6 2    0.5389535459616244    0.2557674894412632    0.5211207464950289
7 2    0.5611679337520254    0.2346361104798972   0.01099502040677118
8 2    0.4655651917237152    0.7635991347266534    0.4928701126227708
9 2   0.07341730763892038     0.341048320158357    0.3498142972611356
10 2    0.8989317182984584    0.8550412665169853    0.1438180248285651
11 2    0.9392362466429814    0.6578830587981886    0.6534290927215554
12 2   0.05873312218404567    0.1661845881564964    0.8304004120774797
ITEM: TIMESTEP
19
ITEM: NUMBER OF ATOMS
12
ITEM: BOX BOUNDS xy xz yz pp pp pp
-8.8344296827430302e-01 5.1364755065543157e+00 0.0000000000000000e+00
0.0000000000000000e+00 5.1934133375444702e+00 -8.8344296827430302e-01
0.0000000000000000e+00 5.2461598045212767e+00 0.0000000000000000e+00
ITEM: ATOMS id type xs ys zs
1 1    0.2751135476016696     0.456485152589911    0.7079913800260333
2 1    0.7256378524704965    0.9575921511612464    0.7875647533076373
3 1    0.7212926034589598    0.5361329971338297    0.2952227414580834
4 1      0.28075379110427   0.04885678196310446    0.2089328738503479
5 2    0.4328637339217398    0.7350277239448642     1.002220897638225
6 2    0.5386636330109044    0.2564779475439924     0.519935684614292
7 2    0.5607267180714604    0.2336878189863021   0.01069605679479141
8 2    0.4660734299568558    0.7637705147642192    0.4931538553582766
9 2   0.07291895293604761    0.3415729840488541    0.3488331545849501
10 2    0.8988763116109952    0.8557409087064294    0.1450092314586106
11 2    0.9394807925731093    0.6578977660182671    0.6529285182715892
12 2   0.05917434059898427    0.1662374679567719    0.8304255405353648
ITEM: TIMESTEP
20
ITEM: NUMBER OF ATOMS
12
ITEM: BOX BOUNDS xy xz yz pp pp pp
-8.8344296827430302e-01 5.1364755065543157e+00 0.0000000000000000e+00
0.0000000000000000e+00 5.1934133375444702e+00 -8.8344296827430302e-01
0.0000000000000000e+00 5.2461598045212767e+00 0.0000000000000000e+00
ITEM: ATOMS id type xs ys zs
1 1    0.2750851087293719    0.4564105657822854    0.7080860024237904
2 1    0.7257023808847306    0.9575405996281701    0.7873197307688747
3 1    0.7211718024338569     0.535885223796686    0.2953561073001641
4 1     0.280945513865069   0.04916656222352104    0.2089528272262567
5 2    0.4316757973012767    0.7344665665576714     1.003686458515255
6 2     0.538450197098725    0.2571534138181671    0.5186453089756294
7 2    0.5601660600181496    0.2328064346630136   0.01040772164516357
8 2     0.466512522839481    0.7639363368828788    0.4933966748404189
9 2   0.07235493494043489    0.3420836110157361    0.3477341164608245
10 2    0.8990078095150381      0.85634518063662     0.146357965581842
11 2    0.9397014167670564    0.6580206090921215    0.6523947186734811
12 2   0.05971532190012575    0.1663164500639683    0.8305474083999195
ITEM: TIMESTEP
21
ITEM: NUMBER OF ATOMS
12
ITEM: BOX BOUNDS xy xz yz pp pp pp
-8.8344296827430302e-01 5.1364755065543157e+00 0.0000000000000000e+00
0.0000000000000000e+00 5.1934133375444702e+00 -8.8344296827430302e-01
0.0000000000000000e+00 5.2461598045212767e+00 0.0000000000000000e+00
ITEM: ATOMS id type xs ys zs
1 1      0.27505924866856    0.4563379907580487    0.7081901579128758
2 1    0.7257663449955758    0.9574864269525449    0.7870780003094111
3 1    0.7210525717855049    0.5356457521015102    0.2954845508148397
4 1    0.2811297900660032   0.04946800403534473    0.2089689325872147
5 2    0.4304507983642433    0.7338611395152329     1.005135817622451
6 2    0.5383149659780158    0.2577893720752227    0.5172605374490183
7 2    0.5594883927554138    0.2319938820868394   0.01012119165837936
8 2    0.4668815153826299     0.764099564450569    0.4936071015115368
9 2   0.07173346252461053    0.3425797459111632    0.3465272108000136
10 2    0.8993161688093689    0.8568549771699813    0.1478447141425917
11 2    0.9399020837156877    0.6582541186098892    0.6518346621252492
12 2    0.0603459026415027     0.166418482505496     0.830761334648783
ITEM: TIMESTEP
22
ITEM: NUMBER OF ATOMS
12
ITEM: BOX BOUNDS xy xz yz pp pp pp
-8.8344296827430302e-01 5.1364755065543157e+00 0.0000000000000000e+00
0.0000000000000000e+00 5.1934133375444702e+00 -8.8344296827430302e-01
0.0000000000000000e+00 5.2461598045212767e+00 0.0000000000000000e+00
ITEM: ATOMS id type xs ys zs
1 1    0.2750358006392806    0.4562676148627128    0.7083034168866723
2 1     0.725830462114433    0.9574296997364554    0.7868406120069911
3 1    0.7209348558108025    0.5354150346340414    0.2956077072095938
4 1    0.2813061990400586   0.04976069737369748    0.2089812907541838
5 2    0.4291930242508638    0.7332086118035268     1.006561019065487
6 2    0.5382588705227566    0.2583816618256921    0.5157935787967042
7 2    0.5586974091587307    0.2312513601994824  0.009826916057382147
8 2    0.4671798671113461    0.7642632906680586    0.4937945062751314
9 2   0.07106360417755327     0.343061018392899    0.3452237978197357
10 2    0.8997898286494521    0.8572720480216081    0.1494481439669035
11 2    0.9400876514353992     0.658599742117101    0.6512557687844569
12 2   0.06105451937982273    0.1665401297800716    0.8310618218626423
ITEM: TIMESTEP
23
ITEM: NUMBER OF ATOMS
12
ITEM: BOX BOUNDS xy xz yz pp pp pp
-8.8344296827430302e-01 5.1364755065543157e+00 0.0000000000000000e+00
0.0000000000000000e+00 5.1934133375444702e+00 -8.8344296827430302e-01
0.0000000000000000e+00 5.2461598045212767e+00 0.0000000000000000e+00
ITEM: ATOMS id type xs ys zs
1 1    0.2750145759486538    0.4561996363028449    0.7084252830655351
2 1    0.7258954669615242    0.9573704973071113    0.7866086294891994
3 1    0.7208185887464762    0.5351935510232643    0.2957251942703224
4 1    0.2814743006918298   0.05004422659429982    0.2089900273065163
5 2    0.4279072522281429    0.7325064576698685     1.007954044663945
6 2    0.5382820654649925    0.2589265125785842    0.5142577719119145
7 2    0.5577980504864291    0.2305793835612256    0.0095148050053021
8 2    0.4674074542440424    0.7644306745161715    0.4939689200050603
9 2   0.07035515561931763    0.3435271069381103    0.3438363700959191
10 2    0.9004159170630968     0.857598905630939    0.1511455767845557
11 2    0.9402637594953074    0.6590577893171634    0.6506657814098497
12 2   0.06182841118776806    0.1666777038800044    0.8314425848107846
ITEM: TIMESTEP
24
ITEM: NUMBER OF ATOMS
12
ITEM: BOX BOUNDS xy xz yz pp pp pp
-8.8344296827430302e-01 5.1364755065543157e+00 0.0000000000000000e+00
0.0000000000000000e+00 5.1934133375444702e+00 -8.8344296827430302e-01
0.0000000000000000e+00 5.2461598045212767e+00 0.0000000000000000e+00
ITEM: ATOMS id type xs ys zs
1 1    0.2749953678200896    0.4561342646613062    0.7085552051806603
2 1    0.7259620971898016    0.9573089114607682    0.7863831069320384
3 1    0.7207036969871486    0.5349818088826486    0.2958366164052293
4 1    0.2816336382954323   0.05031817061922701    0.2089952903653455
5 2    0.4265986621407798    0.7317524704503265     1.009306935839223
6 2     0.538383972461881    0.2594205654699787    0.5126674028298569
7 2    0.5567964719911301     0.229977836706082   0.00917443255320563
8 2    0.4675645720698408    0.7646048693077466     0.494140839015252
9 2   0.06961849480219051    0.3439777065688053    0.3423783359724294
10 2    0.9011804640709546    0.8578387235543258    0.1529134663988264
11 2    0.9404366909823065    0.6596273980995807     0.650072627624914
12 2   0.06265382888058521    0.1668273983174482    0.8318965861686678
ITEM: TIMESTEP
25
ITEM: NUMBER OF ATOMS
12
ITEM: BOX BOUNDS xy xz yz pp pp pp
-8.8344296827430302e-01 5.1364755065543157e+00 0.0000000000000000e+00
0.0000000000000000e+00 5.1934133375444702e+00 -8.8344296827430302e-01
0.0000000000000000e+00 5.2461598045212767e+00 0.0000000000000000e+00
ITEM: ATOMS id type xs ys zs
1 1    0.2749779551305808     0.456071720711075    0.7086925890021835
2 1     0.726031080424912    0.9572450458606503    0.7861650684939016
3 1    0.7205901018523382    0.5347803440408513    0.2959415696418113
4 1    0.2817837420785382   0.05058210357231313    0.2089972478255682
5 2    0.4252727510937119    0.7309447803732612     1.010611921040138
6 2    0.5385633426147565     0.259860883200559    0.5110375024727393
7 2    0.5556999855901578    0.2294460366844804  0.008795248879498478
8 2    0.4676519375084393      0.76478894620921    0.4943210208728706
9 2   0.06886442602905621    0.3444125034875893    0.3408637916059365
10 2     0.902068614949426    0.8579952272367476    0.1547278616099006