LAMMPS (29 Aug 2024)
Reading data file ...
  triclinic box = (0 0 0) to (5.1364755 5.1934133 5.2461598) with tilt (0 -0.88344297 0)
  1 by 1 by 1 MPI processor grid
  reading atoms ...
  12 atoms
  read_data CPU = 0.001 seconds
**************** Begin of POD Potentials ****************
species: Hf O 
periodic boundary conditions: 1 1 1
number of environment clusters: 1
number of principal compoments: 1
inner cut-off radius: 1
outer cut-off radius: 5.5
bessel polynomial degree: 4
inverse polynomial degree: 8
one-body potential: 1
two-body radial basis functions: 8
three-body radial basis functions: 6
three-body angular degree: 4
four-body radial basis functions: 4
four-body angular degree: 2
five-body radial basis functions: 4
five-body angular degree: 2
six-body radial basis functions: 3
six-body angular degree: 2
seven-body radial basis functions: 0
seven-body angular degree: 0
number of local descriptors per element for one-body potential: 1
number of local descriptors per element for two-body potential: 16
number of local descriptors per element for three-body potential: 90
number of local descriptors per element for four-body potential: 64
number of local descriptors per element for five-body potential: 192
number of local descriptors per element for six-body potential: 198
number of local descriptors per element for seven-body potential: 0
number of local descriptors per element for all potentials: 561
number of global descriptors: 1122
**************** End of POD Potentials ****************

**************** Begin of Model Coefficients ****************
total number of coefficients for POD potential: 1122
total number of elements for PCA projection matrix: 0
total number of elements for PCA centroids: 0
**************** End of Model Coefficients ****************


CITE-CITE-CITE-CITE-CITE-CITE-CITE-CITE-CITE-CITE-CITE-CITE-CITE

Your simulation uses code contributions which should be cited:
- Type Label Framework: https://doi.org/10.1021/acs.jpcb.3c08419
The log file lists these citations in BibTeX format.

CITE-CITE-CITE-CITE-CITE-CITE-CITE-CITE-CITE-CITE-CITE-CITE-CITE

WARNING: No fixes with time integration, atoms won't move (src/verlet.cpp:60)
Generated 0 of 1 mixed pair_coeff terms from geometric mixing rule
Neighbor list info ...
  update: every = 1 steps, delay = 0 steps, check = yes
  max neighbors/atom: 2000, page size: 100000
  master list distance cutoff = 10.5
  ghost atom cutoff = 10.5
  binsize = 5.25, bins = 2 1 1
  2 neighbor lists, perpetual/occasional/extra = 1 1 0
  (1) pair zero, perpetual
      attributes: half, newton on
      pair build: half/bin/atomonly/newton/tri
      stencil: half/bin/3d/tri
      bin: standard
  (2) compute pod/atom, occasional
      attributes: full, newton on
      pair build: full/bin/atomonly
      stencil: full/bin/3d
      bin: standard
Per MPI rank memory allocation (min/avg/max) = 3.666 | 3.666 | 3.666 Mbytes
   Step          Temp          PotEng         KinEng         TotEng         Press       v_exampledd  
         0   0              0              0              0              0              0.71034548   
         1   0              0              0              0              0              0.71043203   
         2   0              0              0              0              0              0.71054972   
         3   0              0              0              0              0              0.71069816   
         4   0              0              0              0              0              0.71087616   
         5   0              0              0              0              0              0.71108188   
         6   0              0              0              0              0              0.71131291   
         7   0              0              0              0              0              0.71156647   
         8   0              0              0              0              0              0.71183949   
         9   0              0              0              0              0              0.71212878   
        10   0              0              0              0              0              0.7124311    
        11   0              0              0              0              0              0.71274321   
        12   0              0              0              0              0              0.71306198   
        13   0              0              0              0              0              0.71338433   
        14   0              0              0              0              0              0.71370726   
        15   0              0              0              0              0              0.71402779   
        16   0              0              0              0              0              0.71434285   
        17   0              0              0              0              0              0.71464921   
        18   0              0              0              0              0              0.71494335   
        19   0              0              0              0              0              0.71522138   
        20   0              0              0              0              0              0.71547887   
        21   0              0              0              0              0              0.71571088   
        22   0              0              0              0              0              0.71591184   
        23   0              0              0              0              0              0.71607562   
        24   0              0              0              0              0              0.71619565   
        25   0              0              0              0              0              0.71626503   
        26   0              0              0              0              0              0.71627677   
        27   0              0              0              0              0              0.71622407   
        28   0              0              0              0              0              0.71610065   
        29   0              0              0              0              0              0.71590103   
        30   0              0              0              0              0              0.71562093   
        31   0              0              0              0              0              0.71525753   
        32   0              0              0              0              0              0.71480976   
        33   0              0              0              0              0              0.71427851   
        34   0              0              0              0              0              0.71366673   
        35   0              0              0              0              0              0.71297947   
        36   0              0              0              0              0              0.71222386   
        37   0              0              0              0              0              0.71140892   
        38   0              0              0              0              0              0.71054534   
        39   0              0              0              0              0              0.70964519   
        40   0              0              0              0              0              0.7087215    
        41   0              0              0              0              0              0.70778789   
        42   0              0              0              0              0              0.70685805   
        43   0              0              0              0              0              0.70594532   
        44   0              0              0              0              0              0.70506223   
        45   0              0              0              0              0              0.70422005   
        46   0              0              0              0              0              0.70342846   
        47   0              0              0              0              0              0.70269526   
        48   0              0              0              0              0              0.70202617   
        49   0              0              0              0              0              0.70142475   
        50   0              0              0              0              0              0.70089244   
        51   0              0              0              0              0              0.70042868   
        52   0              0              0              0              0              0.70003116   
        53   0              0              0              0              0              0.69969616   
        54   0              0              0              0              0              0.69941895   
        55   0              0              0              0              0              0.69919422   
        56   0              0              0              0              0              0.6990166    
        57   0              0              0              0              0              0.6988811    
        58   0              0              0              0              0              0.69878356   
        59   0              0              0              0              0              0.69872097   
        60   0              0              0              0              0              0.69869177   
        61   0              0              0              0              0              0.69869599   
        62   0              0              0              0              0              0.69873531   
        63   0              0              0              0              0              0.69881293   
        64   0              0              0              0              0              0.69893339   
        65   0              0              0              0              0              0.69910224   
        66   0              0              0              0              0              0.69932565   
        67   0              0              0              0              0              0.69960993   
        68   0              0              0              0              0              0.69996104   
        69   0              0              0              0              0              0.70038412   
        70   0              0              0              0              0              0.70088302   
        71   0              0              0              0              0              0.70145993   
        72   0              0              0              0              0              0.70211506   
        73   0              0              0              0              0              0.70284646   
        74   0              0              0              0              0              0.70364994   
        75   0              0              0              0              0              0.70451918   
        76   0              0              0              0              0              0.70544583   
        77   0              0              0              0              0              0.70641991   
        78   0              0              0              0              0              0.70743015   
        79   0              0              0              0              0              0.70846451   
        80   0              0              0              0              0              0.7095107    
        81   0              0              0              0              0              0.71055669   
        82   0              0              0              0              0              0.71159124   
        83   0              0              0              0              0              0.71260431   
        84   0              0              0              0              0              0.7135874    
        85   0              0              0              0              0              0.71453375   
        86   0              0              0              0              0              0.71543841   
        87   0              0              0              0              0              0.71629819   
        88   0              0              0              0              0              0.71711151   
        89   0              0              0              0              0              0.71787814   
        90   0              0              0              0              0              0.71859885   
        91   0              0              0              0              0              0.71927514   
        92   0              0              0              0              0              0.7199088    
        93   0              0              0              0              0              0.72050161   
        94   0              0              0              0              0              0.72105501   
        95   0              0              0              0              0              0.72156986   
        96   0              0              0              0              0              0.72204623   
        97   0              0              0              0              0              0.72248334   
        98   0              0              0              0              0              0.72287952   
        99   0              0              0              0              0              0.72323235   
       100   0              0              0              0              0              0.72353882   
       101   0              0              0              0              0              0.7237956    
       102   0              0              0              0              0              0.72399939   
       103   0              0              0              0              0              0.72414729   
       104   0              0              0              0              0              0.72423719   
       105   0              0              0              0              0              0.72426815   
       106   0              0              0              0              0              0.72424069   
       107   0              0              0              0              0              0.72415711   
       108   0              0              0              0              0              0.72402164   
       109   0              0              0              0              0              0.72384052   
       110   0              0              0              0              0              0.72362195   
       111   0              0              0              0              0              0.72337599   
       112   0              0              0              0              0              0.72311424   
       113   0              0              0              0              0              0.72284948   
       114   0              0              0              0              0              0.72259523   
       115   0              0              0              0              0              0.72236513   
       116   0              0              0              0              0              0.72217238   
       117   0              0              0              0              0              0.72202906   
       118   0              0              0              0              0              0.72194558   
       119   0              0              0              0              0              0.7219301    
       120   0              0              0              0              0              0.72198811   
       121   0              0              0              0              0              0.72212219   
       122   0              0              0              0              0              0.72233187   
       123   0              0              0              0              0              0.72261383   
       124   0              0              0              0              0              0.72296219   
       125   0              0              0              0              0              0.72336894   
       126   0              0              0              0              0              0.72382446   
       127   0              0              0              0              0              0.72431819   
       128   0              0              0              0              0              0.72483925   
       129   0              0              0              0              0              0.7253773    
       130   0              0              0              0              0              0.72592325   
       131   0              0              0              0              0              0.72647003   
       132   0              0              0              0              0              0.72701324   
       133   0              0              0              0              0              0.72755152   
       134   0              0              0              0              0              0.72808683   
       135   0              0              0              0              0              0.72862436   
       136   0              0              0              0              0              0.72917219   
       137   0              0              0              0              0              0.72974071   
       138   0              0              0              0              0              0.73034177   
       139   0              0              0              0              0              0.73098761   
       140   0              0              0              0              0              0.73168973   
       141   0              0              0              0              0              0.73245763   
       142   0              0              0              0              0              0.73329769   
       143   0              0              0              0              0              0.73421206   
       144   0              0              0              0              0              0.73519786   
       145   0              0              0              0              0              0.73624665   
       146   0              0              0              0              0              0.73734425   
       147   0              0              0              0              0              0.73847095   
       148   0              0              0              0              0              0.73960203   
       149   0              0              0              0              0              0.74070874   
       150   0              0              0              0              0              0.74175948   
       151   0              0              0              0              0              0.74272125   
       152   0              0              0              0              0              0.74356112   
       153   0              0              0              0              0              0.7442477    
       154   0              0              0              0              0              0.7447523    
       155   0              0              0              0              0              0.74504992   
       156   0              0              0              0              0              0.74512      
       157   0              0              0              0              0              0.74494714   
       158   0              0              0              0              0              0.74452164   
       159   0              0              0              0              0              0.7438399    
       160   0              0              0              0              0              0.74290467   
       161   0              0              0              0              0              0.74172512   
       162   0              0              0              0              0              0.74031667   
       163   0              0              0              0              0              0.73870067   
       164   0              0              0              0              0              0.73690373   
       165   0              0              0              0              0              0.73495696   
       166   0              0              0              0              0              0.73289484   
       167   0              0              0              0              0              0.73075403   
       168   0              0              0              0              0              0.72857204   
       169   0              0              0              0              0              0.72638573   
       170   0              0              0              0              0              0.72422991   
       171   0              0              0              0              0              0.72213597   
       172   0              0              0              0              0              0.72013065   
       173   0              0              0              0              0              0.718235     
       174   0              0              0              0              0              0.71646371   
       175   0              0              0              0              0              0.71482473   
       176   0              0              0              0              0              0.71331938   
       177   0              0              0              0              0              0.71194279   
       178   0              0              0              0              0              0.71068497   
       179   0              0              0              0              0              0.70953214   
       180   0              0              0              0              0              0.70846852   
       181   0              0              0              0              0              0.70747815   
       182   0              0              0              0              0              0.70654654   
       183   0              0              0              0              0              0.70566185   
       184   0              0              0              0              0              0.7048154    
       185   0              0              0              0              0              0.70400151   
       186   0              0              0              0              0              0.70321706   
       187   0              0              0              0              0              0.70246098   
       188   0              0              0              0              0              0.70173377   
       189   0              0              0              0              0              0.70103703   
       190   0              0              0              0              0              0.70037304   
       191   0              0              0              0              0              0.69974438   
       192   0              0              0              0              0              0.69915356   
       193   0              0              0              0              0              0.69860275   
       194   0              0              0              0              0              0.69809352   
       195   0              0              0              0              0              0.69762667   
       196   0              0              0              0              0              0.69720221   
       197   0              0              0              0              0              0.6968193    
       198   0              0              0              0              0              0.69647641   
       199   0              0              0              0              0              0.69617141   
       200   0              0              0              0              0              0.6959018    
       201   0              0              0              0              0              0.69566487   
       202   0              0              0              0              0              0.69545793   
       203   0              0              0              0              0              0.69527846   
       204   0              0              0              0              0              0.69512428   
       205   0              0              0              0              0              0.69499363   
       206   0              0              0              0              0              0.69488524   
       207   0              0              0              0              0              0.69479828   
       208   0              0              0              0              0              0.69473241   
       209   0              0              0              0              0              0.69468758   
       210   0              0              0              0              0              0.69466406   
       211   0              0              0              0              0              0.69466224   
       212   0              0              0              0              0              0.69468259   
       213   0              0              0              0              0              0.69472551   
       214   0              0              0              0              0              0.6947913    
       215   0              0              0              0              0              0.69488009   
       216   0              0              0              0              0              0.69499175   
       217   0              0              0              0              0              0.69512588   
       218   0              0              0              0              0              0.6952818    
       219   0              0              0              0              0              0.69545848   
       220   0              0              0              0              0              0.69565462   
       221   0              0              0              0              0              0.69586863   
       222   0              0              0              0              0              0.69609872   
       223   0              0              0              0              0              0.69634294   
       224   0              0              0              0              0              0.69659933   
       225   0              0              0              0              0              0.69686604   
       226   0              0              0              0              0              0.69714146   
       227   0              0              0              0              0              0.69742446   
       228   0              0              0              0              0              0.69771456   
       229   0              0              0              0              0              0.6980121    
       230   0              0              0              0              0              0.69831831   
       231   0              0              0              0              0              0.69863524   
       232   0              0              0              0              0              0.69896568   
       233   0              0              0              0              0              0.69931301   
       234   0              0              0              0              0              0.699681     
       235   0              0              0              0              0              0.70007359   
       236   0              0              0              0              0              0.70049469   
       237   0              0              0              0              0              0.70094791   
       238   0              0              0              0              0              0.70143632   
       239   0              0              0              0              0              0.7019622    
       240   0              0              0              0              0              0.7025267    
       241   0              0              0              0              0              0.7031294    
       242   0              0              0              0              0              0.70376779   
       243   0              0              0              0              0              0.70443688   
       244   0              0              0              0              0              0.70512876   
       245   0              0              0              0              0              0.70583236   
       246   0              0              0              0              0              0.7065333    
       247   0              0              0              0              0              0.70721385   
       248   0              0              0              0              0              0.70785311   
       249   0              0              0              0              0              0.70842746   
       250   0              0              0              0              0              0.70891117   
       251   0              0              0              0              0              0.7092774    
       252   0              0              0              0              0              0.70949931   
       253   0              0              0              0              0              0.70955146   
       254   0              0              0              0              0              0.7094111    
       255   0              0              0              0              0              0.70905953   
       256   0              0              0              0              0              0.70848309   
       257   0              0              0              0              0              0.70767399   
       258   0              0              0              0              0              0.70663072   
       259   0              0              0              0              0              0.70535828   
       260   0              0              0              0              0              0.70386805   
       261   0              0              0              0              0              0.70217747   
       262   0              0              0              0              0              0.70030936   
       263   0              0              0              0              0              0.69829107   
       264   0              0              0              0              0              0.69615322   
       265   0              0              0              0              0              0.69392837   
       266   0              0              0              0              0              0.6916496    
       267   0              0              0              0              0              0.68934928   
       268   0              0              0              0              0              0.68705801   
       269   0              0              0              0              0              0.68480384   
       270   0              0              0              0              0              0.68261183   
       271   0              0              0              0              0              0.68050382   
       272   0              0              0              0              0              0.67849841   
       273   0              0              0              0              0              0.67661115   
       274   0              0              0              0              0              0.67485474   
       275   0              0              0              0              0              0.67323925   
       276   0              0              0              0              0              0.67177243   
       277   0              0              0              0              0              0.67045987   
       278   0              0              0              0              0              0.66930528   
       279   0              0              0              0              0              0.66831066   
       280   0              0              0              0              0              0.66747654   
       281   0              0              0              0              0              0.66680207   
       282   0              0              0              0              0              0.66628525   
       283   0              0              0              0              0              0.66592298   
       284   0              0              0              0              0              0.66571119   
       285   0              0              0              0              0              0.66564484   
       286   0              0              0              0              0              0.665718     
       287   0              0              0              0              0              0.66592376   
       288   0              0              0              0              0              0.66625426   
       289   0              0              0              0              0              0.66670059   
       290   0              0              0              0              0              0.66725277   
       291   0              0              0              0              0              0.66789973   
       292   0              0              0              0              0              0.66862934   
       293   0              0              0              0              0              0.66942848   
       294   0              0              0              0              0              0.67028325   
       295   0              0              0              0              0              0.67117916   
       296   0              0              0              0              0              0.67210155   
       297   0              0              0              0              0              0.67303591   
       298   0              0              0              0              0              0.67396846   
       299   0              0              0              0              0              0.67488663   
       300   0              0              0              0              0              0.67577956   
       301   0              0              0              0              0              0.67663866   
       302   0              0              0              0              0              0.67745794   
       303   0              0              0              0              0              0.67823433   
       304   0              0              0              0              0              0.67896772   
       305   0              0              0              0              0              0.6796609    
       306   0              0              0              0              0              0.68031922   
       307   0              0              0              0              0              0.68095008   
       308   0              0              0              0              0              0.68156222   
       309   0              0              0              0              0              0.68216488   
       310   0              0              0              0              0              0.68276697   
       311   0              0              0              0              0              0.68337609   
       312   0              0              0              0              0              0.68399778   
       313   0              0              0              0              0              0.68463475   
       314   0              0              0              0              0              0.68528644   
       315   0              0              0              0              0              0.68594866   
       316   0              0              0              0              0              0.68661361   
       317   0              0              0              0              0              0.68727002   
       318   0              0              0              0              0              0.68790364   
       319   0              0              0              0              0              0.68849794   
       320   0              0              0              0              0              0.68903493   
       321   0              0              0              0              0              0.68949622   
       322   0              0              0              0              0              0.68986413   
       323   0              0              0              0              0              0.6901227    
       324   0              0              0              0              0              0.69025881   
       325   0              0              0              0              0              0.690263     
       326   0              0              0              0              0              0.69013019   
       327   0              0              0              0              0              0.68986016   
       328   0              0              0              0              0              0.68945776   
       329   0              0              0              0              0              0.6889328    
       330   0              0              0              0              0              0.68829974   
       331   0              0              0              0              0              0.68757713   
       332   0              0              0              0              0              0.68678679   
       333   0              0              0              0              0              0.68595294   
       334   0              0              0              0              0              0.68510111   
       335   0              0              0              0              0              0.68425712   
       336   0              0              0              0              0              0.68344601   
       337   0              0              0              0              0              0.68269101   
       338   0              0              0              0              0              0.68201273   
       339   0              0              0              0              0              0.68142835   
       340   0              0              0              0              0              0.68095118   
       341   0              0              0              0              0              0.6805903    
       342   0              0              0              0              0              0.68035049   
       343   0              0              0              0              0              0.68023241   
       344   0              0              0              0              0              0.68023291   
       345   0              0              0              0              0              0.68034551   
       346   0              0              0              0              0              0.68056102   
       347   0              0              0              0              0              0.68086826   
       348   0              0              0              0              0              0.68125479   
       349   0              0              0              0              0              0.68170776   
       350   0              0              0              0              0              0.68221463   
       351   0              0              0              0              0              0.6827639    
       352   0              0              0              0              0              0.68334574   
       353   0              0              0              0              0              0.68395243   
       354   0              0              0              0              0              0.68457871   
       355   0              0              0              0              0              0.68522193   
       356   0              0              0              0              0              0.68588198   
       357   0              0              0              0              0              0.68656106   
       358   0              0              0              0              0              0.68726325   
       359   0              0              0              0              0              0.68799398   
       360   0              0              0              0              0              0.68875931   
       361   0              0              0              0              0              0.68956515   
       362   0              0              0              0              0              0.69041652   
       363   0              0              0              0              0              0.69131667   
       364   0              0              0              0              0              0.69226652   
       365   0              0              0              0              0              0.69326402   
       366   0              0              0              0              0              0.69430388   
       367   0              0              0              0              0              0.69537745   
       368   0              0              0              0              0              0.69647278   
       369   0              0              0              0              0              0.69757497   
       370   0              0              0              0              0              0.69866671   
       371   0              0              0              0              0              0.69972906   
       372   0              0              0              0              0              0.70074241   
       373   0              0              0              0              0              0.70168754   
       374   0              0              0              0              0              0.70254675   
       375   0              0              0              0              0              0.70330495   
       376   0              0              0              0              0              0.70395056   
       377   0              0              0              0              0              0.70447619   
       378   0              0              0              0              0              0.70487908   
       379   0              0              0              0              0              0.7051611    
       380   0              0              0              0              0              0.7053285    
       381   0              0              0              0              0              0.7053914    
       382   0              0              0              0              0              0.70536293   
       383   0              0              0              0              0              0.7052584    
       384   0              0              0              0              0              0.70509435   
       385   0              0              0              0              0              0.70488756   
       386   0              0              0              0              0              0.70465431   
       387   0              0              0              0              0              0.7044097    
       388   0              0              0              0              0              0.70416715   
       389   0              0              0              0              0              0.7039381    
       390   0              0              0              0              0              0.70373186   
       391   0              0              0              0              0              0.70355563   
       392   0              0              0              0              0              0.70341462   
       393   0              0              0              0              0              0.70331232   
       394   0              0              0              0              0              0.7032508    
       395   0              0              0              0              0              0.70323108   
       396   0              0              0              0              0              0.70325357   
       397   0              0              0              0              0              0.70331844   
       398   0              0              0              0              0              0.70342598   
       399   0              0              0              0              0              0.70357691   
       400   0              0              0              0              0              0.70377255   
       401   0              0              0              0              0              0.70401492   
       402   0              0              0              0              0              0.70430671   
       403   0              0              0              0              0              0.70465112   
       404   0              0              0              0              0              0.70505169   
       405   0              0              0              0              0              0.70551193   
       406   0              0              0              0              0              0.70603505   
       407   0              0              0              0              0              0.70662353   
       408   0              0              0              0              0              0.70727885   
       409   0              0              0              0              0              0.70800115   
       410   0              0              0              0              0              0.708789     
       411   0              0              0              0              0              0.70963924   
       412   0              0              0              0              0              0.7105469    
       413   0              0              0              0              0              0.71150526   
       414   0              0              0              0              0              0.71250593   
       415   0              0              0              0              0              0.71353909   
       416   0              0              0              0              0              0.7145938    
       417   0              0              0              0              0              0.71565831   
       418   0              0              0              0              0              0.71672049   
       419   0              0              0              0              0              0.71776821   
       420   0              0              0              0              0              0.71878965   
       421   0              0              0              0              0              0.71977366   
       422   0              0              0              0              0              0.72070997   
       423   0              0              0              0              0              0.72158934   
       424   0              0              0              0              0              0.72240367   
       425   0              0              0              0              0              0.72314598   
       426   0              0              0              0              0              0.72381038   
       427   0              0              0              0              0              0.72439193   
       428   0              0              0              0              0              0.72488651   
       429   0              0              0              0              0              0.72529067   
       430   0              0              0              0              0              0.72560148   
       431   0              0              0              0              0              0.7258164    
       432   0              0              0              0              0              0.72593329   
       433   0              0              0              0              0              0.72595034   
       434   0              0              0              0              0              0.72586615   
       435   0              0              0              0              0              0.72567972   
       436   0              0              0              0              0              0.72539055   
       437   0              0              0              0              0              0.72499869   
       438   0              0              0              0              0              0.72450481   
       439   0              0              0              0              0              0.72391032   
       440   0              0              0              0              0              0.72321745   
       441   0              0              0              0              0              0.72242928   
       442   0              0              0              0              0              0.72154989   
       443   0              0              0              0              0              0.72058436   
       444   0              0              0              0              0              0.71953879   
       445   0              0              0              0              0              0.71842024   
       446   0              0              0              0              0              0.7172367    
       447   0              0              0              0              0              0.71599691   
       448   0              0              0              0              0              0.71471021   
       449   0              0              0              0              0              0.71338632   
       450   0              0              0              0              0              0.71203509   
       451   0              0              0              0              0              0.71066624   
       452   0              0              0              0              0              0.70928913   
       453   0              0              0              0              0              0.70791251   
       454   0              0              0              0              0              0.70654434   
       455   0              0              0              0              0              0.70519167   
       456   0              0              0              0              0              0.70386054   
       457   0              0              0              0              0              0.702556     
       458   0              0              0              0              0              0.70128214   
       459   0              0              0              0              0              0.70004223   
       460   0              0              0              0              0              0.69883886   
       461   0              0              0              0              0              0.69767417   
       462   0              0              0              0              0              0.69655005   
       463   0              0              0              0              0              0.6954684    
       464   0              0              0              0              0              0.69443132   
       465   0              0              0              0              0              0.69344126   
       466   0              0              0              0              0              0.69250118   
       467   0              0              0              0              0              0.69161454   
       468   0              0              0              0              0              0.69078526   
       469   0              0              0              0              0              0.6900176    
       470   0              0              0              0              0              0.689316     
       471   0              0              0              0              0              0.68868479   
       472   0              0              0              0              0              0.68812794   
       473   0              0              0              0              0              0.68764873   
       474   0              0              0              0              0              0.68724941   
       475   0              0              0              0              0              0.68693096   
       476   0              0              0              0              0              0.68669273   
       477   0              0              0              0              0              0.68653227   
       478   0              0              0              0              0              0.68644519   
       479   0              0              0              0              0              0.68642508   
       480   0              0              0              0              0              0.68646359   
       481   0              0              0              0              0              0.6865506    
       482   0              0              0              0              0              0.68667447   
       483   0              0              0              0              0              0.68682247   
       484   0              0              0              0              0              0.68698125   
       485   0              0              0              0              0              0.6871374    
       486   0              0              0              0              0              0.68727806   
       487   0              0              0              0              0              0.68739156   
       488   0              0              0              0              0              0.68746795   
       489   0              0              0              0              0              0.68749955   
       490   0              0              0              0              0              0.68748131   
       491   0              0              0              0              0              0.68741105   
       492   0              0              0              0              0              0.68728956   
       493   0              0              0              0              0              0.68712043   
       494   0              0              0              0              0              0.6869098    
       495   0              0              0              0              0              0.68666588   
       496   0              0              0              0              0              0.68639843   
       497   0              0              0              0              0              0.68611811   
       498   0              0              0              0              0              0.68583581   
       499   0              0              0              0              0              0.68556211   
       500   0              0              0              0              0              0.6853067    
       501   0              0              0              0              0              0.68507803   
       502   0              0              0              0              0              0.68488305   
       503   0              0              0              0              0              0.68472712   
       504   0              0              0              0              0              0.68461408   
       505   0              0              0              0              0              0.68454643   
       506   0              0              0              0              0              0.68452563   
       507   0              0              0              0              0              0.68455242   
       508   0              0              0              0              0              0.68462725   
       509   0              0              0              0              0              0.68475053   
       510   0              0              0              0              0              0.68492299   
       511   0              0              0              0              0              0.68514585   
       512   0              0              0              0              0              0.68542096   
       513   0              0              0              0              0              0.68575079   
       514   0              0              0              0              0              0.68613837   
       515   0              0              0              0              0              0.68658715   
       516   0              0              0              0              0              0.68710081   
       517   0              0              0              0              0              0.68768301   
       518   0              0              0              0              0              0.68833712   
       519   0              0              0              0              0              0.689066     
       520   0              0              0              0              0              0.68987179   
       521   0              0              0              0              0              0.69075563   
       522   0              0              0              0              0              0.69171755   
       523   0              0              0              0              0              0.69275634   
       524   0              0              0              0              0              0.69386945   
       525   0              0              0              0              0              0.69505296   
       526   0              0              0              0              0              0.69630165   
       527   0              0              0              0              0              0.69760905   
       528   0              0              0              0              0              0.69896755   
       529   0              0              0              0              0              0.70036858   
       530   0              0              0              0              0              0.70180277   
       531   0              0              0              0              0              0.7032601    
       532   0              0              0              0              0              0.70473011   
       533   0              0              0              0              0              0.7062021    
       534   0              0              0              0              0              0.70766526   
       535   0              0              0              0              0              0.70910887   
       536   0              0              0              0              0              0.71052239   
       537   0              0              0              0              0              0.71189562   
       538   0              0              0              0              0              0.71321877   
       539   0              0              0              0              0              0.71448259   
       540   0              0              0              0              0              0.71567841   
       541   0              0              0              0              0              0.71679829   
       542   0              0              0              0              0              0.71783514   
       543   0              0              0              0              0              0.71878284   
       544   0              0              0              0              0              0.71963645   
       545   0              0              0              0              0              0.72039236   
       546   0              0              0              0              0              0.7210485    
       547   0              0              0              0              0              0.72160455   
       548   0              0              0              0              0              0.72206199   
       549   0              0              0              0              0              0.72242427   
       550   0              0              0              0              0              0.72269675   
       551   0              0              0              0              0              0.72288666   
       552   0              0              0              0              0              0.72300286   
       553   0              0              0              0              0              0.72305556   
       554   0              0              0              0              0              0.72305599   
       555   0              0              0              0              0              0.72301587   
       556   0              0              0              0              0              0.72294698   
       557   0              0              0              0              0              0.72286064   
       558   0              0              0              0              0              0.72276724   
       559   0              0              0              0              0              0.72267579   
       560   0              0              0              0              0              0.72259364   
       561   0              0              0              0              0              0.72252619   
       562   0              0              0              0              0              0.72247679   
       563   0              0              0              0              0              0.72244672   
       564   0              0              0              0              0              0.7224353    
       565   0              0              0              0              0              0.7224401    
       566   0              0              0              0              0              0.72245718   
       567   0              0              0              0              0              0.72248142   
       568   0              0              0              0              0              0.72250694   
       569   0              0              0              0              0              0.7225274    
       570   0              0              0              0              0              0.72253642   
       571   0              0              0              0              0              0.72252781   
       572   0              0              0              0              0              0.72249589   
       573   0              0              0              0              0              0.72243566   
       574   0              0              0              0              0              0.72234298   
       575   0              0              0              0              0              0.72221464   
       576   0              0              0              0              0              0.72204838   
       577   0              0              0              0              0              0.72184287   
       578   0              0              0              0              0              0.72159759   
       579   0              0              0              0              0              0.72131271   
       580   0              0              0              0              0              0.72098897   
       581   0              0              0              0              0              0.72062749   
       582   0              0              0              0              0              0.72022955   
       583   0              0              0              0              0              0.71979643   
       584   0              0              0              0              0              0.71932921   
       585   0              0              0              0              0              0.71882863   
       586   0              0              0              0              0              0.71829497   
       587   0              0              0              0              0              0.71772801   
       588   0              0              0              0              0              0.717127     
       589   0              0              0              0              0              0.71649073   
       590   0              0              0              0              0              0.71581757   
       591   0              0              0              0              0              0.71510565   
       592   0              0              0              0              0              0.71435295   
       593   0              0              0              0              0              0.7135575    
       594   0              0              0              0              0              0.71271749   
       595   0              0              0              0              0              0.71183143   
       596   0              0              0              0              0              0.71089827   
       597   0              0              0              0              0              0.70991745   
       598   0              0              0              0              0              0.70888896   
       599   0              0              0              0              0              0.70781334   
       600   0              0              0              0              0              0.70669164   
       601   0              0              0              0              0              0.70552535   
       602   0              0              0              0              0              0.70431631   
       603   0              0              0              0              0              0.70306665   
       604   0              0              0              0              0              0.70177865   
       605   0              0              0              0              0              0.70045467   
       606   0              0              0              0              0              0.69909708   
       607   0              0              0              0              0              0.69770825   
       608   0              0              0              0              0              0.69629045   
       609   0              0              0              0              0              0.69484597   
       610   0              0              0              0              0              0.69337707   
       611   0              0              0              0              0              0.69188611   
       612   0              0              0              0              0              0.6903756    
       613   0              0              0              0              0              0.68884835   
       614   0              0              0              0              0              0.68730751   
       615   0              0              0              0              0              0.68575673   
       616   0              0              0              0              0              0.6842002    
       617   0              0              0              0              0              0.68264273   
       618   0              0              0              0              0              0.68108983   
       619   0              0              0              0              0              0.67954764   
       620   0              0              0              0              0              0.67802299   
       621   0              0              0              0              0              0.67652328   
       622   0              0              0              0              0              0.67505642   
       623   0              0              0              0              0              0.67363071   
       624   0              0              0              0              0              0.67225468   
       625   0              0              0              0              0              0.67093691   
       626   0              0              0              0              0              0.66968588   
       627   0              0              0              0              0              0.66850971   
       628   0              0              0              0              0              0.66741598   
       629   0              0              0              0              0              0.66641154   
       630   0              0              0              0              0              0.66550229   
       631   0              0              0              0              0              0.66469301   
       632   0              0              0              0              0              0.66398723   
       633   0              0              0              0              0              0.66338712   
       634   0              0              0              0              0              0.66289344   
       635   0              0              0              0              0              0.66250553   
       636   0              0              0              0              0              0.66222136   
       637   0              0              0              0              0              0.66203767   
       638   0              0              0              0              0              0.66195008   
       639   0              0              0              0              0              0.66195335   
       640   0              0              0              0              0              0.66204158   
       641   0              0              0              0              0              0.66220848   
       642   0              0              0              0              0              0.66244764   
       643   0              0              0              0              0              0.66275276   
       644   0              0              0              0              0              0.66311788   
       645   0              0              0              0              0              0.66353757   
       646   0              0              0              0              0              0.66400701   
       647   0              0              0              0              0              0.66452204   
       648   0              0              0              0              0              0.6650792    
       649   0              0              0              0              0              0.66567559   
       650   0              0              0              0              0              0.66630874   
       651   0              0              0              0              0              0.66697652   
       652   0              0              0              0              0              0.66767684   
       653   0              0              0              0              0              0.66840757   
       654   0              0              0              0              0              0.66916631   
       655   0              0              0              0              0              0.66995029   
       656   0              0              0              0              0              0.67075632   
       657   0              0              0              0              0              0.67158075   
       658   0              0              0              0              0              0.67241954   
       659   0              0              0              0              0              0.67326837   
       660   0              0              0              0              0              0.67412279   
       661   0              0              0              0              0              0.67497842   
       662   0              0              0              0              0              0.67583116   
       663   0              0              0              0              0              0.67667736   
       664   0              0              0              0              0              0.67751407   
       665   0              0              0              0              0              0.6783391    
       666   0              0              0              0              0              0.67915124   
       667   0              0              0              0              0              0.67995019   
       668   0              0              0              0              0              0.68073666   
       669   0              0              0              0              0              0.68151221   
       670   0              0              0              0              0              0.68227915   
       671   0              0              0              0              0              0.68304036   
       672   0              0              0              0              0              0.68379904   
       673   0              0              0              0              0              0.68455848   
       674   0              0              0              0              0              0.68532183   
       675   0              0              0              0              0              0.68609186   
       676   0              0              0              0              0              0.68687076   
       677   0              0              0              0              0              0.68766001   
       678   0              0              0              0              0              0.68846035   
       679   0              0              0              0              0              0.68927169   
       680   0              0              0              0              0              0.69009324   
       681   0              0              0              0              0              0.69092358   
       682   0              0              0              0              0              0.69176088   
       683   0              0              0              0              0              0.69260307   
       684   0              0              0              0              0              0.69344808   
       685   0              0              0              0              0              0.69429407   
       686   0              0              0              0              0              0.69513965   
       687   0              0              0              0              0              0.69598405   
       688   0              0              0              0              0              0.69682727   
       689   0              0              0              0              0              0.69767014   
       690   0              0              0              0              0              0.69851433   
       691   0              0              0              0              0              0.69936232   
       692   0              0              0              0              0              0.7002172    
       693   0              0              0              0              0              0.70108255   
       694   0              0              0              0              0              0.70196214   
       695   0              0              0              0              0              0.70285961   
       696   0              0              0              0              0              0.70377815   
       697   0              0              0              0              0              0.70472012   
       698   0              0              0              0              0              0.70568674   
       699   0              0              0              0              0              0.70667767   
       700   0              0              0              0              0              0.70769078   
       701   0              0              0              0              0              0.7087219    
       702   0              0              0              0              0              0.70976467   
       703   0              0              0              0              0              0.7108105    
       704   0              0              0              0              0              0.71184864   
       705   0              0              0              0              0              0.71286645   
       706   0              0              0              0              0              0.71384967   
       707   0              0              0              0              0              0.71478297   
       708   0              0              0              0              0              0.71565046   
       709   0              0              0              0              0              0.71643634   
       710   0              0              0              0              0              0.71712561   
       711   0              0              0              0              0              0.71770465   
       712   0              0              0              0              0              0.71816182   
       713   0              0              0              0              0              0.71848792   
       714   0              0              0              0              0              0.71867647   
       715   0              0              0              0              0              0.71872389   
       716   0              0              0              0              0              0.71862944   
       717   0              0              0              0              0              0.71839509   
       718   0              0              0              0              0              0.71802523   
       719   0              0              0              0              0              0.71752629   
       720   0              0              0              0              0              0.7169063    
       721   0              0              0              0              0              0.71617453   
       722   0              0              0              0              0              0.71534105   
       723   0              0              0              0              0              0.71441638   
       724   0              0              0              0              0              0.71341126   
       725   0              0              0              0              0              0.71233641   
       726   0              0              0              0              0              0.71120243   
       727   0              0              0              0              0              0.71001969   
       728   0              0              0              0              0              0.70879831   
       729   0              0              0              0              0              0.70754816   
       730   0              0              0              0              0              0.70627882   
       731   0              0              0              0              0              0.70499964   
       732   0              0              0              0              0              0.70371965   
       733   0              0              0              0              0              0.7024476    
       734   0              0              0              0              0              0.70119186   
       735   0              0              0              0              0              0.69996036   
       736   0              0              0              0              0              0.69876047   
       737   0              0              0              0              0              0.69759886   
       738   0              0              0              0              0              0.69648137   
       739   0              0              0              0              0              0.69541286   
       740   0              0              0              0              0              0.69439697   
       741   0              0              0              0              0              0.69343602   
       742   0              0              0              0              0              0.69253086   
       743   0              0              0              0              0              0.69168077   
       744   0              0              0              0              0              0.6908834    
       745   0              0              0              0              0              0.6901348    
       746   0              0              0              0              0              0.68942956   
       747   0              0              0              0              0              0.68876096   
       748   0              0              0              0              0              0.68812128   
       749   0              0              0              0              0              0.68750212   
       750   0              0              0              0              0              0.68689489   
       751   0              0              0              0              0              0.68629121   
       752   0              0              0              0              0              0.68568349   
       753   0              0              0              0              0              0.6850654    
[...]
      1697   0              0              0              0              0              0.68345499   
      1698   0              0              0              0              0              0.68296857   
      1699   0              0              0              0              0              0.68257773   
      1700   0              0              0              0              0              0.68226277   
      1701   0              0              0              0              0              0.6820055    
      1702   0              0              0              0              0              0.68179008   
      1703   0              0              0              0              0              0.68160375   
      1704   0              0              0              0              0              0.6814374    
      1705   0              0              0              0              0              0.68128588   
      1706   0              0              0              0              0              0.68114811   
      1707   0              0              0              0              0              0.681027     
      1708   0              0              0              0              0              0.68092923   
      1709   0              0              0              0              0              0.6808649    
      1710   0              0              0              0              0              0.68084706   
      1711   0              0              0              0              0              0.68089112   
      1712   0              0              0              0              0              0.68101423   
      1713   0              0              0              0              0              0.68123458   
      1714   0              0              0              0              0              0.68157067   
      1715   0              0              0              0              0              0.68204062   
      1716   0              0              0              0              0              0.68266135   
      1717   0              0              0              0              0              0.68344794   
      1718   0              0              0              0              0              0.68441286   
      1719   0              0              0              0              0              0.68556535   
      1720   0              0              0              0              0              0.68691084   
      1721   0              0              0              0              0              0.68845046   
      1722   0              0              0              0              0              0.69018065   
      1723   0              0              0              0              0              0.69209293   
      1724   0              0              0              0              0              0.69417385   
      1725   0              0              0              0              0              0.69640524   
      1726   0              0              0              0              0              0.69876464   
      1727   0              0              0              0              0              0.70122607   
      1728   0              0              0              0              0              0.70376095   
      1729   0              0              0              0              0              0.70633925   
      1730   0              0              0              0              0              0.70893062   
      1731   0              0              0              0              0              0.71150563   
      1732   0              0              0              0              0              0.71403683   
      1733   0              0              0              0              0              0.71649964   
      1734   0              0              0              0              0              0.71887311   
      1735   0              0              0              0              0              0.72114024   
      1736   0              0              0              0              0              0.72328818   
      1737   0              0              0              0              0              0.72530808   
      1738   0              0              0              0              0              0.72719466   
      1739   0              0              0              0              0              0.72894573   
      1740   0              0              0              0              0              0.73056145   
      1741   0              0              0              0              0              0.73204364   
      1742   0              0              0              0              0              0.73339506   
      1743   0              0              0              0              0              0.73461876   
      1744   0              0              0              0              0              0.73571754   
      1745   0              0              0              0              0              0.73669357   
      1746   0              0              0              0              0              0.7375481    
      1747   0              0              0              0              0              0.73828141   
      1748   0              0              0              0              0              0.7388929    
      1749   0              0              0              0              0              0.73938131   
      1750   0              0              0              0              0              0.73974512   
      1751   0              0              0              0              0              0.73998308   
      1752   0              0              0              0              0              0.74009472   
      1753   0              0              0              0              0              0.74008097   
      1754   0              0              0              0              0              0.73994469   
      1755   0              0              0              0              0              0.73969103   
      1756   0              0              0              0              0              0.73932765   
      1757   0              0              0              0              0              0.73886471   
      1758   0              0              0              0              0              0.73831462   
      1759   0              0              0              0              0              0.7376916    
      1760   0              0              0              0              0              0.73701111   
      1761   0              0              0              0              0              0.73628911   
      1762   0              0              0              0              0              0.73554144   
      1763   0              0              0              0              0              0.73478308   
      1764   0              0              0              0              0              0.73402761   
      1765   0              0              0              0              0              0.73328679   
      1766   0              0              0              0              0              0.73257024   
      1767   0              0              0              0              0              0.73188532   
      1768   0              0              0              0              0              0.73123716   
      1769   0              0              0              0              0              0.73062878   
      1770   0              0              0              0              0              0.7300614    
      1771   0              0              0              0              0              0.72953478   
      1772   0              0              0              0              0              0.72904759   
      1773   0              0              0              0              0              0.72859788   
      1774   0              0              0              0              0              0.72818336   
      1775   0              0              0              0              0              0.72780181   
      1776   0              0              0              0              0              0.7274513    
      1777   0              0              0              0              0              0.72713033   
      1778   0              0              0              0              0              0.72683795   
      1779   0              0              0              0              0              0.72657372   
      1780   0              0              0              0              0              0.72633771   
      1781   0              0              0              0              0              0.72613036   
      1782   0              0              0              0              0              0.72595242   
      1783   0              0              0              0              0              0.7258048    
      1784   0              0              0              0              0              0.72568847   
      1785   0              0              0              0              0              0.72560441   
      1786   0              0              0              0              0              0.7255535    
      1787   0              0              0              0              0              0.72553646   
      1788   0              0              0              0              0              0.72555375   
      1789   0              0              0              0              0              0.72560554   
      1790   0              0              0              0              0              0.72569153   
      1791   0              0              0              0              0              0.72581085   
      1792   0              0              0              0              0              0.72596192   
      1793   0              0              0              0              0              0.7261423    
      1794   0              0              0              0              0              0.72634854   
      1795   0              0              0              0              0              0.72657609   
      1796   0              0              0              0              0              0.72681928   
      1797   0              0              0              0              0              0.72707128   
      1798   0              0              0              0              0              0.72732417   
      1799   0              0              0              0              0              0.72756911   
      1800   0              0              0              0              0              0.72779646   
      1801   0              0              0              0              0              0.72799599   
      1802   0              0              0              0              0              0.72815713   
      1803   0              0              0              0              0              0.72826919   
      1804   0              0              0              0              0              0.72832157   
      1805   0              0              0              0              0              0.72830405   
      1806   0              0              0              0              0              0.72820699   
      1807   0              0              0              0              0              0.72802156   
      1808   0              0              0              0              0              0.72774007   
      1809   0              0              0              0              0              0.7273562    
      1810   0              0              0              0              0              0.72686527   
      1811   0              0              0              0              0              0.72626456   
      1812   0              0              0              0              0              0.72555353   
      1813   0              0              0              0              0              0.72473399   
      1814   0              0              0              0              0              0.72381023   
      1815   0              0              0              0              0              0.72278897   
      1816   0              0              0              0              0              0.72167918   
      1817   0              0              0              0              0              0.72049177   
      1818   0              0              0              0              0              0.71923913   
      1819   0              0              0              0              0              0.71793454   
      1820   0              0              0              0              0              0.7165915    
      1821   0              0              0              0              0              0.71522302   
      1822   0              0              0              0              0              0.71384102   
      1823   0              0              0              0              0              0.7124557    
      1824   0              0              0              0              0              0.71107519   
      1825   0              0              0              0              0              0.70970527   
      1826   0              0              0              0              0              0.70834938   
      1827   0              0              0              0              0              0.70700876   
      1828   0              0              0              0              0              0.70568281   
      1829   0              0              0              0              0              0.70436955   
      1830   0              0              0              0              0              0.70306626   
      1831   0              0              0              0              0              0.70177005   
      1832   0              0              0              0              0              0.70047847   
      1833   0              0              0              0              0              0.69919008   
      1834   0              0              0              0              0              0.69790488   
      1835   0              0              0              0              0              0.69662462   
      1836   0              0              0              0              0              0.69535299   
      1837   0              0              0              0              0              0.69409559   
      1838   0              0              0              0              0              0.69285991   
      1839   0              0              0              0              0              0.69165496   
      1840   0              0              0              0              0              0.69049105   
      1841   0              0              0              0              0              0.6893793    
      1842   0              0              0              0              0              0.68833118   
      1843   0              0              0              0              0              0.68735806   
      1844   0              0              0              0              0              0.68647076   
      1845   0              0              0              0              0              0.68567905   
      1846   0              0              0              0              0              0.68499135   
      1847   0              0              0              0              0              0.68441439   
      1848   0              0              0              0              0              0.68395296   
      1849   0              0              0              0              0              0.68360984   
      1850   0              0              0              0              0              0.68338569   
      1851   0              0              0              0              0              0.68327909   
      1852   0              0              0              0              0              0.68328672   
      1853   0              0              0              0              0              0.68340347   
      1854   0              0              0              0              0              0.68362274   
      1855   0              0              0              0              0              0.68393673   
      1856   0              0              0              0              0              0.68433674   
      1857   0              0              0              0              0              0.68481353   
      1858   0              0              0              0              0              0.68535766   
      1859   0              0              0              0              0              0.68595987   
      1860   0              0              0              0              0              0.68661135   
      1861   0              0              0              0              0              0.68730409   
      1862   0              0              0              0              0              0.68803113   
      1863   0              0              0              0              0              0.68878682   
      1864   0              0              0              0              0              0.68956696   
      1865   0              0              0              0              0              0.69036901   
      1866   0              0              0              0              0              0.69119208   
      1867   0              0              0              0              0              0.69203701   
      1868   0              0              0              0              0              0.69290624   
      1869   0              0              0              0              0              0.69380371   
      1870   0              0              0              0              0              0.69473457   
      1871   0              0              0              0              0              0.69570493   
      1872   0              0              0              0              0              0.6967214    
      1873   0              0              0              0              0              0.69779065   
      1874   0              0              0              0              0              0.69891888   
      1875   0              0              0              0              0              0.70011122   
      1876   0              0              0              0              0              0.7013712    
      1877   0              0              0              0              0              0.70270011   
      1878   0              0              0              0              0              0.70409658   
      1879   0              0              0              0              0              0.7055561    
      1880   0              0              0              0              0              0.7070708    
      1881   0              0              0              0              0              0.7086294    
      1882   0              0              0              0              0              0.71021726   
      1883   0              0              0              0              0              0.71181684   
      1884   0              0              0              0              0              0.71340824   
      1885   0              0              0              0              0              0.71497002   
      1886   0              0              0              0              0              0.71648021   
      1887   0              0              0              0              0              0.71791735   
      1888   0              0              0              0              0              0.71926165   
      1889   0              0              0              0              0              0.72049606   
      1890   0              0              0              0              0              0.72160717   
      1891   0              0              0              0              0              0.72258597   
      1892   0              0              0              0              0              0.72342832   
