128
Lattice="14.2121085805106 0.0 0.0 0.0 14.2121085805106 0.0 0.0 0.0 14.2121085805106" Properties=species:S:1:pos:R:3:forces:R:3 energy=-910.4131857348227 pbc="T T T"
Hf       0.11348227      14.20813487       0.04902040      -0.61856783       0.47254608       0.40116662
Hf       1.82531227       1.79446915       1.81292073      -0.03692122       0.03154636       0.14889815
Hf      14.18596114       0.00671096       3.46632049       0.17654676      -0.03234334       0.25418008
Hf       1.70951059       1.83843289       5.25293177      -0.05877433      -0.60076922       0.23171804
Hf      14.10116033       0.01135405       7.06707332       0.58738651      -0.47767027       0.52404317
Hf       1.80426840       1.84651389       8.85146893      -0.28537953      -0.14047308       0.11367923
Hf      14.16841061       0.06404260      10.65282527      -0.01680606      -0.02289517      -0.32303758
Hf       1.69047489       1.87914063      12.40726743       0.60955857      -0.30789405      -0.29237206
Hf       0.09042170       3.57438794      14.09925449      -0.77449987       0.17558986       0.74813993
Hf       1.83533607       5.29059670       1.80155104      -0.42561046      -0.05359625       0.11805658
Hf      14.16484906       3.49929969       3.63534510       0.08924973       0.17370469      -0.45844053
Hf       1.80242367       5.43923688       5.25603996      -0.13853107      -0.11985799      -0.00332230
Hf       0.07074930       3.52126308       7.10680043      -0.14686681       0.24041932      -0.07034593
Hf       1.72792095       5.29190279       8.95636992      -0.06519142       0.09915920      -0.55546349
Hf      14.12592067       3.62712766      10.69633706       0.22659645      -0.57744890       0.10909764
Hf       1.80555033       5.25847449      12.56901402       0.20007308       0.61576879      -0.84297391
Hf      14.16813205       7.09160626      14.21180302      -0.09344794      -0.32178197       0.34600357
Hf       1.84447445       8.93489685       1.73838675      -0.25474122      -0.07771254      -0.33451421
Hf       0.03641569       7.17362292       3.45429989      -0.12912299      -0.20390978       0.08585335
Hf       1.69796041       8.65073995       5.42099279       0.78923375       1.17453459      -0.64071674
Hf      14.18167193       7.13846358       7.03124886      -0.20533265      -1.07546065       0.75015480
Hf       1.63913933       8.94644418       8.97688794       1.05819852       0.10318267      -1.08885429
Hf       0.15413884       7.21666571      10.65536071      -0.83523665      -0.82450112       0.59078885
Hf       1.71340328       8.86753856      12.49876641       0.66821910      -0.09060262       0.02760410
Hf       0.06775054      10.66780199      14.15762362      -0.47739909      -0.27506574       0.74511601
Hf       1.83651283      12.47027966       1.68833739       0.12099125      -0.28975616       0.64238190
Hf      14.13245113      10.61190434       3.42957651       0.75528037       0.07571684       0.83532449
Hf       1.80552333      12.28998059       5.33047161      -0.26184002       0.57105089      -0.40240981
Hf       0.03406927      10.68544063       7.02858551       0.30619078      -0.23392582       0.31602777
Hf       1.79961251      12.41840404       8.97362626      -0.18200977       0.04836302      -0.46562999
Hf       0.01529365      10.59629376      10.72130063      -0.42846087      -0.06146420       0.30848755
Hf       1.62351596      12.46083003      12.54386143       0.66226034       0.20672012      -1.03667986
Hf       3.55794596      14.14799349       0.01220536       0.12407232       0.36522517      -0.17998913
Hf       5.36192159       1.89066523       1.80550485      -0.32281593      -0.61610495      -0.27073412
Hf       3.52067754       0.04714725       3.65283026       0.02520362      -0.49041867      -0.27093058
Hf       5.27717478       1.78756207       5.24124515       0.55993321      -0.01685665       0.20497210
Hf       3.51016200       0.02227322       7.10687717       0.11290914      -0.27889778      -0.27090955
Hf       5.44528129       1.61908036       8.87980361      -0.67779675       0.56101678       0.00766636
Hf       3.54635882       0.10746486      10.63463661      -0.04074701      -0.22343294       0.21356802
Hf       5.28504971       1.76451855      12.50368664       0.00829323       0.25880949      -0.29368557
Hf       3.51632864       3.57323676       0.04292767       0.40341249      -0.01138196      -0.21524688
Hf       5.37914950       5.34374004       1.69761932      -0.37677850      -0.05566530       0.18579401
Hf       3.57726021       3.56502074       3.61794379       0.04244226       0.11782187      -0.30427697
Hf       5.32090828       5.26170632       5.37711433       0.57588709       0.24468378       0.01040919
Hf       3.52791009       3.51422240       6.94803554      -0.00875598       0.23979358       0.86975133
Hf       5.48107022       5.33199089       8.86693454      -0.67453076      -0.09343697      -0.07985009
Hf       3.48735299       3.58189194      10.56226002       0.76677515      -0.18821192       0.55173466
Hf       5.49647330       5.47277177      12.46900199      -1.09695498      -0.31745496      -0.23148970
Hf       3.53401561       7.06728508       0.11851477       0.21334829       0.05775695      -0.42457822
Hf       5.37751938       8.83808965       1.80646701      -0.26478977       0.35482140      -0.06112631
Hf       3.62716603       7.12560447       3.52239863      -0.05937561       0.14982987       0.05485655
Hf       5.39879348       8.90161635       5.36615253       0.06164448      -0.17329886      -0.43584346
Hf       3.65087609       7.00857912       7.07950607      -0.34803127       0.23242508       0.47183781
Hf       5.28160185       8.81115912       8.92637669       0.63016244       0.15523375      -0.31880453
Hf       3.55467006       7.12834172      10.66285191      -0.30451901      -0.29861656       0.08641884
Hf       5.31358194       8.95494018      12.49736367       0.12790982      -0.57406879      -0.42856332
Hf       3.53314441      10.75815404      14.11378921      -0.20646245      -0.27448857       0.49923853
Hf       5.28290368      12.37260126       1.81275303       0.36270438       0.44510728      -0.35865463
Hf       3.62368975      10.62147620       3.41623418      -0.19628876      -0.15412041       1.04418367
Hf       5.46867300      12.40237705       5.40535521      -0.78517937       0.10547184      -0.49463757
Hf       3.64235593      10.69127470       7.05933767      -0.40556286      -0.30680651       0.55557334
Hf       5.36729661      12.47317324       8.90515801       0.03091024      -0.00838748      -0.21904686
Hf       3.55718703      10.64346517      10.65170535      -0.20672718      -0.13475279       0.26079815
Hf       5.30135953      12.34327315      12.43780641       0.50745079       0.41958182      -0.06613122
Hf       7.10846609       0.03985644      14.15512939      -0.33147355      -0.26595890       0.13502773
Hf       8.95597767       1.66556817       1.77368821      -0.38808355       0.58536932      -0.24641105
Hf       7.16187519      14.18797642       3.58271908      -0.33008298       0.04155725      -0.22209268
Hf       8.81564162       1.83880098       5.32027584       0.02965499       0.02626279      -0.07490349
Hf       7.10008236       0.01425190       7.02321333       0.23024577       0.34255916       0.19545388
Hf       8.97525213       1.74540042       8.86016105      -0.29537964      -0.24707745       0.13725494
Hf       7.04843698       0.00627891      10.68364280       0.39934620      -0.22215252       0.78413557
Hf       8.85724331       1.87606087      12.50845196       0.17322071      -0.40840332      -0.11846915
Hf       7.04207422       3.67697663      14.13420349       0.40709227      -0.66890006       0.45729762
Hf       8.88176346       5.48067512       1.74319328       0.14589368      -0.93468122      -0.22385132
Hf       7.01600921       3.60613922       3.47203234       0.51368605       0.19984352       0.11608364
Hf       8.79283261       5.22464399       5.38335629       0.15745931      -0.06506429      -0.20290985
Hf       7.04526200       3.48530076       7.17774727       0.23776346      -0.26084243      -0.10435583
Hf       8.86459949       5.29505077       8.92449643       0.43984279      -0.06851865      -0.59005416
Hf       7.24056337       3.53810301      10.72712901      -0.76196022      -0.12458183      -0.32546115
Hf       8.88969097       5.27605771      12.40935377       0.28003863       0.17352388       0.29686793
Hf       7.10266470       7.14194271       0.06756010       0.17183775       0.31001046      -0.02078095
Hf       9.00231767       8.88706742       1.71175184      -0.35276766      -0.24090093       0.29050776
Hf       7.14590789       7.02314085       3.51648497       0.01070026       0.22938067       0.38753734
Hf       8.89177305       9.07978361       5.24300319      -0.19795869      -1.28079390      -0.34046615
Hf       7.23073001       7.10004825       7.14790184      -0.41314931       0.36810312      -0.27350633
Hf       8.88800542       8.78603638       8.92288761       0.05808783       0.46900680       0.21883196
Hf       7.16594554       6.91711426      10.58014170      -0.02914517       0.93698990       0.15028911
Hf       8.80146504       8.77023109      12.43647332       0.58260854       0.46664289      -0.26415039
Hf       7.15263448      10.50888645       0.02604511       0.01649607       0.43064359      -0.07712600
Hf       8.88300275      12.47280373       1.74682164       0.06173746       0.53973073      -0.26904727
Hf       7.15868599      10.77184173       3.54363010      -0.16646714      -0.16671721      -0.12183298
Hf       8.88393365      12.53332457       5.32580293       0.00089700      -0.37544910       0.06739679
Hf       7.16859183      10.59438650       6.98673227      -0.07347218       0.11325646       0.93562655
Hf       8.77859776      12.46146389       8.91600185       0.26202095      -0.05719762      -0.03038247
Hf       7.17356181      10.70159980      10.78047416      -0.48560142      -0.29194840      -0.52589972
Hf       8.86835291      12.31076437      12.45243351       0.20891264       0.65532986       0.04766005
Hf      10.78646172       0.09206320      14.20950776      -0.71664084      -0.71410522      -0.22432429
Hf      12.40385653       1.82912680       1.69041946       0.35828516       0.25299216       0.28843415
Hf      10.64787661       0.09817156       3.54196870       0.34724495      -0.29511561       0.29702986
Hf      12.51865057       1.80081628       5.36475548      -0.31883120      -0.14047873       0.29922029
Hf      10.63578210      14.14090876       7.14744990       0.34613752      -0.05815964      -0.17376782
Hf      12.29390313       1.73287671       8.82663185       0.34735864       0.32662026      -0.15466123
Hf      10.72617396      14.20811640      10.70309065      -0.14389411      -0.42732932       0.05464379
Hf      12.45341983       1.77388860      12.49746032       0.59050701      -0.04266232      -0.17123068
Hf      10.70119191       3.48509469      14.13122036      -0.37510170       0.35090052       0.52315858
Hf      12.37301199       5.24391987       1.93153215       0.34525541      -0.00713308      -0.58774040
Hf      10.72099507       3.56325844       3.68346019      -0.49159260      -0.44508747      -0.27023749
Hf      12.44100272       5.24925510       5.28547181       0.08126901       0.63385775       0.07736537
Hf      10.59854354       3.52594171       7.07118346       0.22589505       0.20218793      -0.06992571
Hf      12.46869785       5.27409928       8.95357440       0.11318045       0.60929641      -0.40447813
Hf      10.72494035       3.51829844      10.63194626      -0.40654489      -0.18546654       0.14408850
Hf      12.28378695       5.27631779      12.38475545       0.70809577       0.46576253      -0.17429269
Hf      10.68151099       7.05674254      14.15856730       0.31592816       0.02782335       0.38058613
Hf      12.48962944       8.92754208       1.81799303      -0.78474745      -0.04058488      -0.75139531
Hf      10.57857837       7.08938917       3.40152607       0.24495286       0.10388635       1.07704295
Hf      12.46038945       8.83171694       5.38191802      -0.12778847       0.45155803      -0.76589556
Hf      10.71875239       7.17563820       7.07207314      -0.52381470      -0.56341124       0.06995517
Hf      12.54418689       8.82773613       8.72566192      -0.25150019       0.57909838       0.49381734
Hf      10.63412639       7.06336538      10.67428981       0.03545883       0.28821289      -0.15370272
Hf      12.38529836       8.87920244      12.49838695       0.14662053       0.06317735       0.01347248
Hf      10.62413244      10.75680674       0.06263418       0.27033033      -0.29312638      -0.26886298
Hf      12.39079702      12.43346746       1.85413442      -0.02738798       0.07650728      -0.35710950
Hf      10.58162544      10.74737416       3.55868072       0.51519088      -0.12862926      -0.07892164
Hf      12.46624484      12.33546786       5.36220299      -0.17741287       0.44788582      -0.58601803
Hf      10.57776117      10.60848207       6.97258554       0.19657497       0.25311129       0.95488287
Hf      12.46737755      12.25557165       8.95181778       0.31381609       0.80866285      -0.77258539
Hf      10.78990674      10.69694107      10.57291200      -0.74337565      -0.52069926       0.57301803
Hf      12.58343505      12.45147846      12.50113557      -0.36825801       0.01907507      -0.34410087
128
Lattice="14.2121085805106 0.0 0.0 0.0 14.2121085805106 0.0 0.0 0.0 14.2121085805106" Properties=species:S:1:pos:R:3:forces:R:3 energy=-909.6631855065126 pbc="T T T"
Hf      14.20008615       0.21952374       0.02506786      -0.66931229      -0.81429912      -0.09326578
Hf       1.73185811       1.54382815       1.75459323       1.26962146       0.82450602       0.28695192
Hf      14.19631479       0.04569048       3.48347775      -0.62410503      -0.29882610       0.42733339
Hf       1.70297262       1.79975591       5.22555242      -0.08379215       0.90994881       0.15159735
Hf       0.04017265      14.15624363       6.81762279      -0.44304968      -0.26496768       0.19565189
Hf       1.61052658       1.66802756       8.77969171      -0.00356846      -0.06416066      -0.14453800
Hf      14.06295964       0.24326871      10.69791039       0.47630348      -0.40908781       0.37652149
Hf       1.71881510       1.90409001      12.43573588       0.21358154      -0.50673729       0.08901357
Hf       0.02977467       3.59178579      14.20105998       0.21626053       0.22498062       0.91989340
Hf       1.96896065       5.39187219       1.69978865      -0.99788434       0.46770671       0.44850669
Hf      14.19680118       3.49013456       3.42664141       0.45057607      -0.08866945       0.06732333
Hf       1.81191057       5.20396076       5.20524617      -0.08907882       0.37057118       0.60093025
Hf      14.16104935       3.66711113       7.04725031       0.04546226       0.09821046       0.25667445
Hf       1.87285996       5.45907532       8.73994548      -0.52368452      -0.91386803       0.79802606
Hf       0.06933955       3.35176440      10.50659893      -0.01047868       1.17148144       0.07251920
Hf       1.99136510       5.26954292      12.40996338      -1.62583085      -0.64657647       0.42020477
Hf       0.03165439       7.15546166      14.16825211      -0.34734389       0.04879464      -0.14420374
Hf       1.85476062       8.80876833       1.72231977       0.49638058      -0.52468819       0.22249534
Hf      14.15443248       7.29502235       3.58604628       0.23598658      -0.02917016      -0.34711804
Hf       1.88107486       8.83626035       5.36002738      -0.18917057       0.13542807       0.32698559
Hf      14.16358625       6.98104574       7.24358061       0.03780934       0.47538037      -0.93894884
Hf       1.89480767       8.94311192       8.78611849      -0.69943613      -0.31563507       0.17797345
Hf       0.14480447       7.25594200      10.86507701      -0.10785766       0.17204474      -0.62909563
Hf       2.00767664       8.80508662      12.63611504      -0.60847607      -0.43736131       0.33939272
Hf       0.11156431      10.59479539       0.17227898       0.18779045       0.53282723      -0.80810320
Hf       1.84069891      12.61817054       1.74928103       0.17104819       0.03676445       0.04151862
Hf       0.13440629      10.72622799       3.58509484      -0.53964408      -0.86214118      -0.70463189
Hf       1.82283408      12.37207357       5.24629893       0.42458749      -0.03569097       0.33005868
Hf       0.06776118      10.74622558       7.03928937      -0.21662371       0.09595126      -0.19626408
Hf       1.67481119      12.49868056       8.74472683      -0.26248795      -0.20303278       0.94388416
Hf       0.06196834      10.47592695      10.90172153       0.24866913       0.24530909      -0.42518696
Hf       1.76965742      12.61797061      12.46888702      -0.75996725      -0.11456584       0.01518382
Hf       3.67295423       0.09913062      14.01021037      -0.14757212      -0.69328499      -0.29104745
Hf       5.18758328       1.70626369       1.60571512       0.31908681      -0.05138301       0.87389795
Hf       3.52399188       0.00789004       3.78431904       0.18620157       0.29500742      -0.94796059
Hf       5.37874973       1.80346145       5.33337350      -0.09620507      -0.83261668       0.30849911
Hf       3.35999386       0.08001260       7.12670995       0.48868999      -0.07933976      -0.33981906
Hf       5.37405225       1.66323488       8.89248048       0.23879785      -0.12224305       0.24669484
Hf       3.42458994       0.04041673      10.59411678       0.47328550       0.12242613       0.15567927
Hf       5.32533034       1.96480620      12.41662755      -0.27307956      -0.49806105      -0.05899925
Hf       3.51093497       3.50996376       0.09123752      -0.02864082       0.11362220      -0.31269384
Hf       5.23791525       5.30458920       1.83351721       0.62561841      -0.07030091      -0.45110057
Hf       3.63476084       3.51175090       3.43858156      -0.31528571      -0.16734024       0.28425005
Hf       5.29387541       5.38934724       5.43120332       0.26147917      -0.57296831       0.23975730
Hf       3.53577708       3.35120015       7.14859979       0.12865892       0.54821776       0.07945512
Hf       5.57303789       5.23483153       8.80522742      -0.58208744       0.39664266       0.21780224
Hf       3.55927690       3.50194403      10.72459658      -0.14698386       0.09887234      -1.60930816
Hf       5.40344064       5.22497395      12.29231911       0.13224008      -0.02262757       0.34511666
Hf       3.68217587       6.90973827      14.02565512       0.31968362      -0.44427313       0.87639808
Hf       5.18328957       8.80578828       1.71267588       0.40224948       0.49329030      -0.00173314
Hf       3.63859453       6.97595811       3.56999306      -0.37548259       0.51639279       0.30771030
Hf       5.37764340       8.79475653       5.22657565      -0.22779587       0.00924190       0.57015854
Hf       3.63525896       7.15122622       7.29281525       0.50956314       0.18086256      -0.69394316
Hf       5.43047519       8.96922443       8.94029978      -0.87786327      -0.75138145      -0.65512061
Hf       3.47226420       6.94409663      10.74291055       0.97594969       1.02354555      -0.98253459
Hf       5.13017953       8.88661395      12.67810414       0.66323187       0.56296475      -0.55746212
Hf       3.35742282      10.78994699      14.17008939       0.36756312       0.56806336       0.43059617
Hf       5.38278550      12.42695303       1.74313712      -0.31307655       0.07385250      -0.02594390
Hf       3.62392180      10.63650639       3.52925269      -0.06018787       0.39647026       0.09231432
Hf       5.29409902      12.71045231       5.39645016       0.27624611      -0.56858143       0.21991187
Hf       3.65682357      10.75339085       7.09432608       0.26516098      -0.28810069      -0.13226017
Hf       5.46462141      12.53892820       8.93748291      -0.30744487       0.02893119       0.13472494
Hf       3.35629382      10.54285135      10.82893574       0.73006598       0.93127441      -0.62240406
Hf       5.34414536      12.35737414      12.28819830      -0.19527749      -0.32373683       0.28948980
Hf       7.00355568      14.19628869      14.19866675       0.50545102       0.32658308      -0.57743852
Hf       9.10180293       1.74040196       1.78576960      -0.59946622      -0.92037121      -0.37624277
Hf       7.10607844       0.05077845       3.47754052      -0.01939342      -0.07115530      -0.22171582
Hf       8.85205196       1.80002137       5.32367150       0.37537818       0.02509545      -0.40976815
Hf       7.34944418      14.14957664       7.11331939      -0.36309328       0.49324810      -0.04859625
Hf       9.00596068       1.70654246       8.98548975      -0.21399069      -0.46007072       0.12360045
Hf       7.17678246       0.09115662      10.95242418      -0.12847770       0.19872735      -0.53131993
Hf       9.07379990       1.82622763      12.47383045      -0.18614313       0.44072391       0.08704372
Hf       7.11695032       3.38746113      14.11017205      -0.08323837      -0.08263227       0.84506535
Hf       8.89119063       5.31864430       1.55463399      -0.81527319       0.07846006       0.97456689
Hf       7.04353876       3.47910806       3.56444440       0.05866557       0.07504465      -0.57374444
Hf       8.76483812       5.04592274       5.41598110       0.47546985       0.57115941       0.00797964
Hf       7.11989806       3.34430214       7.09280327      -0.19204429       0.04858718       0.51416652
Hf       8.87682428       5.33742749       8.75412484      -0.89463813      -0.18133931      -0.19697186
Hf       7.18971064       3.54706416      10.69582841       0.60787365      -0.37501994      -0.10252183
Hf       8.90662938       5.14775384      12.75946005      -0.27554318       0.72961577      -1.32761053
Hf       7.05952003       7.12939791       0.13736518      -0.30770677       0.04020462      -1.05895795
Hf       8.73648603       8.70805251       1.87594528       0.53310585       0.85400420       0.55200180
Hf       7.05381110       7.06219409       3.59998591       0.06664565      -0.90049020      -0.29680196
Hf       8.78704130       8.89188296       5.20571988       0.39439274       0.74966888      -0.10811433
Hf       7.32514527       7.18841181       6.99484387      -0.77405708      -0.11182648       0.05868075
Hf       8.75977933       8.86535432       8.98785969       0.68778542      -0.02809064      -0.07411001
Hf       7.14793938       7.23777377      10.77421491      -0.19410415      -0.65659434       0.28074901
Hf       9.12095873       8.86381672      12.27080966      -0.75018649       0.07123549      -0.00734918
Hf       7.31726048      10.59196629       0.02326223      -0.87711110      -0.53472772      -0.48263876
Hf       8.86674593      12.45323554       1.60025461       0.04903989       0.67119971       1.38138847
Hf       7.07067014      10.81510673       3.65326343      -0.11222069      -0.05982329      -0.34269968
Hf       8.98268205      12.48092696       5.33456071      -0.45233868      -0.64680325       0.00804127
Hf       7.06314106      10.67676702       7.07979182       0.07496690       0.37388391      -0.18060704
Hf       8.83112439      12.52101393       9.00862298      -0.03962988      -0.29609533       0.52782850
Hf       6.91980568      10.46105834      10.63622501       0.50731405       0.23055215       0.82926899
Hf       8.86700036      12.17067988      12.18760262      -0.22795445       0.35688391       0.19529277
Hf      10.58139382      14.00312705      13.97283946       0.32053016       0.44759485       0.16646893
Hf      12.31127286       1.88591559       1.77430305       0.05647773      -0.96612934       0.01480305
Hf      10.75222888      14.18228950       3.81995171      -0.51206513       0.11384567      -1.10022649
Hf      12.36590970       1.82473594       5.23094628       0.42070395       0.71674062       0.51280039
Hf      10.62890967      14.11653228       7.03990770       0.21431443       0.29931984       0.23228934
Hf      12.39575116       1.81701311       8.78052459       0.12083275      -0.50843806      -0.21629864
Hf      10.85045442       0.09786604      10.85172894      -0.23872250      -0.54593583      -0.37315089
Hf      12.53468646       1.93362040      12.52482542      -0.86612398       0.28764277       0.11058610
Hf      10.72540006       3.59960251       0.13333608       0.68580965       0.39844719      -0.04407833
Hf      12.56268657       5.39168317       1.91006630      -0.29223769       0.13851565      -0.13284798
Hf      10.53185923       3.60720243       3.38626121       0.33238788       0.62324487       0.50114671
Hf      12.42135976       5.32197956       5.21774736      -0.07548210       0.05355784      -0.29609700
Hf      10.66882218       3.51277771       7.21495361       0.16626951       0.43016378      -0.26095700
Hf      12.44905651       5.33491205       8.97746132       0.22167543      -0.13417131       0.35617924
Hf      10.58366751       3.63118816      10.60260170       0.27578209       0.18555273       0.08265479
Hf      12.53480556       5.35172499      12.39602555      -0.19675938      -0.39605540      -0.46305637
Hf      10.61899980       7.08616357       0.02931657       0.46933767      -0.05698947       0.05859170
Hf      12.29962609       9.06237207       1.50866396       0.22068250      -0.55210112       1.16536839
Hf      10.53102091       7.08022526       3.50617889       0.61584767      -0.18475718       0.29514071
Hf      12.50393639       8.91982292       5.45110071      -0.42764247       0.10269106       0.32493043
Hf      10.53947028       7.00595772       7.05002343       0.43698832       0.47567022      -0.07070423
Hf      12.49762643       9.04465484       8.91089613       0.30877824      -1.09194204      -0.42741236
Hf      10.56795086       6.81732054      10.61186144      -0.11271495       0.77529168       0.43349608
Hf      12.19772907       8.94498021      12.47911876       0.83767686      -0.68260209       0.32480624
Hf      10.43345080      10.64279652      14.18432426       0.04190991       0.36751796       0.10169055
Hf      12.31375447      12.51923706       1.83521881       0.10488991      -0.53187803      -0.38410308
Hf      10.60756579      10.71650327       3.62081647      -0.24830313      -0.69389964      -0.83844647
Hf      12.36205692      12.31403257       5.23451231       0.46676384      -0.22031106       0.48263021
Hf      10.58981323      10.72643823       7.29732637       0.21316881       0.01724382      -0.19339832
Hf      12.62517053      12.60983979       8.95610627      -0.10292642      -0.71423578      -0.10541138
Hf      10.83190046      10.61544323      10.61441536      -0.03511056       1.01055243      -0.94957434
Hf      12.49452783      12.39511636      12.45710742       0.65870893      -0.32785042       0.15630506
128
Lattice="14.2121085805106 0.0 0.0 0.0 14.2121085805106 0.0 0.0 0.0 14.2121085805106" Properties=species:S:1:pos:R:3:forces:R:3 energy=-910.9124118422121 pbc="T T T"
Hf      13.80485864       0.12212785      14.16178324       1.10015365       0.07255321      -0.30608179
Hf       2.07848769       1.58682980       1.76895172      -1.56214172      -0.48401805      -1.00311458
Hf      13.99015071      14.18814366       3.67636437       0.40605813       0.23591410      -0.52508689
Hf       1.64047246       2.08302787       5.31379401       0.03943577      -0.69458331       0.42367787
Hf       0.02815733      13.99446674       6.67244644      -0.35846144       0.52943144       0.06817540
Hf       1.41964264       1.46714589       8.62230706       0.29148150       0.51239096       0.12026893
Hf      14.10330890       0.28682097      10.91805825      -0.89925288       0.31376913      -0.11243724
Hf       1.88876426       1.71231288      12.44817207      -0.38334659       0.89252546       0.47261246
Hf      14.19103972       3.66985929       0.44316555       0.21890706      -1.04516829      -1.99954037
Hf       1.65107866       5.66082598       1.82955028       0.55842440      -0.82936468      -0.12126329
Hf       0.19908121       3.46454881       3.24765140      -0.41140763       0.02850258       0.98419233
Hf       1.79387331       5.14160715       5.40365641       0.23690415       0.31134830      -0.30480738
Hf      14.02558682       3.84975810       7.11374719      -0.15168023      -0.19519337       0.37903621
Hf       1.81037974       5.33520983       8.81333102      -0.00441379       1.43208895      -0.06241889
Hf       0.23707339       3.47129659      10.36952639      -0.46257540      -1.19457803       0.20358545
Hf       1.57545416       5.12486679      12.31469493       1.05959793       0.48958254       0.23174043
Hf      14.13716004       7.21886727      14.07807429      -0.11414316      -0.19681879       0.03146382
Hf       2.05515710       8.53754988       1.74269922      -0.10950883       1.37479211      -0.42662616
Hf      14.16619958       7.42424864       3.61527720       0.34046578       0.38193525       0.88165621
Hf       2.00077615       9.11293678       5.42310750      -0.54729009      -0.63201087       0.27936607
Hf      14.15355933       6.95456782       7.08507163      -0.08066724       0.40386222      -0.48288077
Hf       1.86263447       8.86536406       8.64739495      -0.49898105       0.31099024       0.66825842
Hf       0.07268928       7.33203587      10.82855685       0.98747982       0.07616407       0.06335069
Hf       2.15369972       8.62829194      12.87304281      -0.09314316       0.56282008      -0.74785149