LAMMPS DATA file

108 atoms 
2 atom types 

0.0000000000000000e+00  10.956 xlo xhi
0.0000000000000000e+00  10.956 ylo yhi
0.0000000000000000e+00  10.629 zlo zhi

Masses 

1 178.49 # element 72 
2 15.999 # element 8 

Atoms

   1 1    1.946749073018557485426072162    1.607798176727875505420684021    2.247543104798355617646166138
   2 1    3.236339754033867865956608512    7.287188386213158786119947763   10.609394754673417082813102752
   3 1    5.079187232510185445732986409    5.367579832864097788558410684    2.245989294164048910573683315
   4 1    8.928175316468465183561420417    5.130480650524773977849690709    7.822497629016032405502301117
   5 1    0.255214963547315987213437438    7.008694930119623300868170190    5.338307868376186426928597939
   6 1   10.731868700194411303527886048   10.880421729413939146979828365   10.619833375416238396837798064
   7 1    7.193775044909821225758150831    3.538799763919932228617426517    5.136406806773332611726345931
   8 1    7.274490846836356716664795385    7.108476961729027543412939849    5.458664707588607001298441901
   9 1    1.653194520971998482394837993    5.286756688210031640551278542    2.650345924258629359826500149
  10 1   10.708995603711962019133352442    3.273059613941414980331501283    5.301100704258732143614452070
  11 1   10.824825546026620060047207517    3.625350959959247720831854167    0.195333202298275609987143753
  12 1    1.930905472432507874458451624    5.149134634807355226371328172    7.784000540540337631512102234
  13 1    8.945800571673251155857542471    9.041898671933932263300448540    8.021262186672155181099697074
  14 1    1.722195695976466822685324587    1.694573424214547152644172456    7.933124347275405163770756189
  15 1    7.384391496936539844853086834    7.286296713809288227992055909   10.475749967183354272037831834
  16 1    8.724594095474023092151583114    9.031471954686558945013530320    2.955162702944178487740600758
  17 1    5.081347449129616222762706457    8.983079630928685332946770359    2.425456286287708262960904904
  18 1    5.446625530834854345130224829    9.306407200603972640351457812    7.973852753189784259291172930
  19 1    0.004445817412587871331197675   10.745809506867868066137816641    5.293682480719327010376673570
  20 1    3.531522670733147517552197314    3.482165508929451647190944641    5.191156414672176033775485848
  21 1   10.944498067049799772121332353    7.286903548566978194855892070   10.319914534038138853588861821
  22 1    1.648636306844622589906634857    9.099231862129048664655783796    7.933357509139836061251571664
  23 1    7.241728495495476813914592640    3.780469144329207331622910715    0.078294357858743474087859227
  24 1    8.948196556503139831306725682    5.407558547229646350729126425    2.670748736091778319234890660
  25 1    3.826458821647521713060768889    6.999722386313226962784028728    4.805633546616993712063958810
  26 1    3.774459704207543175868977414    0.050876060473360087965666310    0.021340261630718990182309369
  27 1    7.202649388841798838711838471    0.069711765156576413482447663    5.240966047707671826572095597
  28 1    5.663973601970710980424428271    1.621624565746076385153173760    2.632547905597803605814988259
  29 1    5.352410695043928079428496858    1.732138557511204046690522773    7.593283092855127591747077531
  30 1    1.429247869965768247269011226    8.991375583902195600671802822    2.576201342434767393996253304
  31 1    3.333319291202836431864398037   10.927971904843579054045221710    5.246504732685088434607223462
  32 1    3.737796311954892036766295860    3.619246542086551610140077173   10.208620117917998726397854625
  33 1    7.182479771196151219214698358   10.949115303845308844188366493   10.558408184253506689742607705
  34 1    9.035021209081808279961478547    1.793508949487719883464365012    2.519366459831049009920889148
  35 1    5.441644799257288944716037804    5.476886717022428463508276764    7.886311351074600572985673352
  36 1    9.052585401932871533858815383    1.701698484314010162421482164    7.772607340892524696585041966
  37 2   10.507547294170908713795142830    9.562187473307503182695654687    1.686379843231206487885742717
  38 2    5.061360825135386320994257403    7.096208242970116764070098725    3.337220636772551873860948035
  39 2   10.850716926063741496477632609    5.614820452974124798117827595    4.046792655565661256389375922
  40 2   10.527573234053656747732929944    1.748633940730436320265539507    4.196894037620732653692812164
  41 2    1.741194410704505646236839311   10.851572134274533709685783833    3.855066857319413564653132198
  42 2    1.706185858587522030660466044    0.070292399072563821471604228    1.162707116592778477937031312
  43 2    2.098624695410719276367217390    3.949084221222155299813039164    0.728707757349578599814776680
  44 2    0.448902483628148163408155824    1.933658834756010636013456860    9.737309312715892062328748580
  45 2    1.744649925259972977897859892   10.867600313670129352772164566    8.944135365962917916249352857
  46 2    1.762912138430288822021907436   10.496692616726431168672206695    6.273703268394194232371319231
  47 2   10.936473185118634532386749925    1.814273618965868362096216515    6.758862496446727874399584834
  48 2    1.891238396218417383565224554    3.384730710642545048472129565    3.325940072291476035104551556
  49 2    1.512503927079180687798043436    7.510968885947927553559111402    0.951342480833313075549995119
  50 2    1.777230016666300427274904905    7.180133124085098295097395749    8.912063438318877928168149083
  51 2   10.726170122989314492656376387    2.291827897099107946843332684    1.643767595531487435422945964
  52 2    3.722156143271204697953180585    5.105433963485126902526189951    6.458819746285429985732662317
  53 2    3.485680975338099507609967986    1.658062577298542006332127130    6.732277933466078501112406229
  54 2    5.375469089026112534668300214    3.553917621785536606893174394    8.702522579201458441389149812
  55 2   10.811009665153772374424079317    5.303216064593746281730091141    1.468977594169803335688584411
  56 2    2.361653343651098246880337683    7.493611031884509721123777126    5.962187167748135507849838177
  57 2   10.860894346679856425907928497    8.618909586729461835830079508    6.927595436646532434110667964
  58 2    3.907257890539705513788248936    1.653501819860295762865121105    4.084136725956006408466691937
  59 2    5.851496306712698824981089274   10.706240604285628847947009490    3.375233064438248664629327322
  60 2    5.528731991504406195758747344   10.680602677596256810943486926    0.790567751717860422999706316
  61 2    3.891942923235470530585189408    1.657040999771188793943110795    1.633198556164040082805399834
  62 2    3.597172525435369028201648689    1.625807037551330935798432620    9.510985767415373715039095259
  63 2    5.757945299689913198903923330   10.953005368064276936479473079    8.824471505884661226559728675
  64 2   10.865953521591471542251383653    9.163338787243340277655079262    9.664093762518426444785291096
  65 2    3.479007043956666933581800549    5.086066924385312049139429291    3.761161025934461221709170786
  66 2    5.577965990560468156900242320    3.348022580699883565813479436    3.352251668360512582012233906
  67 2    5.355501084669399780580079096    4.143691415016641954593978880    0.528014355505706078908190193
  68 2    8.967384408631660974720034574    7.111018668754238269968936947    6.212289165654719447218212736
  69 2    3.530448636740830092861642697    5.507108553164810516022953379    9.196856703390565712652460206
  70 2    5.323353342177797209444634063    3.720722955823859035007217244    6.026428632292932796588047495
  71 2   10.923433314664411142302924418    5.451257541524309857550179004    9.213603874924057635098506580
  72 2    9.218211183496315186403080588    0.107220970498755313604632988    6.432544862162596466248487559
  73 2    1.765159476877457223054079805    3.578715674124773649111830309    6.292118420884509788493232918
  74 2    6.633073550595820044861739007    1.955699225731206247758109384    0.972138342887028383820791078
  75 2    9.030586725811918569206682150    0.775630028425984607842735841    0.821492740177168223603132446
  76 2    7.327359306728366661332074727    8.709112561605920177498774137    4.373807854671998285311929067
  77 2    7.508018527068655245670925069    1.898147664817380286805814649    3.875944413917488784449005834
  78 2    3.527846928762889966435523093    9.548120770457751760318387824    7.274119844051830874320785369
  79 2    8.939520753447657952506233414    7.269804012903279044621740468    9.056435636862600446761462081
  80 2    7.372954752302586456380595337    1.767556242163859980820461715    9.321520607671255120862952026
  81 2    7.697531339837222930100324447    9.094488415055028696087902063    9.650132279704612514592554362
  82 2    5.827896829753910878935130313    7.237274630798473218362687476    8.698126554546977473592050956
  83 2    9.062964651333277998901394312    7.220486019315784709249328444    3.639314204692761567372372156
  84 2    5.123872166773872471878803481    7.436056067029305438609299017    6.170268784586372845524238073
  85 2    7.314267773467310718160661054    8.941722968564858931017624855    1.416496056209891163391034752
  86 2    9.094330304981179224910192715    7.315629065085111903954384616    0.666173841084999218686846234
  87 2    7.624418330233801555095851654    5.276802405625532266242316837    9.465588762709062464750786603
  88 2    4.045463596903861258624601760    8.974822916226193214583872759    9.661399729314412709868520324
  89 2    9.312258252246056855483402614   10.905059221445462469546328066    9.016058151082003035980960703
  90 2    7.233592020971014058261516766    5.195841072252789238916648173    6.823591594003566740411770297
  91 2    5.460196819909387322411475907    0.374339848509613437599341523    5.919874651423051581389245257
  92 2    0.429730324117194972810551690    5.615761185739660099613956845    6.487286409627597727478587331
  93 2   10.844896110816222289940924384    9.219105242493332852404819278    4.042577377483310918648840016
  94 2    1.546149182744091632457639207    7.308468547434079809477225353    3.442743616767917735899118270
  95 2    3.959497599892771724228168750    9.076069570128645125350885792    4.218707613282631108120313002
  96 2    3.237580069833881246665896469    6.001408182502101951172335248    1.556824034598727202194368147
  97 2    5.252199260241763312251350726    7.176456891744027899449065444    0.847128870160719249504666095
  98 2    9.121307032318167529183483566   10.904049218866768811153633578    3.631447180046777134521107655
  99 2    9.241626515046386103335862572    3.380851060679749942039507005    9.096529022677470877056293830
 100 2    7.175634508751802087545001996    5.908751372025710324464853329    1.588463205183012538768139166
 101 2    8.774053967177586343950679293    3.685270149673245843047197923    1.308380696604832360563364091
 102 2    9.053922718036128358676251082    3.559516328361662651502683730    3.570018776621132428061855535
 103 2    7.102166366341482905966131511    5.252741201041756902156976139    4.546230065302393263948488311
 104 2    3.270358460893346919107216308    9.325581866700479949372493138    1.643124112311061368885134470
 105 2    9.112926080709014442504667386    3.483589084601324881163009195    6.263019403218931913102096587
 106 2    7.275315312458889849267507088    1.671792526415047053234275154    6.715893230399865743152076902
 107 2    2.110098823218693020464797883    3.539976080009019199223985197    8.757131122458586602874675009
 108 2    6.934267365107722014272439992    9.320671979803970330635820574    6.821629372281265091260138433
