ITEM: TIMESTEP
0
ITEM: NUMBER OF ATOMS
108
ITEM: BOX BOUNDS pp pp pp
0.0000000000000000e+00 1.0956000000000000e+01
0.0000000000000000e+00 1.0956000000000000e+01
0.0000000000000000e+00 1.0629000000000000e+01
ITEM: ATOMS id type x y z fx fy fz
   1 1    1.9467490730185575    1.6077981767278755    2.2475431047983556    0.1585408793157657    2.3457902038470611    3.4085340199189171
   2 1    3.2363397540338679    7.2871883862131588   10.6093947546734171    2.8059647473315237    0.1354918070827386   -1.7654072939302288
   3 1    5.0791872325101854    5.3675798328640978    2.2459892941640489    1.0021259114955394    1.0422687463069276   -0.3340712557801950
   4 1    8.9281753164684652    5.1304806505247740    7.8224976290160324    2.1492185793278842    1.5344515989185403    3.4640059825783425
   5 1    0.2552149635473160    7.0086949301196233    5.3383078683761864   -0.3860804529507560    5.5653630472457669   -1.8651955014645036
   6 1   10.7318687001944113   10.8804217294139391   10.6198333754162384    0.3030868119681951    1.7795072293838139    0.7301905730445395
   7 1    7.1937750449098212    3.5387997639199322    5.1364068067733326   -0.6936888068638947   -2.4405771939242422    0.1514627168917750
   8 1    7.2744908468363567    7.1084769617290275    5.4586647075886070   -2.6586855558741789   -0.2930617401978193   -1.0200203717986378
   9 1    1.6531945209719985    5.2867566882100316    2.6503459242586294   -0.9881574259869724   -0.0399737670726166   -0.9180024419165105
  10 1   10.7089956037119620    3.2730596139414150    5.3011007042587321    4.0197117763629802    1.9926484626140373   -2.8130472213932567
  11 1   10.8248255460266201    3.6253509599592477    0.1953332022982756    0.0859989828729655    0.6871031065749602   -2.1185228365373181
  12 1    1.9309054724325079    5.1491346348073552    7.7840005405403376    0.4618051713455441    2.9542884118636619   -0.8273168150859096
  13 1    8.9458005716732512    9.0418986719339323    8.0212621866721552    0.7353360710096776   -0.0792900582998853    0.0494468154483328
  14 1    1.7221956959764668    1.6945734242145472    7.9331243472754052   -0.1612720849306637    0.6094612364484631    1.7278438168039731
  15 1    7.3843914969365398    7.2862967138092882   10.4757499671833543   -2.2151403720917653   -0.4335069557250950    1.1991016338709266
  16 1    8.7245940954740231    9.0314719546865589    2.9551627029441785    1.4993483909553731   -0.2067380771465684   -2.6819336658615143
  17 1    5.0813474491296162    8.9830796309286853    2.4254562862877083    1.8226608801793796   -0.3841381198301759    0.3389183464259022
  18 1    5.4466255308348543    9.3064072006039726    7.9738527531897843   -4.9506615609334830   -5.3516757262290415    0.6482751484878444
  19 1    0.0044458174125879   10.7458095068678681    5.2936824807193270   -1.4217782799823087    0.7640906087184276   -2.3287072300637948
  20 1    3.5315226707331475    3.4821655089294516    5.1911564146721760   -0.4702117162879245   -0.3829287867569795   -1.4861651780478675
  21 1   10.9444980670497998    7.2869035485669782   10.3199145340381389   -3.1572502165215388   -2.5877720712529837   -0.5450623036185140
  22 1    1.6486363068446226    9.0992318621290487    7.9333575091398361    1.8229132175168616   -0.6987102389731161   -0.7423057642223408
  23 1    7.2417284954954768    3.7804691443292073    0.0782943578587435    1.2499878868731680   -3.0480731581454581   -1.9593196379141280
  24 1    8.9481965565031398    5.4075585472296464    2.6707487360917783    1.0585855293090791    0.9918613718803416   -0.7872190409779223
  25 1    3.8264588216475217    6.9997223863132270    4.8056335466169937   -1.9890786171651431    0.5095876044641285    2.6338586960255843
  26 1    3.7744597042075432    0.0508760604733601    0.0213402616307190   -2.3478081163541686   -2.2901588277468301   -0.2017507652311825
  27 1    7.2026493888417988    0.0697117651565764    5.2409660477076718    1.7452152441603064   -1.7959547448235980   -1.4610604478336149
  28 1    5.6639736019707110    1.6216245657460764    2.6325479055978036   -1.4158439408849686   -1.7623610739877531    0.3545831192876923
  29 1    5.3524106950439281    1.7321385575112040    7.5932830928551276    1.5135679706832403    0.5235140293234835    1.1997499356517145
  30 1    1.4292478699657682    8.9913755839021956    2.5762013424347674   -1.9330139898472622    2.9043659066462482   -0.5951248699265022
  31 1    3.3333192912028364   10.9279719048435791    5.2465047326850884    3.5245155749549046   -1.4512386457771314   -1.4296844272690488
  32 1    3.7377963119548920    3.6192465420865516   10.2086201179179987   -2.6228413862645765   -0.5146430764343740   -1.5646897766533940
  33 1    7.1824797711961512   10.9491153038453088   10.5584081842535067    3.8553320766450980    1.8514941199854098   -2.2720023876009430
  34 1    9.0350212090818083    1.7935089494877199    2.5193664598310490    0.8484926533731383   -0.1337618407264380    1.6417106614921984
  35 1    5.4416447992572889    5.4768867170224285    7.8863113510746006   -1.8574764561949173    0.1113722384446877   -1.2723445167385465
  36 1    9.0525854019328715    1.7016984843140102    7.7726073408925247   -1.1971315467102328   -0.3918462457404291    3.2273397740274978
  37 2   10.5075472941709087    9.5621874733075032    1.6863798432312065    1.0102772113077532   -0.0797749357566790   -1.3978423861262219
  38 2    5.0613608251353863    7.0962082429701168    3.3372206367725519    2.8077786484338243    0.1043808792647688   -1.6907240703996005
  39 2   10.8507169260637415    5.6148204529741248    4.0467926555656613    0.0803466582172260   -3.6792747650066571   -1.0992404085025278
  40 2   10.5275732340536567    1.7486339407304363    4.1968940376207327    1.3673678317454887   -1.8298743429897095    0.3723009936423274
  41 2    1.7411944107045056   10.8515721342745337    3.8550668573194136    0.5502216481391913    1.5022901485266096   -1.3608705760998061
  42 2    1.7061858585875220    0.0702923990725638    1.1627071165927785   -0.7147235488522434   -0.6637959936568160   -2.7490524236337750
  43 2    2.0986246954107193    3.9490842212221553    0.7287077573495786   -1.3919655948885183   -1.4024814996454582    0.4891600543363086
  44 2    0.4489024836281483    1.9336588347560104    9.7373093127158921   -0.4010149312257996   -0.9925814349554128   -0.2932462304150617
  45 2    1.7446499252599730   10.8676003136701294    8.9441353659629179   -0.3628656540693840   -0.5371695452254147    0.0814515696562905
  46 2    1.7629121384302888   10.4966926167264312    6.2737032683941942   -3.7892612836135617    1.1831646936109372    1.1967679594726728
  47 2   10.9364731851186345    1.8142736189658684    6.7588624964467279    1.1770347235493979   -0.5820740959873859    1.3688741857962046
  48 2    1.8912383962184174    3.3847307106425450    3.3259400722914760   -1.1802112256615307   -0.5005042776446089    1.1702314245743151
  49 2    1.5125039270791807    7.5109688859479276    0.9513424808333132   -1.1761803861716686    1.2731232325298549   -0.1377188433349052
  50 2    1.7772300166663004    7.1801331240850983    8.9120634383188779    0.0257370183462781    1.6913493951996883    0.1835344449332522
  51 2   10.7261701229893145    2.2918278970991079    1.6437675955314874    4.3651486533060524   -0.4813788157395422    0.2606219656681161
  52 2    3.7221561432712047    5.1054339634851269    6.4588197462854300   -1.4604251498523453    2.5428169217439738    2.1946443356820420
  53 2    3.4856809753380995    1.6580625772985420    6.7322779334660785   -0.7453877007380628    0.0917594250067937    0.3283670680114729
  54 2    5.3754690890261125    3.5539176217855366    8.7025225792014584   -0.3681190433611816    0.0790049596969038   -0.3761668613211816
  55 2   10.8110096651537724    5.3032160645937472    1.4689775941698033    0.1059520581540043   -0.0468153411302110    0.0877992003676227
  56 2    2.3616533436510982    7.4936110318845097    5.9621871677481355   -3.8269797025145205    0.1508720789577242    1.2606362713655486
  57 2   10.8608943466798564    8.6189095867294618    6.9275954366465324   -0.0816271630124933    1.4247807004292945    0.3141258246150556
  58 2    3.9072578905397055    1.6535018198602958    4.0841367259560064   -1.5310155590760097   -0.3956548302437848    1.1222339988825936
  59 2    5.8514963067126988   10.7062406042856288    3.3752330644382487    1.0285539561037578   -0.1989303979203469    0.4809428593578863
  60 2    5.5287319915044062   10.6806026775962568    0.7905677517178603   -2.4162199951539152   -1.0006480435431282    1.7538908043342216
  61 2    3.8919429232354705    1.6570409997711888    1.6331985561640401   -1.9861417869026274   -0.5466439863923909   -2.3327406488791422
  62 2    3.5971725254353690    1.6258070375513309    9.5109857674153737    0.9146773459594584    0.9198171301312739   -0.6693592001364422
  63 2    5.7579452996899132   10.9530053680642769    8.8244715058846612   -0.6400871208822363    2.7037146787344675    0.8254143435957197
  64 2   10.8659535215914715    9.1633387872433403    9.6640937625184264    0.5388173572952941   -1.4336965612618977   -1.5180595859755575
  65 2    3.4790070439566669    5.0860669243853120    3.7611610259344612    0.9652750489497099    0.5186372129575634    1.5192366662646510
  66 2    5.5779659905604682    3.3480225806998836    3.3522516683605126    0.0419336596322054    4.7268649516045915    0.4813621213683562
  67 2    5.3555010846693998    4.1436914150166420    0.5280143555057061   -0.5029140847789842    1.5074535947887411    2.1201984591600356
  68 2    8.9673844086316610    7.1110186687542383    6.2122891656547194    2.2546278545450082   -0.5927117608672564    2.2800282391163762
  69 2    3.5304486367408305    5.5071085531648105    9.1968567033905657    1.7811759326501964    0.2219159593739055    0.9086591640192831
  70 2    5.3233533421777972    3.7207229558238590    6.0264286322929328    2.6689920768008006   -3.5442956597836774    0.1500268835901699
  71 2   10.9234333146644111    5.4512575415243107    9.2136038749240576   -0.0859387505225755   -0.7108676611230393    0.3357828469975493
  72 2    9.2182111834963152    0.1072209704987553    6.4325448621625965   -0.9299177201682292   -2.2207615739347233   -1.0642787015670001
  73 2    1.7651594768774572    3.5787156741247736    6.2921184208845098   -0.7714930644363143   -1.2742852655820200   -1.2782402381441464
  74 2    6.6330735505958200    1.9556992257312062    0.9721383428870284    1.1499318232535392   -0.3704461202317101    0.7612518196906620
  75 2    9.0305867258119186    0.7756300284259845    0.8214927401771682   -1.3328460195880454   -2.1886215124330897   -1.0806817321141129
  76 2    7.3273593067283667    8.7091125616059202    4.3738078546719983   -0.8708708931101462    2.9962003200914245   -0.2194676841957782
  77 2    7.5080185270686552    1.8981476648173803    3.8759444139174888   -2.6393111288075239   -2.3472726950802216    1.9796053609968975
  78 2    3.5278469287628900    9.5481207704577518    7.2741198440518309    2.2809248963483144    0.3326392004190423   -0.5309888249550003
  79 2    8.9395207534476580    7.2698040129032790    9.0564356368626004    1.5654789906543023   -0.4842959409395222   -4.3708439382078437
  80 2    7.3729547523025865    1.7675562421638600    9.3215206076712551    0.0216395787916906    0.1852167773356211   -0.3810139428976987
  81 2    7.6975313398372229    9.0944884150550287    9.6501322797046125   -1.8679475818021443    2.8178947170769706   -1.2638301357560688
  82 2    5.8278968297539109    7.2372746307984732    8.6981265545469775    0.7436673761213883    0.0219188960696101    0.0989372388567474
  83 2    9.0629646513332780    7.2204860193157847    3.6393142046927616   -0.2539706643365540   -1.5407278115383058   -0.5159145108270313
  84 2    5.1238721667738725    7.4360560670293054    6.1702687845863728    3.0679641959298984   -1.5151643284278475    0.4759362341987488
  85 2    7.3142677734673107    8.9417229685648589    1.4164960562098912   -0.5947130457366081    0.9312929071475199    1.7206715363554665
  86 2    9.0943303049811792    7.3156290650851119    0.6661738410849991    3.7085487878042791   -0.8380607507983985    2.6593298272103687
  87 2    7.6244183302338016    5.2768024056255323    9.4655887627090625   -1.1175955884431437    0.4734910628815945   -0.7059612062041928
  88 2    4.0454635969038613    8.9748229162261932    9.6613997293144127   -1.2450302248972389    1.0950071832668899    1.5350244062121017
  89 2    9.3122582522460569   10.9050592214454625    9.0160581510820030    0.1736939626308032    0.4019041747140877   -1.3198977483256336
  90 2    7.2335920209710141    5.1958410722527892    6.8235915940035667   -0.7304734952544905    0.2645909843433925    1.7170800759831342
  91 2    5.4601968199093873    0.3743398485096134    5.9198746514230516   -2.1679849578197206   -0.4952913210767099    1.0231329596544334
  92 2    0.4297303241171950    5.6157611857396601    6.4872864096275977   -1.3865179462336670   -3.0143184145844089    3.2371750708700544
  93 2   10.8448961108162223    9.2191052424933329    4.0425773774833109   -0.0631551920521922   -1.5078509498020964    2.1825767425576621
  94 2    1.5461491827440916    7.3084685474340798    3.4427436167679177    1.3996085957306832   -2.2060706079685168    1.4360967574064127
  95 2    3.9594975998927717    9.0760695701286451    4.2187076132826311   -0.8401696925321018    1.1317625099219524    0.0972176675452004
  96 2    3.2375800698338812    6.0014081825021020    1.5568240345987272    1.0020787038389583   -0.9393030032306730   -0.0475162440196362
  97 2    5.2521992602417633    7.1764568917440279    0.8471288701607191   -0.9427409764546967    0.9419159264999785   -0.4891973146453893
  98 2    9.1213070323181675   10.9040492188667688    3.6314471800467771   -2.2016181635802616   -0.3712886736364592    0.5173154452939019
  99 2    9.2416265150463861    3.3808510606797499    9.0965290226774709    0.5697140777518088    1.0901734000790486   -1.3925340191896121
 100 2    7.1756345087518021    5.9087513720257103    1.5884632051830125    0.1211868932493748   -2.6556688551364815    0.9741467848594774
 101 2    8.7740539671775863    3.6852701496732458    1.3083806966048324   -0.0438325938440807    0.2822866518561289   -1.8353725507970728
 102 2    9.0539227180361284    3.5595163283616627    3.5700187766211324    0.4767659448696451    3.0443976967429118    2.7299924660053221
 103 2    7.1021663663414829    5.2527412010417569    4.5462300653023933    0.6193661102263588    4.6419065254342051   -3.8289393992606424
 104 2    3.2703584608933469    9.3255818667004799    1.6431241123110614    1.5993892984596561   -0.7292036232775627   -0.6689065570549728
 105 2    9.1129260807090144    3.4835890846013249    6.2630194032189319   -2.6686232207374823    1.3177031392466529    2.4623152184323622
 106 2    7.2753153124588898    1.6717925264150471    6.7158932303998657   -0.1245939656874411    1.0335079140273513   -0.8577945962976377
 107 2    2.1100988232186930    3.5399760800090192    8.7571311224585866    0.1091525947630398   -1.9309538667385786    0.1834919555796932
 108 2    6.9342673651077220    9.3206719798039703    6.8216293722812651    4.9651674734044882    0.1867539326211230   -1.3872561633223828
