ITEM: TIMESTEP
0
ITEM: NUMBER OF ATOMS
108
ITEM: BOX BOUNDS pp pp pp
0.0000000000000000e+00 1.0956000000000000e+01
0.0000000000000000e+00 1.0956000000000000e+01
0.0000000000000000e+00 1.0629000000000000e+01
ITEM: ATOMS id type x y z fx fy fz
   1 1    1.946749073018557485426072162    1.607798176727875505420684021    2.247543104798355617646166138    0.158540879315987703890300509    2.345790203846832344680706228    3.408534019918417090622142496
   2 1    3.236339754033867865956608512    7.287188386213158786119947763   10.609394754673417082813102752    2.805964747331525899198823026    0.135491807082733756173453799   -1.765407293930230991918506334
   3 1    5.079187232510185445732986409    5.367579832864097788558410684    2.245989294164048910573683315    1.002125911495493681968582678    1.042268746306948434821038063   -0.334071255780179932060036663
   4 1    8.928175316468465183561420417    5.130480650524773977849690709    7.822497629016032405502301117    2.149218579328026290653497199    1.534451598918554537931413506    3.464005982578299835950019769
   5 1    0.255214963547315987213437438    7.008694930119623300868170190    5.338307868376186426928597939   -0.386080452950763097774711241    5.565363047245766914272735448   -1.865195501464503635702385509
   6 1   10.731868700194411303527886048   10.880421729413939146979828365   10.619833375416238396837798064    0.303086811968437563891143327    1.779507229384015509765504248    0.730190573044871227281760184
   7 1    7.193775044909821225758150831    3.538799763919932228617426517    5.136406806773332611726345931   -0.693688806863717921658007981   -2.440577193924860388563047309    0.151462716891779480832269655
   8 1    7.274490846836356716664795385    7.108476961729027543412939849    5.458664707588607001298441901   -2.658685555874181538626999100   -0.293061740197538611596428382   -1.020020371798648683991928010
   9 1    1.653194520971998482394837993    5.286756688210031640551278542    2.650345924258629359826500149   -0.988157425987038595671663188   -0.039973767073006483130370725   -0.918002441916701439339476565
  10 1   10.708995603711962019133352442    3.273059613941414980331501283    5.301100704258732143614452070    4.019711776362905553128257452    1.992648462613975546275923989   -2.813047221393437435921214274
  11 1   10.824825546026620060047207517    3.625350959959247720831854167    0.195333202298275609987143753    0.085998982873220830569493955    0.687103106574837196873772882   -2.118522836537195530581811909
  12 1    1.930905472432507874458451624    5.149134634807355226371328172    7.784000540540337631512102234    0.461805171345430365281714558    2.954288411863775554166977599   -0.827316815085795909112675872
  13 1    8.945800571673251155857542471    9.041898671933932263300448540    8.021262186672155181099697074    0.735336071009620284577579241   -0.079290058299811602693374368    0.049446815448155545524855370
  14 1    1.722195695976466822685324587    1.694573424214547152644172456    7.933124347275405163770756189   -0.161272084930728087925899672    0.609461236448467946758000835    1.727843816804088605820766134
  15 1    7.384391496936539844853086834    7.286296713809288227992055909   10.475749967183354272037831834   -2.215140372091759068950977962   -0.433506955724839215804422565    1.199101633870923055980028948
  16 1    8.724594095474023092151583114    9.031471954686558945013530320    2.955162702944178487740600758    1.499348390955122845014102495   -0.206738077146263549144222793   -2.681933665861199855839913653
  17 1    5.081347449129616222762706457    8.983079630928685332946770359    2.425456286287708262960904904    1.822660880179468367856543409   -0.384138119830082169769980283    0.338918346425985395065083594
  18 1    5.446625530834854345130224829    9.306407200603972640351457812    7.973852753189784259291172930   -4.950661560933290239461257443   -5.351675726228883434032468358    0.648275148487584162992902748
  19 1    0.004445817412587871331197675   10.745809506867868066137816641    5.293682480719327010376673570   -1.421778279982381043566874723    0.764090608718515529318437984   -2.328707230063842725797940147
  20 1    3.531522670733147517552197314    3.482165508929451647190944641    5.191156414672176033775485848   -0.470211716288096326366030553   -0.382928786757114059113860094   -1.486165178047740509370555628
  21 1   10.944498067049799772121332353    7.286903548566978194855892070   10.319914534038138853588861821   -3.157250216521540586711580545   -2.587772071252987249323496144   -0.545062303618515819891854335
  22 1    1.648636306844622589906634857    9.099231862129048664655783796    7.933357509139836061251571664    1.822913217516859862854516905   -0.698710238973119013294876822   -0.742305764222344399705377782
  23 1    7.241728495495476813914592640    3.780469144329207331622910715    0.078294357858743474087859227    1.249987886872996556419934677   -3.048073158145639727223397131   -1.959319637914064049510898258
  24 1    8.948196556503139831306725682    5.407558547229646350729126425    2.670748736091778319234890660    1.058585529309093331562507956    0.991861371880384257160301331   -0.787219040977936490577349105
  25 1    3.826458821647521713060768889    6.999722386313226962784028728    4.805633546616993712063958810   -1.989078617165115581144618773    0.509587604464338816967483581    2.633858696025547896368834699
  26 1    3.774459704207543175868977414    0.050876060473360081026772406    0.021340261630718993651756321   -2.347808116354412444337640409   -2.290158827746582304030198429   -0.201750765230689160789623315
  27 1    7.202649388841798838711838471    0.069711765156576413482447663    5.240966047707671826572095597    1.745215244159530110223954580   -1.795954744822864324049760398   -1.461060447833693043406810830
  28 1    5.663973601970710980424428271    1.621624565746076385153173760    2.632547905597803605814988259   -1.415843940884927709689122821   -1.762361073988088833175424952    0.354583119288139458902264778
  29 1    5.352410695043928079428496858    1.732138557511204046690522773    7.593283092855127591747077531    1.513567970683686203514639601    0.523514029323107754620991727    1.199749935651375221112857616
  30 1    1.429247869965768247269011226    8.991375583902195600671802822    2.576201342434767393996253304   -1.933013989847212510397866936    2.904365906646493300513611757   -0.595124869926558552890583087
  31 1    3.333319291202836431864398037   10.927971904843579054045221710    5.246504732685088434607223462    3.524515574955097374498791396   -1.451238645777137570291870361   -1.429684427269217517064703316
  32 1    3.737796311954892036766295860    3.619246542086551610140077173   10.208620117917998726397854625   -2.622841386264736396327634793   -0.514643076434438850874641957   -1.564689776653201302991647026
  33 1    7.182479771196151219214698358   10.949115303845308844188366493   10.558408184253506689742607705    3.855332076645096250899769075    1.851494119985396036298652689   -2.272002387600937201028727941
  34 1    9.035021209081808279961478547    1.793508949487719883464365012    2.519366459831049009920889148    0.848492653373252414539251731   -0.133761840726736247475514574    1.641710661492402856254102517
  35 1    5.441644799257288944716037804    5.476886717022428463508276764    7.886311351074600572985673352   -1.857476456194917302511271373    0.111372238444780058408412060   -1.272344516738574959902052797
  36 1    9.052585401932871533858815383    1.701698484314010162421482164    7.772607340892524696585041966   -1.197131546710459737425935600   -0.391846245740675114266338142    3.227339774027319307947436755
  37 2   10.507547294170908713795142830    9.562187473307503182695654687    1.686379843231206487885742717    1.010277211307803790774073605   -0.079774935756662335162303634   -1.397842386126254554667980301
  38 2    5.061360825135386320994257403    7.096208242970116764070098725    3.337220636772551873860948035    2.807778648433824741914577316    0.104380879264769604874985021   -1.690724070399600265091066831
  39 2   10.850716926063741496477632609    5.614820452974124798117827595    4.046792655565661256389375922    0.080346658217223310138876968   -3.679274765006651737309084638   -1.099240408502525800926719057
  40 2   10.527573234053656747732929944    1.748633940730436320265539507    4.196894037620732653692812164    1.367367831745430972745225517   -1.829874342989718627450201893    0.372300993642376898407064800
  41 2    1.741194410704505646236839311   10.851572134274533709685783833    3.855066857319413564653132198    0.550221648139191943371884008    1.502290148526583379862131551   -1.360870576099864948105278017
  42 2    1.706185858587522030660466044    0.070292399072563765960452997    1.162707116592778477937031312   -0.714723548852294277011765189   -0.663795993656852600928175434   -2.749052423633785657841599459
  43 2    2.098624695410719276367217390    3.949084221222155299813039164    0.728707757349578599814776680   -1.391965594888516566385305850   -1.402481499645420015554009296    0.489160054336272187569534253
  44 2    0.448902483628148274430458287    1.933658834756010413968851935    9.737309312715892062328748580   -0.401014931225803339387425694   -0.992581434955454589008638777   -0.293246230415084130349612224
  45 2    1.744649925259972977897859892   10.867600313670129352772164566    8.944135365962917916249352857   -0.362865654069385312752160644   -0.537169545225422928602654338    0.081451569656333377977830423
  46 2    1.762912138430288822021907436   10.496692616726431168672206695    6.273703268394194232371319231   -3.789261283613555519877991173    1.183164693610931905709549028    1.196767959472690989741749945
  47 2   10.936473185118634532386749925    1.814273618965868362096216515    6.758862496446727874399584834    1.177034723549386763252755372   -0.582074095987394124485092561    1.368874185796205900089717034
  48 2    1.891238396218417383565224554    3.384730710642545048472129565    3.325940072291476035104551556   -1.180211225661538465558919597   -0.500504277644553408066485645    1.170231424574335488131282546
  49 2    1.512503927079180687798043436    7.510968885947927553559111402    0.951342480833313186572297582   -1.176180386171666647499023384    1.273123232529887349784303296   -0.137718843334902807384878543
  50 2    1.777230016666300427274904905    7.180133124085098295097395749    8.912063438318877928168149083    0.025737018346278062175258583    1.691349395199690075486387286    0.183534444933253104714765414
  51 2   10.726170122989314492656376387    2.291827897099107946843332684    1.643767595531487435422945964    4.365148653306057724421407329   -0.481378815739584631216985144    0.260621965668086374989798060
  52 2    3.722156143271204697953180585    5.105433963485126902526189951    6.458819746285429985732662317   -1.460425149852351500712188681    2.542816921743973779257430579    2.194644335682041980106760093
  53 2    3.485680975338099507609967986    1.658062577298542006332127130    6.732277933466078501112406229   -0.745387700738103231579145813    0.091759425006827252668806238    0.328367068011504892321994475
  54 2    5.375469089026112534668300214    3.553917621785536606893174394    8.702522579201458441389149812   -0.368119043361140763082062222    0.079004959696902882226865472   -0.376166861321144296859131373
  55 2   10.811009665153772374424079317    5.303216064593747169908510841    1.468977594169803335688584411    0.105952058153978456722654755   -0.046815341130186927109946282    0.087799200367614238516011937
  56 2    2.361653343651098246880337683    7.493611031884509721123777126    5.962187167748135507849838177   -3.826979702514520464973202252    0.150872078957724642389592873    1.260636271365548566336656222
  57 2   10.860894346679856425907928497    8.618909586729461835830079508    6.927595436646532434110667964   -0.081627163012492509608364344    1.424780700429295610121016580    0.314125824615055115884842962
  58 2    3.907257890539705513788248936    1.653501819860295762865121105    4.084136725956006408466691937   -1.531015559075971532720927826   -0.395654830243791277855081034    1.122233998882597560964313743
  59 2    5.851496306712698824981089274   10.706240604285628847947009490    3.375233064438248664629327322    1.028553956103664734911262713   -0.198930397920388690735649107    0.480942859357681995469135927
  60 2    5.528731991504406195758747344   10.680602677596256810943486926    0.790567751717860311977403853   -2.416219995153898736361952615   -1.000648043543138410171877695    1.753890804334212294435246804
  61 2    3.891942923235470530585189408    1.657040999771188793943110795    1.633198556164040082805399834   -1.986141786902655859137212246   -0.546643986392444602984141966   -2.332740648879187528308420951
  62 2    3.597172525435369028201648689    1.625807037551330935798432620    9.510985767415373715039095259    0.914677345959476140180299808    0.919817130131254323543998908   -0.669359200136470211539574393
  63 2    5.757945299689913198903923330   10.953005368064276936479473079    8.824471505884661226559728675   -0.640087120882230076190921864    2.703714678734471466015065744    0.825414343595713084766885004
  64 2   10.865953521591471542251383653    9.163338787243340277655079262    9.664093762518426444785291096    0.538817357295318100085523838   -1.433696561261872837178543705   -1.518059585975524594658736532
  65 2    3.479007043956666933581800549    5.086066924385312049139429291    3.761161025934461221709170786    0.965275048949726821589933934    0.518637212957601345664215842    1.519236666264667023895640341
  66 2    5.577965990560468156900242320    3.348022580699883565813479436    3.352251668360512582012233906    0.041933659632250708249046056    4.726864951604605735724362603    0.481362121368364204165857245
  67 2    5.355501084669399780580079096    4.143691415016641954593978880    0.528014355505706078908190193   -0.502914084778632530792208399    1.507453594788686901395635687    2.120198459159948534136219678
  68 2    8.967384408631660974720034574    7.111018668754238269968936947    6.212289165654719447218212736    2.254627854545005583020156337   -0.592711760867249748407914467    2.280028239116375310402418108
  69 2    3.530448636740830536950852547    5.507108553164810516022953379    9.196856703390565712652460206    1.781175932650202131668493166    0.221915959373902432760772285    0.908659164019286258451302274
  70 2    5.323353342177797209444634063    3.720722955823859035007217244    6.026428632292932796588047495    2.668992076800804191805127630   -3.544295659783696983424761129    0.150026883590167192661368745
  71 2   10.923433314664411142302924418    5.451257541524310745728598704    9.213603874924057635098506580   -0.085938750522581708324310057   -0.710867661123042227089285916    0.335782846997551509549140292
  72 2    9.218211183496315186403080588    0.107220970498755327482420796    6.432544862162596466248487559   -0.929917720168108807854423503   -2.220761573934713073441571396   -1.064278701566903517772288978
  73 2    1.765159476877457223054079805    3.578715674124773649111830309    6.292118420884509788493232918   -0.771493064436302722342020388   -1.274285265582002280027040797   -1.278240238144126461605765144
  74 2    6.633073550595820044861739007    1.955699225731206247758109384    0.972138342887028383820791078    1.149931823253613316637711250   -0.370446120231513353893149088    0.761251819690560327380524086
  75 2    9.030586725811918569206682150    0.775630028425984496820433378    0.821492740177168223603132446   -1.332846019588069141903474701   -2.188621512433081228721221123   -1.080681732114128212884907043
  76 2    7.327359306728366661332074727    8.709112561605920177498774137    4.373807854671998285311929067   -0.870870893110146204740829035    2.996200320091275681733122838   -0.219467684195825796233947358
  77 2    7.508018527068655245670925069    1.898147664817380286805814649    3.875944413917488784449005834   -2.639311128807506179327901918   -2.347272695080055537886210004    1.979605360996779417348534480
  78 2    3.527846928762889966435523093    9.548120770457751760318387824    7.274119844051830874320785369    2.280924896348315300542708428    0.332639200419039604561532997   -0.530988824954998772653880224
  79 2    8.939520753447657952506233414    7.269804012903279044621740468    9.056435636862600446761462081    1.565478990654299185081299584   -0.484295940939528435364991310   -4.370843938207840118082003755
  80 2    7.372954752302586456380595337    1.767556242163859980820461715    9.321520607671255120862952026    0.021639578791679187075303048    0.185216777335707655227636792   -0.381013942897657442721026655
  81 2    7.697531339837222930100324447    9.094488415055028696087902063    9.650132279704612514592554362   -1.867947581802144263463105744    2.817894717076971478064706389   -1.263830135756070616182000776
  82 2    5.827896829753910878935130313    7.237274630798473218362687476    8.698126554546977473592050956    0.743667376121391443533070742    0.021918896069603704956918477    0.098937238856751222315644156
  83 2    9.062964651333277998901394312    7.220486019315784709249328444    3.639314204692761567372372156   -0.253970664336554907691834160   -1.540727811538303626548440661   -0.515914510827030659001479762
  84 2    5.123872166773872471878803481    7.436056067029305438609299017    6.170268784586372845524238073    3.067964195929902437853797892   -1.515164328427825335410261687    0.475936234198746532797485997
  85 2    7.314267773467310718160661054    8.941722968564858931017624855    1.416496056209891163391034752   -0.594713045736608103553066940    0.931292907147521442645654588    1.720671536355468766998910723
  86 2    9.094330304981179224910192715    7.315629065085111903954384616    0.666173841084999107664543772    3.708548787804273771939733706   -0.838060750798409137551914228    2.659329827210366925527296189
  87 2    7.624418330233801555095851654    5.276802405625532266242316837    9.465588762709062464750786603   -1.117595588443208498574676923    0.473491062881349344948489488   -0.705961206203996938235434300
  88 2    4.045463596903861258624601760    8.974822916226193214583872759    9.661399729314412709868520324   -1.245030224897251569515788105    1.095007183266903716400975100    1.535024406212112113578882600
  89 2    9.312258252246056855483402614   10.905059221445462469546328066    9.016058151082003035980960703    0.173693962630806497671187572    0.401904174714089679198991689   -1.319897748325634445620835322
  90 2    7.233592020971014058261516766    5.195841072252789238916648173    6.823591594003566740411770297   -0.730473495254490456929374886    0.264590984343388957444886955    1.717080075983143050422086162
  91 2    5.460196819909387322411475907    0.374339848509613437599341523    5.919874651423051581389245257   -2.167984957819606872675421982   -0.495291321076797075306785700    1.023132959654395435222795641
  92 2    0.429730324117194972810551690    5.615761185739660099613956845    6.487286409627597727478587331   -1.386517946233666531696826496   -3.014318414584408856171648949    3.237175070870054405247628893
  93 2   10.844896110816222289940924384    9.219105242493332852404819278    4.042577377483310918648840016   -0.063155192052202768770996499   -1.507850949802109763453472624    2.182576742557659876808884292
  94 2    1.546149182744091632457639207    7.308468547434079809477225353    3.442743616767917735899118270    1.399608595730683413549400029   -2.206070607968510621788027493    1.436096757406410073798497251
  95 2    3.959497599892771724228168750    9.076069570128645125350885792    4.218707613282631108120313002   -0.840169692532086842540195448    1.131762509921949266811225243    0.097217667545210995072579863
  96 2    3.237580069833881246665896469    6.001408182502101951172335248    1.556824034598727202194368147    1.002078703838964468531003149   -0.939303003230657851396756541   -0.047516244019638886886269802
  97 2    5.252199260241763312251350726    7.176456891744027899449065444    0.847128870160719138482363633   -0.942740976454690904340338875    0.941915926499969136109768897   -0.489197314645391567733412330
  98 2    9.121307032318167529183483566   10.904049218866768811153633578    3.631447180046777134521107655   -2.201618163580159936998370540   -0.371288673636476662665018011    0.517315445293806241977563332
  99 2    9.241626515046386103335862572    3.380851060679749942039507005    9.096529022677470877056293830    0.569714077751743097621783818    1.090173400079059717882046243   -1.392534019189566762975118763
 100 2    7.175634508751802087545001996    5.908751372025710324464853329    1.588463205183012538768139166    0.121186893249376592684996012   -2.655668855136538386574329706    0.974146784859434733405691986
 101 2    8.774053967177586343950679293    3.685270149673245843047197923    1.308380696604832360563364091   -0.043832593844365885793479265    0.282286651856149539696616557   -1.835372550797289337154438726
 102 2    9.053922718036128358676251082    3.559516328361662651502683730    3.570018776621132428061855535    0.476765944869619373580604815    3.044397696742916714640614373    2.729992466005319862176747847
 103 2    7.102166366341482905966131511    5.252741201041756902156976139    4.546230065302393263948488311    0.619366110226358790313838654    4.641906525434205121882769163   -3.828939399260645970457517251
 104 2    3.270358460893346919107216308    9.325581866700479949372493138    1.643124112311061368885134470    1.599389298459589880962994357   -0.729203623277541845837390611   -0.668906557055009898249409162
 105 2    9.112926080709014442504667386    3.483589084601324881163009195    6.263019403218931913102096587   -2.668623220737488033194040327    1.317703139246643617710219587    2.462315218432360008904424831
 106 2    7.275315312458889849267507088    1.671792526415047053234275154    6.715893230399865743152076902   -0.124593965687339935932698154    1.033507914027536056522649233   -0.857794596297476008572857609
 107 2    2.110098823218693020464797883    3.539976080009019199223985197    8.757131122458586602874675009    0.109152594763040289294053764   -1.930953866738571056416162719    0.183491955579679233423462392
 108 2    6.934267365107722014272439992    9.320671979803970330635820574    6.821629372281265091260138433    4.965167473404486386812095589    0.186753932620948054355025647   -1.387256163322247770608441897
