ITEM: TIMESTEP
0
ITEM: NUMBER OF ATOMS
108
ITEM: BOX BOUNDS pp pp pp
0.0000000000000000e+00 1.0956000000000000e+01
0.0000000000000000e+00 1.0956000000000000e+01
0.0000000000000000e+00 1.0629000000000000e+01
ITEM: ATOMS id type x y z fx fy fz
   1 1    1.946749073018557485426072162    1.607798176727875505420684021    2.247543104798355617646166138    0.158540879314843952130331672    2.345790203846658261710445004    3.408534019917987656356217485
   2 1    3.236339754033867865956608512    7.287188386213158786119947763   10.609394754673417082813102752    2.805964747331333164481748099    0.135491807082433080022809690   -1.765407293930170595785966725
   3 1    5.079187232510185445732986409    5.367579832864097788558410684    2.245989294164048910573683315    1.002125911495649557281240050    1.042268746306805660140071268   -0.334071255781105413973364193
   4 1    8.928175316468465183561420417    5.130480650524773977849690709    7.822497629016032405502301117    2.149218579327305977955120397    1.534451598918541659344327854    3.464005982578890030509910503
   5 1    0.255214963547315987213437438    7.008694930119623300868170190    5.338307868376186426928597939   -0.386080452951001573680400725    5.565363047245795335982165852   -1.865195501464437910499327700
   6 1   10.731868700194411303527886048   10.880421729413939146979828365   10.619833375416238396837798064    0.303086811968145353191061986    1.779507229383984867610024594    0.730190573044438018257551448
   7 1    7.193775044909821225758150831    3.538799763919932228617426517    5.136406806773332611726345931   -0.693688806863980378381029368   -2.440577193924867493990404910    0.151462716891757442905230846
   8 1    7.274490846836356716664795385    7.108476961729027543412939849    5.458664707588607001298441901   -2.658685555874417794086639333   -0.293061740197681830366605027   -1.020020371799082337105346596
   9 1    1.653194520971998482394837993    5.286756688210031640551278542    2.650345924258629359826500149   -0.988157425987093773755987058   -0.039973767072839283542862177   -0.918002441917428746442908505
  10 1   10.708995603711962019133352442    3.273059613941414980331501283    5.301100704258732143614452070    4.019711776362976607401833462    1.992648462613778370666750561   -2.813047221393341068562676810
  11 1   10.824825546026620060047207517    3.625350959959247720831854167    0.195333202298275609987143753    0.085998982872706353219882658    0.687103106574230126923907847   -2.118522836537430897863032442
  12 1    1.930905472432507874458451624    5.149134634807355226371328172    7.784000540540337631512102234    0.461805171345992027109872424    2.954288411863219110387035471   -0.827316815085077150726533546
  13 1    8.945800571673251155857542471    9.041898671933932263300448540    8.021262186672155181099697074    0.735336071010326608465845766   -0.079290058299578788925110473    0.049446815449150027799163354
  14 1    1.722195695976466822685324587    1.694573424214547152644172456    7.933124347275405163770756189   -0.161272084931092685167186573    0.609461236448106902230392734    1.727843816804876420079040145
  15 1    7.384391496936539844853086834    7.286296713809288227992055909   10.475749967183354272037831834   -2.215140372091944698240695288   -0.433506955725881382157638200    1.199101633871360705896336185
  16 1    8.724594095474023092151583114    9.031471954686558945013530320    2.955162702944178487740600758    1.499348390954977183753271675   -0.206738077146146448370700455   -2.681933665861794491291902887
  17 1    5.081347449129616222762706457    8.983079630928685332946770359    2.425456286287708262960904904    1.822660880179856501825952364   -0.384138119830092605866411759    0.338918346425398642196569199
  18 1    5.446625530834854345130224829    9.306407200603972640351457812    7.973852753189784259291172930   -4.950661560933838245546212420   -5.351675726229387919374858029    0.648275148487907459937673593
  19 1    0.004445817412587871331197675   10.745809506867868066137816641    5.293682480719327010376673570   -1.421778279982458537133993559    0.764090608718565267309941191   -2.328707230064285926829370510
  20 1    3.531522670733147517552197314    3.482165508929451647190944641    5.191156414672176033775485848   -0.470211716287837422356687966   -0.382928786757518513361731038   -1.486165178047681223461040645
  21 1   10.944498067049799772121332353    7.286903548566978194855892070   10.319914534038138853588861821   -3.157250216521269248204362157   -2.587772071252099514993005869   -0.545062303618312427033743006
  22 1    1.648636306844622589906634857    9.099231862129048664655783796    7.933357509139836061251571664    1.822913217516694217579242832   -0.698710238972425567993695950   -0.742305764221521724444130541
  23 1    7.241728495495476813914592640    3.780469144329207331622910715    0.078294357858743474087859227    1.249987886873166864631912176   -3.048073158145110372885255856   -1.959319637914340050954820072
  24 1    8.948196556503139831306725682    5.407558547229646350729126425    2.670748736091778319234890660    1.058585529308893491418075428    0.991861371880516373700231725   -0.787219040978665018926108132
  25 1    3.826458821647521713060768889    6.999722386313226962784028728    4.805633546616993712063958810   -1.989078617164670603756349010    0.509587604464278198790339047    2.633858696025405787821682679
  26 1    3.774459704207543175868977414    0.050876060473360087965666310    0.021340261630718990182309369   -2.347808116354826779570430517   -2.290158827746742176145744452   -0.201750765230625711543765988
  27 1    7.202649388841798838711838471    0.069711765156576413482447663    5.240966047707671826572095597    1.745215244159277645508154819   -1.795954744822439996809748664   -1.461060447834320541460328968
  28 1    5.663973601970710980424428271    1.621624565746076385153173760    2.632547905597803605814988259   -1.415843940884436547023028652   -1.762361073987856574518673369    0.354583119288273462821337034
  29 1    5.352410695043928079428496858    1.732138557511204046690522773    7.593283092855127591747077531    1.513567970683626917605124618    0.523514029323658425241205805    1.199749935651349463938686313
  30 1    1.429247869965768247269011226    8.991375583902195600671802822    2.576201342434767393996253304   -1.933013989847703895108566030    2.904365906646559025716669566   -0.595124869927108779421587315
  31 1    3.333319291202836431864398037   10.927971904843579054045221710    5.246504732685088434607223462    3.524515574955052965577806390   -1.451238645776975255685670163   -1.429684427269347857247794309
  32 1    3.737796311954892036766295860    3.619246542086551610140077173   10.208620117917998726397854625   -2.622841386264195939759247267   -0.514643076433474844222359934   -1.564689776653502395475925368
  33 1    7.182479771196151219214698358   10.949115303845308844188366493   10.558408184253506689742607705    3.855332076646007966047591253    1.851494119985478636891684801   -2.272002387600312811599678753
  34 1    9.035021209081808279961478547    1.793508949487719883464365012    2.519366459831049009920889148    0.848492653373237537550721754   -0.133761840726830949499515100    1.641710661491794009947398081
  35 1    5.441644799257288944716037804    5.476886717022428463508276764    7.886311351074600572985673352   -1.857476456194286695833284284    0.111372238444712334803909926   -1.272344516737928366012511106
  36 1    9.052585401932871533858815383    1.701698484314010162421482164    7.772607340892524696585041966   -1.197131546710018090706739713   -0.391846245740447518546289984    3.227339774028083585477588713
  37 2   10.507547294170908713795142830    9.562187473307503182695654687    1.686379843231206487885742717    1.010277211307925693262177447   -0.079774935756280251908378887   -1.397842386126744607111049845
  38 2    5.061360825135386320994257403    7.096208242970116764070098725    3.337220636772551873860948035    2.807778648433796320205146912    0.104380879264817857943192791   -1.690724070399536760334058272
  39 2   10.850716926063741496477632609    5.614820452974124798117827595    4.046792655565661256389375922    0.080346658217287814096607690   -3.679274765006641079168048236   -1.099240408502521582079225482
  40 2   10.527573234053656747732929944    1.748633940730436320265539507    4.196894037620732653692812164    1.367367831745513573338257629   -1.829874342989661339942131235    0.372300993642473265765602264
  41 2    1.741194410704505646236839311   10.851572134274533709685783833    3.855066857319413564653132198    0.550221648139263441734669868    1.502290148526639779191782509   -1.360870576099759921007148478
  42 2    1.706185858587522030660466044    0.070292399072563821471604228    1.162707116592778477937031312   -0.714723548852506551654073519   -0.663795993656698724016962387   -2.749052423634092523485605852
  43 2    2.098624695410719276367217390    3.949084221222155299813039164    0.728707757349578599814776680   -1.391965594888098678438836941   -1.402481499645503726370066033    0.489160054335794680646642973
  44 2    0.448902483628148163408155824    1.933658834756010636013456860    9.737309312715892062328748580   -0.401014931225725290708794546   -0.992581434955834396305363043   -0.293246230414921704721109563
  45 2    1.744649925259972977897859892   10.867600313670129352772164566    8.944135365962917916249352857   -0.362865654069708831741536414   -0.537169545225883782180176240    0.081451569656411981767973884
  46 2    1.762912138430288822021907436   10.496692616726431168672206695    6.273703268394194232371319231   -3.789261283613742925524547900    1.183164693610798900991198934    1.196767959473094888878108577
  47 2   10.936473185118634532386749925    1.814273618965868362096216515    6.758862496446727874399584834    1.177034723549448269608319606   -0.582074095987544892771836658    1.368874185796083775557008266
  48 2    1.891238396218417383565224554    3.384730710642545048472129565    3.325940072291476035104551556   -1.180211225661542240317203323   -0.500504277644503225985772588    1.170231424574225798096449580
  49 2    1.512503927079180687798043436    7.510968885947927553559111402    0.951342480833313075549995119   -1.176180386171440384046604777    1.273123232529663084733329015   -0.137718843334913465525914944
  50 2    1.777230016666300427274904905    7.180133124085098295097395749    8.912063438318877928168149083    0.025737018346295215120989042    1.691349395199965854885704175    0.183534444933134643918037909
  51 2   10.726170122989314492656376387    2.291827897099107946843332684    1.643767595531487435422945964    4.365148653306024861819878424   -0.481378815739790022476540798    0.260621965668093924506365511
  52 2    3.722156143271204697953180585    5.105433963485126902526189951    6.458819746285429985732662317   -1.460425149852383475135297886    2.542816921743982661041627580    2.194644335681988689401578085
  53 2    3.485680975338099507609967986    1.658062577298542006332127130    6.732277933466078501112406229   -0.745387700738144975964871719    0.091759425006725778284355499    0.328367068011558960183293721
  54 2    5.375469089026112534668300214    3.553917621785536606893174394    8.702522579201458441389149812   -0.368119043361610942532990975    0.079004959696822307790853301   -0.376166861320820444802848215
  55 2   10.811009665153772374424079317    5.303216064593746281730091141    1.468977594169803335688584411    0.105952058154178629933994671   -0.046815341130420295989722490    0.087799200367719487658746402
  56 2    2.361653343651098246880337683    7.493611031884509721123777126    5.962187167748135507849838177   -3.826979702514567982518656208    0.150872078957857841396972276    1.260636271365566551949655150
  57 2   10.860894346679856425907928497    8.618909586729461835830079508    6.927595436646532434110667964   -0.081627163012126691121750355    1.424780700429488344838091507    0.314125824615324678035221950
  58 2    3.907257890539705513788248936    1.653501819860295762865121105    4.084136725956006408466691937   -1.531015559075885157369611989   -0.395654830243787669630251003    1.122233998882419037101954018
  59 2    5.851496306712698824981089274   10.706240604285628847947009490    3.375233064438248664629327322    1.028553956103642530450770209   -0.198930397920133117395380395    0.480942859357395779973387562
  60 2    5.528731991504406195758747344   10.680602677596256810943486926    0.790567751717860422999706316   -2.416219995153924049446914069   -1.000648043542905263336706412    1.753890804334286235288686839
  61 2    3.891942923235470530585189408    1.657040999771188793943110795    1.633198556164040082805399834   -1.986141786902321237917590224   -0.546643986392400971219274197   -2.332740648879166656115557998
  62 2    3.597172525435369028201648689    1.625807037551330935798432620    9.510985767415373715039095259    0.914677345959399090702390822    0.919817130131912907842206550   -0.669359200136315113383034259
  63 2    5.757945299689913198903923330   10.953005368064276936479473079    8.824471505884661226559728675   -0.640087120882204985150565335    2.703714678734680187943695273    0.825414343595893607030689054
  64 2   10.865953521591471542251383653    9.163338787243340277655079262    9.664093762518426444785291096    0.538817357295402921124605200   -1.433696561261120105967847849   -1.518059585975676695213110179
  65 2    3.479007043956666933581800549    5.086066924385312049139429291    3.761161025934461221709170786    0.965275048949549296928296371    0.518637212957607118823943892    1.519236666264562662931325576
  66 2    5.577965990560468156900242320    3.348022580699883565813479436    3.352251668360512582012233906    0.041933659632198680422554560    4.726864951604055065104148525    0.481362121368152595657363690
  67 2    5.355501084669399780580079096    4.143691415016641954593978880    0.528014355505706078908190193   -0.502914084779676251457658509    1.507453594788349393596149639    2.120198459159691406483716491
  68 2    8.967384408631660974720034574    7.111018668754238269968936947    6.212289165654719447218212736    2.254627854545199650004860814   -0.592711760867195458502010297    2.280028239116476562742263923
  69 2    3.530448636740830092861642697    5.507108553164810516022953379    9.196856703390565712652460206    1.781175932649873061563994270    0.221915959373090110329229674    0.908659164019635645637151811
  70 2    5.323353342177797209444634063    3.720722955823859035007217244    6.026428632292932796588047495    2.668992076800835722139026984   -3.544295659783697871603180829    0.150026883590168080839788445
  71 2   10.923433314664411142302924418    5.451257541524309857550179004    9.213603874924057635098506580   -0.085938750522428275502306860   -0.710867661123457006411285874    0.335782846997602579808273049
  72 2    9.218211183496315186403080588    0.107220970498755313604632988    6.432544862162596466248487559   -0.929917720168019101834033791   -2.220761573934757926451766252   -1.064278701566733875694126255
  73 2    1.765159476877457223054079805    3.578715674124773649111830309    6.292118420884509788493232918   -0.771493064436353237489640833   -1.274285265582072668166802032   -1.278240238143981022389539248
  74 2    6.633073550595820044861739007    1.955699225731206247758109384    0.972138342887028383820791078    1.149931823253291351960569955   -0.370446120232012177098113170    0.761251819691052045158130568
  75 2    9.030586725811918569206682150    0.775630028425984607842735841    0.821492740177168223603132446   -1.332846019587619057489291663   -2.188621512433161608868203984   -1.080681732114509685516168247
  76 2    7.327359306728366661332074727    8.709112561605920177498774137    4.373807854671998285311929067   -0.870870893110148647231483210    2.996200320091194413407720276   -0.219467684195710999173201117
  77 2    7.508018527068655245670925069    1.898147664817380286805814649    3.875944413917488784449005834   -2.639311128807702466758655646   -2.347272695080105275877713211    1.979605360996680385454737916
  78 2    3.527846928762889966435523093    9.548120770457751760318387824    7.274119844051830874320785369    2.280924896347984009992160281    0.332639200419003910891291298   -0.530988824954887306262207858
  79 2    8.939520753447657952506233414    7.269804012903279044621740468    9.056435636862600446761462081    1.565478990654485036415621835   -0.484295940939643787537249864   -4.370843938207960022168663272
  80 2    7.372954752302586456380595337    1.767556242163859980820461715    9.321520607671255120862952026    0.021639578791686500669477766    0.185216777335346860500209232   -0.381013942897686308519666909
  81 2    7.697531339837222930100324447    9.094488415055028696087902063    9.650132279704612514592554362   -1.867947581802055001531925882    2.817894717077529698201487918   -1.263830135756236927591089625
  82 2    5.827896829753910878935130313    7.237274630798473218362687476    8.698126554546977473592050956    0.743667376121238898889487245    0.021918896069635956935783838    0.098937238856397283215393657
  83 2    9.062964651333277998901394312    7.220486019315784709249328444    3.639314204692761567372372156   -0.253970664336594431631510815   -1.540727811538349367737055218   -0.515914510826928296438609323
  84 2    5.123872166773872471878803481    7.436056067029305438609299017    6.170268784586372845524238073    3.067964195929939741347425297   -1.515164328427769824259030429    0.475936234198711671794512768
  85 2    7.314267773467310718160661054    8.941722968564858931017624855    1.416496056209891163391034752   -0.594713045736785739237006965    0.931292907147838078252277683    1.720671536355599551271211567
  86 2    9.094330304981179224910192715    7.315629065085111903954384616    0.666173841084999218686846234    3.708548787804276880564202656   -0.838060750798473974576552337    2.659329827210237695567229821
  87 2    7.624418330233801555095851654    5.276802405625532266242316837    9.465588762709062464750786603   -1.117595588443004661627355745    0.473491062881269852979926327   -0.705961206204297142541292942
  88 2    4.045463596903861258624601760    8.974822916226193214583872759    9.661399729314412709868520324   -1.245030224897357928881547195    1.095007183267091788181346601    1.535024406212097236590352622
  89 2    9.312258252246056855483402614   10.905059221445462469546328066    9.016058151082003035980960703    0.173693962631178422384436999    0.401904174713928474815816116   -1.319897748325082886822201544
  90 2    7.233592020971014058261516766    5.195841072252789238916648173    6.823591594003566740411770297   -0.730473495254479576743733560    0.264590984343378798904211635    1.717080075983081766111126854
  91 2    5.460196819909387322411475907    0.374339848509613437599341523    5.919874651423051581389245257   -2.167984957819635738474062236   -0.495291321076876345230743937    1.023132959654452500686261374
  92 2    0.429730324117194972810551690    5.615761185739660099613956845    6.487286409627597727478587331   -1.386517946233679410283912148   -3.014318414584331584649135038    3.237175070870063287031825894
  93 2   10.844896110816222289940924384    9.219105242493332852404819278    4.042577377483310918648840016   -0.063155192052083530818151758   -1.507850949802103102115324873    2.182576742557821525281269714
  94 2    1.546149182744091632457639207    7.308468547434079809477225353    3.442743616767917735899118270    1.399608595730776894328073467   -2.206070607968448893387858334    1.436096757406206902984990847
  95 2    3.959497599892771724228168750    9.076069570128645125350885792    4.218707613282631108120313002   -0.840169692532068523860289133    1.131762509921950154989644943    0.097217667545274999429949503
  96 2    3.237580069833881246665896469    6.001408182502101951172335248    1.556824034598727202194368147    1.002078703838748641175016019   -0.939303003230628319464301512   -0.047516244019685072164094208
  97 2    5.252199260241763312251350726    7.176456891744027899449065444    0.847128870160719249504666095   -0.942740976455037626990929311    0.941915926500006772670303690   -0.489197314645176351000088744
  98 2    9.121307032318167529183483566   10.904049218866768811153633578    3.631447180046777134521107655   -2.201618163580260301159796654   -0.371288673636459065630077703    0.517315445293947129279388264
  99 2    9.241626515046386103335862572    3.380851060679749942039507005    9.096529022677470877056293830    0.569714077751900749291280590    1.090173400079359034009485185   -1.392534019189590743792450667
 100 2    7.175634508751802087545001996    5.908751372025710324464853329    1.588463205183012538768139166    0.121186893249486449253282672   -2.655668855136710693187751531    0.974146784859732495220896453
 101 2    8.774053967177586343950679293    3.685270149673245843047197923    1.308380696604832360563364091   -0.043832593843840667036104719    0.282286651856072767774463728   -1.835372550797019997048664663
 102 2    9.053922718036128358676251082    3.559516328361662651502683730    3.570018776621132428061855535    0.476765944869677493755943942    3.044397696742986880735770683    2.729992466005296769537835644
 103 2    7.102166366341482905966131511    5.252741201041756902156976139    4.546230065302393263948488311    0.619366110226392652116089721    4.641906525434224661808002566   -3.828939399260646858635936951
 104 2    3.270358460893346919107216308    9.325581866700479949372493138    1.643124112311061368885134470    1.599389298459618524717029686   -0.729203623277506207678300143   -0.668906557055010342338619012
 105 2    9.112926080709014442504667386    3.483589084601324881163009195    6.263019403218931913102096587   -2.668623220737479151409843325    1.317703139246620747115912309    2.462315218432217456268062961
 106 2    7.275315312458889849267507088    1.671792526415047053234275154    6.715893230399865743152076902   -0.124593965687359142791024169    1.033507914027436580539642819   -0.857794596297498213033350112
 107 2    2.110098823218693020464797883    3.539976080009019199223985197    8.757131122458586602874675009    0.109152594763459509508152223   -1.930953866738360558130693789    0.183491955580115995161349929
 108 2    6.934267365107722014272439992    9.320671979803970330635820574    6.821629372281265091260138433    4.965167473404638265321864310    0.186753932620982471268789027   -1.387256163322475588373094979
