LAMMPS (15 Jun 2023 - Development - patch_2Jun2022-5474-g9fb1ad52a0)
OMP_NUM_THREADS environment is not set. Defaulting to 1 thread. (src/comm.cpp:98)
  using 1 OpenMP thread(s) per MPI task
fitpod params.pod data.pod
Fast POD descriptors are used for this potential.
**************** Begin of POD Potentials ****************
species: Hf O 
periodic boundary conditions: 1 1 1
inner cut-off radius: 1
outer cut-off radius: 5
bessel polynomial degree: 4
inverse polynomial degree: 10
one-body potential: 1
two-body radial basis functions: 8
three-body radial basis functions: 6
three-body angular degree: 4
four-body radial basis functions: 5
four-body angular degree: 4
five-body radial basis functions: 4
five-body angular degree: 4
six-body radial basis functions: 3
six-body angular degree: 4
seven-body radial basis functions: 0
seven-body angular degree: 0
number of descriptors for one-body potential: 2
number of descriptors for two-body potential: 24
number of descriptors for three-body potential: 180
number of descriptors for four-body potential: 440
number of descriptors for five-body potential: 936
number of descriptors for six-body potential: 1836
number of descriptors for seven-body potential: 0
total number of descriptors for all potentials: 3418
**************** End of POD Potentials ****************

**************** Begin of Data File ****************
file format: extxyz
file extension: extxyz
path to training data set: ../../train
path to test data set: ../../test
basename for output files: HfO2FPOD
training fraction: 1
test fraction: 1
randomize training data set: 0
randomize test data set: 0
error analysis for training data set: 1
error analysis for test data set: 1
energy/force calculation for training data set: 0
energy/force calculation for test data set: 0
fitting weight for energy: 100
fitting weight for force: 1
fitting weight for stress: 0
save pod descriptors: 0
compute pod descriptors: 0
**************** End of Data File ****************
**************** Begin of Training Data Set ****************
------------------------------------------------------------------------------------
               data file                | number of configurations | number of atoms
------------------------------------------------------------------------------------
 HfO2_figshare_form_sorted_train.extxyz |              1747        |      172916
------------------------------------------------------------------------------------
number of files: 1
number of configurations in all files: 1747
number of atoms in all files: 172916
minimum number of atoms: 95
maximum number of atoms: 108
**************** End of Training Data Set ****************
**************** Begin of Test Data Set ****************
-----------------------------------------------------------------------------------
               data file               | number of configurations | number of atoms
-----------------------------------------------------------------------------------
 HfO2_figshare_form_sorted_test.extxyz |               305        |       29280
-----------------------------------------------------------------------------------
number of files: 1
number of configurations in all files: 305
number of atoms in all files: 29280
minimum number of atoms: 96
maximum number of atoms: 96
**************** End of Test Data Set ****************
maximum number of atoms in periodic domain: 108
maximum number of atoms in extended domain: 2916
maximum number of neighbors in extended domain: 314928
size of double memory: 48727008
size of int memory: 1
size of descriptor matrix: 3418 x 3418
**************** End of Memory Allocation ****************
**************** Begin of Least-Squares Fitting ****************
Configuration: # 1
Configuration: # 101
Configuration: # 201
Configuration: # 301
Configuration: # 401
Configuration: # 501
Configuration: # 601
Configuration: # 701
Configuration: # 801
Configuration: # 901
Configuration: # 1001
Configuration: # 1101
Configuration: # 1201
Configuration: # 1301
Configuration: # 1401
Configuration: # 1501
Configuration: # 1601
Configuration: # 1701
**************** End of Least-Squares Fitting ****************
**************** Begin of Error Calculation ****************
Configuration: # 1
Configuration: # 101
Configuration: # 201
Configuration: # 301
Configuration: # 401
Configuration: # 501
Configuration: # 601
Configuration: # 701
Configuration: # 801
Configuration: # 901
Configuration: # 1001
Configuration: # 1101
Configuration: # 1201
Configuration: # 1301
Configuration: # 1401
Configuration: # 1501
Configuration: # 1601
Configuration: # 1701
**************** End of Error Calculation ****************
**************** Begin of Error Analysis for the Training Data Set ****************
------------------------------------------------------------------------------------------------------------------------
                   File                   | # configs |  # atoms  | MAE energy  | RMSE energy | MAE force  | RMSE force
------------------------------------------------------------------------------------------------------------------------
HfO2_figshare_form_sorted_train.extxyz         1747      172916     0.002687      0.003638      0.111976      0.152636  
------------------------------------------------------------------------------------------------------------------------
All files                                      1747      172916     0.002687      0.003638      0.111976      0.152636  
------------------------------------------------------------------------------------------------------------------------
**************** End of Error Analysis for the Training Data Set ****************
**************** Begin of Error Calculation ****************
Configuration: # 1
Configuration: # 101
Configuration: # 201
Configuration: # 301
**************** End of Error Calculation ****************
**************** Begin of Error Analysis for the Test Data Set ****************
-----------------------------------------------------------------------------------------------------------------------
                  File                   | # configs |  # atoms  | MAE energy  | RMSE energy | MAE force  | RMSE force
-----------------------------------------------------------------------------------------------------------------------
HfO2_figshare_form_sorted_test.extxyz          305       29280     0.005080      0.006379      0.239331      0.316454  
-----------------------------------------------------------------------------------------------------------------------
All files                                      305       29280     0.005080      0.006379      0.239331      0.316454  
-----------------------------------------------------------------------------------------------------------------------
**************** End of Error Analysis for the Test Data Set ****************
Total wall time: 0:21:29
