ITEM: TIMESTEP
0
ITEM: NUMBER OF ATOMS
97
ITEM: BOX BOUNDS xy xz yz pp pp pp
-6.4403077717034343e+00 1.2880619210125165e+01 -6.4403077717034343e+00
0.0000000000000000e+00 1.1154943116692573e+01 0.0000000000000000e+00
0.0000000000000000e+00 1.5046356078130312e+01 0.0000000000000000e+00
ITEM: ATOMS id type xs ys zs
2 1 0.0922095 0.184531 0.166572
8 1 0.0821425 0.420261 0.166354
97 2 0.0277778 0.0138889 0.152444
26 1 0.334844 0.167422 0.166572
32 1 0.338194 0.420415 0.166337
56 1 0.583718 0.416382 0.166354
50 1 0.583718 0.167336 0.166354
80 1 0.832632 0.416316 0.166313
74 1 0.83255 0.167353 0.166354
14 1 0.0821425 0.661881 0.166354
20 1 0.0922095 0.907679 0.166572
38 1 0.333341 0.66667 0.166363
44 1 0.338194 0.917779 0.166337
62 1 0.579801 0.66192 0.166363
68 1 0.579801 0.917881 0.166363
92 1 0.815287 0.907643 0.166337
1 1 0.999925 0.999963 0.00734567
86 1 0.83255 0.665196 0.166354
4 1 0.0825463 0.165129 0.498988
9 1 0.000205284 0.250946 0.333958
33 1 0.250522 0.250889 0.333827
57 1 0.500705 0.250353 0.333595
63 1 0.500316 0.499773 0.334263
51 1 0.500316 0.000543214 0.334263
81 1 0.749772 0.250222 0.333465
87 1 0.749772 0.49955 0.333465
15 1 0.999479 0.49974 0.334237
21 1 0.000205283 0.749259 0.333958
22 1 0.0825463 0.917418 0.498988
27 1 0.250522 0.999633 0.333827
39 1 0.249967 0.500006 0.333063
40 1 0.333354 0.666677 0.499382
45 1 0.249967 0.749961 0.333063
69 1 0.500029 0.750015 0.333061
75 1 0.749146 0.999686 0.333854
93 1 0.749146 0.749459 0.333854
94 1 0.834911 0.917455 0.498915
3 1 0.99993 0.999965 0.325103
10 1 0.0836831 0.416665 0.500077
11 1 0.000411884 0.249774 0.666364
28 1 0.333704 0.166852 0.500343
34 1 0.332961 0.416622 0.500002
35 1 0.249402 0.249812 0.66629
58 1 0.583427 0.416596 0.500146
59 1 0.499961 0.249981 0.666364
52 1 0.583427 0.166831 0.500146
82 1 0.833161 0.416581 0.5001
83 1 0.750016 0.250015 0.666318
76 1 0.833145 0.166832 0.500345
16 1 0.0836831 0.667018 0.500077
17 1 3.33137e-05 0.500017 0.666318
23 1 0.000411885 0.750638 0.666364
29 1 0.249402 0.99959 0.66629
41 1 0.250212 0.500447 0.666288
46 1 0.332961 0.916338 0.500002
47 1 0.250212 0.749765 0.666288
53 1 0.499988 0.999954 0.666288
64 1 0.58334 0.667036 0.500047
65 1 0.499988 0.500034 0.666288
70 1 0.58334 0.916304 0.500047
71 1 0.499561 0.74978 0.666334
77 1 0.750205 0.99961 0.666288
95 1 0.750205 0.750595 0.666288
5 1 0.999976 0.999988 0.66629
88 1 0.833145 0.666313 0.500345
89 1 0.750016 0.500001 0.666318
6 1 0.0825233 0.165152 0.833698
7 1 0.000222269 0.250929 0.998857
12 1 0.0836938 0.416703 0.832584
30 1 0.33375 0.166875 0.832344
31 1 0.250524 0.250894 0.998622
36 1 0.333101 0.416903 0.83248
55 1 0.500671 0.250336 0.999221
60 1 0.583454 0.416634 0.832515
61 1 0.500328 0.499772 0.998432
49 1 0.500328 0.000555997 0.998432
54 1 0.583454 0.16682 0.832515
79 1 0.749778 0.250233 0.999194
84 1 0.833161 0.416581 0.832518
85 1 0.749778 0.499545 0.999194
13 1 0.999468 0.499734 0.998422
78 1 0.833107 0.166821 0.832317
18 1 0.0836938 0.666991 0.832584
19 1 0.000222267 0.749293 0.998857
24 1 0.0825233 0.917372 0.833698
25 1 0.250524 0.99963 0.998622
37 1 0.249954 0.500005 0.999631
42 1 0.33333 0.666665 0.833276
43 1 0.249954 0.749949 0.999631
48 1 0.333101 0.916198 0.83248
66 1 0.583352 0.667024 0.83261
67 1 0.500029 0.750015 0.999672
72 1 0.583352 0.916328 0.83261
73 1 0.749146 0.999699 0.99884
91 1 0.749146 0.749447 0.99884
96 1 0.83463 0.917315 0.833567
90 1 0.833107 0.666285 0.832317
ITEM: TIMESTEP
10
ITEM: NUMBER OF ATOMS
97
ITEM: BOX BOUNDS xy xz yz pp pp pp
-6.4403077717034343e+00 1.2880619210125165e+01 -6.4403077717034343e+00
0.0000000000000000e+00 1.1154943116692573e+01 0.0000000000000000e+00
0.0000000000000000e+00 1.5046356078130312e+01 0.0000000000000000e+00
ITEM: ATOMS id type xs ys zs
2 1 0.089301 0.191803 0.165468
8 1 0.0817331 0.422921 0.16671
97 2 0.0244228 0.0122114 0.153675
26 1 0.33323 0.166615 0.166186
32 1 0.339687 0.421264 0.166278
56 1 0.583177 0.416047 0.166451
50 1 0.583177 0.16713 0.166451
80 1 0.832146 0.416073 0.166446
74 1 0.832796 0.16814 0.16635
14 1 0.081733 0.658812 0.16671
20 1 0.089301 0.897498 0.165468
38 1 0.335337 0.667669 0.166465
44 1 0.339687 0.918423 0.166278
62 1 0.583482 0.666255 0.166432
68 1 0.583482 0.917227 0.166432
92 1 0.827725 0.913863 0.165944
1 1 0.00436815 0.00218408 0.0037228
86 1 0.832796 0.664656 0.16635
4 1 0.082697 0.165367 0.499288
9 1 0.999285 0.250803 0.334829
33 1 0.251487 0.2526 0.333879
57 1 0.500109 0.250054 0.333171
63 1 0.501286 0.50105 0.333951
51 1 0.501286 0.000236188 0.333951
81 1 0.749367 0.249934 0.333606
87 1 0.749367 0.499434 0.333606
15 1 0.998849 0.499424 0.335123
21 1 0.999285 0.748483 0.334829
22 1 0.082697 0.91733 0.499288
27 1 0.251487 0.998887 0.333879
39 1 0.250067 0.500096 0.333137
40 1 0.333491 0.666745 0.499488
45 1 0.250067 0.749971 0.333137
69 1 0.500191 0.750096 0.333184
75 1 0.751551 0.999914 0.332997
93 1 0.751551 0.751637 0.332997
94 1 0.835474 0.917737 0.498585
3 1 0.00500832 0.00250416 0.326987
10 1 0.0838518 0.416858 0.50041
11 1 0.000124332 0.24985 0.666225
28 1 0.333772 0.166886 0.500254
34 1 0.333393 0.417015 0.499996
35 1 0.249774 0.250026 0.666064
58 1 0.583196 0.416407 0.500038
59 1 0.500192 0.250096 0.666354
52 1 0.583196 0.166788 0.500038
82 1 0.832966 0.416483 0.500279
83 1 0.74991 0.250026 0.666438
76 1 0.832571 0.166642 0.500423
16 1 0.0838518 0.666994 0.50041
17 1 0.999872 0.499936 0.66633
23 1 0.000124333 0.750274 0.666225
29 1 0.249774 0.999748 0.666064
41 1 0.250276 0.500483 0.666277
46 1 0.333393 0.916378 0.499996
47 1 0.250276 0.749793 0.666277
53 1 0.500239 3.68098e-05 0.666218
64 1 0.583717 0.667297 0.499747
65 1 0.500239 0.500202 0.666218
70 1 0.583717 0.91642 0.499747
71 1 0.499723 0.749861 0.666341
77 1 0.749999 0.999655 0.666007
95 1 0.749999 0.750344 0.666007
5 1 0.99998 0.99999 0.666132
88 1 0.832571 0.66593 0.500423
89 1 0.74991 0.499884 0.666438
6 1 0.083294 0.166571 0.832571
7 1 0.999798 0.252172 0.997658
12 1 0.0838353 0.417103 0.83221
30 1 0.333812 0.166906 0.831973
31 1 0.253274 0.25448 0.997397
36 1 0.333843 0.417661 0.8322
55 1 0.50045 0.250225 0.999556
60 1 0.58322 0.416444 0.832707
61 1 0.501468 0.50137 0.998754
49 1 0.501468 9.86079e-05 0.998754
54 1 0.58322 0.166776 0.832707
79 1 0.749322 0.250004 0.999188
84 1 0.832963 0.416481 0.832546
85 1 0.749322 0.499319 0.999188
13 1 0.999056 0.499528 0.997907
78 1 0.83279 0.166581 0.832261
18 1 0.0838353 0.666733 0.83221
19 1 0.999798 0.747626 0.997658
24 1 0.083294 0.916723 0.832571
25 1 0.253274 0.998794 0.997397
37 1 0.250107 0.500177 0.999697
42 1 0.333448 0.666724 0.833247
43 1 0.250107 0.74993 0.999697
48 1 0.333843 0.916182 0.8322
66 1 0.583673 0.667177 0.832731
67 1 0.500081 0.750041 0.999572
72 1 0.583673 0.916496 0.832731
73 1 0.751094 0.999562 0.999214
91 1 0.751094 0.751532 0.999214
96 1 0.834123 0.917062 0.832554
90 1 0.83279 0.666209 0.832261
ITEM: TIMESTEP
20
ITEM: NUMBER OF ATOMS
97
ITEM: BOX BOUNDS xy xz yz pp pp pp
-6.4403077717034343e+00 1.2880619210125165e+01 -6.4403077717034343e+00
0.0000000000000000e+00 1.1154943116692573e+01 0.0000000000000000e+00
0.0000000000000000e+00 1.5046356078130312e+01 0.0000000000000000e+00
ITEM: ATOMS id type xs ys zs
2 1 0.0891797 0.192651 0.165306
8 1 0.0815897 0.423373 0.166659
97 2 0.0243895 0.0121947 0.157123
26 1 0.330375 0.165187 0.165931
32 1 0.340017 0.42181 0.166175
56 1 0.582107 0.415359 0.166352
50 1 0.582107 0.166748 0.166352
80 1 0.831425 0.415712 0.166418
74 1 0.832533 0.168611 0.166266
14 1 0.0815897 0.658216 0.166659
20 1 0.0891797 0.896529 0.165306
38 1 0.336224 0.668112 0.166405
44 1 0.340017 0.918208 0.166175
62 1 0.584546 0.666905 0.166357
68 1 0.584546 0.917641 0.166357
92 1 0.828622 0.914311 0.165914
1 1 0.0068854 0.0034427 0.00479692
86 1 0.832533 0.663921 0.166266
4 1 0.0828093 0.165668 0.499252
9 1 0.999337 0.251013 0.334738
33 1 0.251783 0.253571 0.333888
57 1 0.498972 0.249486 0.332716
63 1 0.501736 0.501834 0.333804
51 1 0.501736 0.999903 0.333804
81 1 0.748715 0.249697 0.333551
87 1 0.748715 0.499018 0.333551
15 1 0.998145 0.499073 0.335261
21 1 0.999337 0.748324 0.334738
22 1 0.0828093 0.917142 0.499252
27 1 0.251783 0.998212 0.333888
39 1 0.250011 0.500405 0.333034
40 1 0.333816 0.666908 0.499417
45 1 0.250011 0.749606 0.333034
69 1 0.500712 0.750356 0.333135
75 1 0.752667 0.000207897 0.332948
93 1 0.752667 0.752459 0.332948
94 1 0.836427 0.918213 0.498384
3 1 0.00713851 0.00356926 0.32595
10 1 0.0839701 0.416964 0.500404
11 1 0.999997 0.249876 0.666173
28 1 0.33327 0.166635 0.500077
34 1 0.33375 0.417495 0.499925
35 1 0.25001 0.250359 0.665962
58 1 0.582734 0.416012 0.499792
59 1 0.500018 0.250009 0.666209
52 1 0.582734 0.166722 0.499792
82 1 0.832658 0.416329 0.500354
83 1 0.749558 0.249842 0.666406
76 1 0.832455 0.166812 0.500371
16 1 0.0839701 0.667006 0.500404
17 1 0.999716 0.499858 0.666292
23 1 0.999997 0.75012 0.666173
29 1 0.25001 0.999651 0.665962
41 1 0.250356 0.500604 0.666198
46 1 0.33375 0.916255 0.499925
47 1 0.250356 0.749751 0.666198
53 1 0.500588 6.64475e-05 0.666135
64 1 0.584315 0.667703 0.499649
65 1 0.500588 0.500521 0.666135
70 1 0.584315 0.916612 0.499649
71 1 0.499832 0.749916 0.666289
77 1 0.750388 0.999587 0.665982
95 1 0.750388 0.7508 0.665982
5 1 0.000453995 0.000227 0.666081
88 1 0.832455 0.665643 0.500371
89 1 0.749558 0.499716 0.666406
6 1 0.083355 0.166718 0.832489
7 1 0.999724 0.252272 0.997464
12 1 0.0840664 0.417306 0.832098
30 1 0.333393 0.166697 0.83183
31 1 0.253384 0.255154 0.997211
36 1 0.334261 0.418226 0.832107
55 1 0.499401 0.249701 0.99973
60 1 0.582749 0.416046 0.83277
61 1 0.502059 0.502271 0.998734
49 1 0.502059 0.999788 0.998734
54 1 0.582749 0.166703 0.83277
79 1 0.748691 0.249735 0.999134
84 1 0.832778 0.416389 0.832475
85 1 0.748691 0.498956 0.999134
13 1 0.998446 0.499223 0.997755
78 1 0.832638 0.166736 0.832171
18 1 0.0840664 0.66676 0.832098
19 1 0.999724 0.747453 0.997464
24 1 0.083355 0.916637 0.832489
25 1 0.253384 0.998231 0.997211
37 1 0.250074 0.500506 0.999695
42 1 0.333891 0.666946 0.833226
43 1 0.250074 0.749568 0.999695
48 1 0.334261 0.916035 0.832107
66 1 0.58448 0.66773 0.832728
67 1 0.500763 0.750382 0.999513
72 1 0.58448 0.91675 0.832728
73 1 0.752563 9.72207e-07 0.999251
91 1 0.752563 0.752562 0.999251
96 1 0.835522 0.917761 0.832925
90 1 0.832638 0.665902 0.832171
ITEM: TIMESTEP
30
ITEM: NUMBER OF ATOMS
97
ITEM: BOX BOUNDS xy xz yz pp pp pp
-6.4403077717034343e+00 1.2880619210125165e+01 -6.4403077717034343e+00
0.0000000000000000e+00 1.1154943116692573e+01 0.0000000000000000e+00
0.0000000000000000e+00 1.5046356078130312e+01 0.0000000000000000e+00
ITEM: ATOMS id type xs ys zs
2 1 0.089213 0.193104 0.165357
8 1 0.081499 0.423568 0.166529
97 2 0.0238045 0.0119112 0.159576
26 1 0.329157 0.164579 0.165852
32 1 0.340094 0.422068 0.166115
56 1 0.581509 0.414995 0.166281
50 1 0.581509 0.166514 0.166281
80 1 0.830945 0.415472 0.166358
74 1 0.832377 0.168846 0.166218
14 1 0.0814992 0.657932 0.166529
20 1 0.0892162 0.896101 0.165358
38 1 0.336618 0.668309 0.166335
44 1 0.340094 0.918026 0.166115
62 1 0.584879 0.667001 0.166305
68 1 0.584879 0.917877 0.166305
92 1 0.828508 0.914254 0.165926
1 1 0.00807945 0.00404022 0.00566976
86 1 0.832376 0.66353 0.166218
4 1 0.0828331 0.165859 0.499162
9 1 0.99936 0.251203 0.334652
33 1 0.251982 0.254098 0.333933
57 1 0.498417 0.249208 0.332542
63 1 0.501862 0.502198 0.333763
51 1 0.501862 0.999664 0.333763
81 1 0.748274 0.249503 0.333495
87 1 0.748274 0.498771 0.333495
15 1 0.997671 0.498835 0.3352
21 1 0.99936 0.748157 0.334652
22 1 0.0828331 0.916974 0.499162
27 1 0.251982 0.997884 0.333933
39 1 0.249933 0.500572 0.332942
40 1 0.334112 0.667056 0.499343
45 1 0.249933 0.749361 0.332942
69 1 0.501024 0.750512 0.333091
75 1 0.753147 0.000356246 0.332922
93 1 0.753147 0.752791 0.332922
94 1 0.837016 0.918508 0.498254
3 1 0.00806841 0.00403467 0.325225
10 1 0.0839986 0.417087 0.500331
11 1 0.999983 0.249962 0.666137
28 1 0.332851 0.166425 0.500029
34 1 0.333894 0.417805 0.499916
35 1 0.250101 0.250602 0.665934
58 1 0.582364 0.415755 0.499688
59 1 0.499762 0.249881 0.666139
52 1 0.582364 0.166608 0.499688
82 1 0.832391 0.416195 0.500323
83 1 0.749264 0.249669 0.666344
76 1 0.832415 0.166941 0.500327
16 1 0.0839985 0.666912 0.500331
17 1 0.999486 0.499743 0.666242
23 1 0.999983 0.750022 0.666137
29 1 0.250101 0.999499 0.665934
41 1 0.250333 0.500725 0.666143
46 1 0.333894 0.916089 0.499916
47 1 0.250333 0.749609 0.666143
53 1 0.500786 0.999971 0.666109
64 1 0.584775 0.667995 0.499631
65 1 0.500786 0.500816 0.666109
70 1 0.584775 0.91678 0.499631
71 1 0.50001 0.750005 0.66626
77 1 0.750851 0.999617 0.666023
95 1 0.750851 0.751234 0.666023
5 1 0.000931218 0.000465619 0.666055
88 1 0.832415 0.665474 0.500327
89 1 0.749264 0.499595 0.666344
6 1 0.0833394 0.166747 0.832565
7 1 0.999695 0.252252 0.997431
12 1 0.0841873 0.417447 0.832062
30 1 0.333007 0.166504 0.831795
31 1 0.253332 0.255412 0.997237
36 1 0.334416 0.418507 0.832062
55 1 0.498824 0.249412 0.999766
60 1 0.582405 0.415789 0.832757
61 1 0.502242 0.502643 0.99867
49 1 0.502242 0.999599 0.99867
54 1 0.582405 0.166617 0.832757
79 1 0.74829 0.249552 0.999084
84 1 0.83256 0.41628 0.832392
85 1 0.74829 0.498738 0.999084
13 1 0.997966 0.498983 0.997642
78 1 0.832606 0.166935 0.832131
18 1 0.0841873 0.66674 0.832062
19 1 0.999695 0.747443 0.997431
24 1 0.0833394 0.916592 0.832565
25 1 0.253332 0.99792 0.997237
37 1 0.250055 0.500713 0.999642
42 1 0.3343 0.66715 0.833189
43 1 0.250055 0.749342 0.999642
48 1 0.334416 0.915909 0.832062
66 1 0.585065 0.668114 0.83273
67 1 0.501194 0.750597 0.999482
72 1 0.585065 0.916951 0.83273
73 1 0.75326 0.000278044 0.999298
91 1 0.75326 0.752982 0.999297
96 1 0.836512 0.918256 0.833279
90 1 0.832606 0.665672 0.832131
ITEM: TIMESTEP
40
ITEM: NUMBER OF ATOMS
97
ITEM: BOX BOUNDS xy xz yz pp pp pp
-6.4403077717034343e+00 1.2880619210125165e+01 -6.4403077717034343e+00
0.0000000000000000e+00 1.1154943116692573e+01 0.0000000000000000e+00
0.0000000000000000e+00 1.5046356078130312e+01 0.0000000000000000e+00
ITEM: ATOMS id type xs ys zs
2 1 0.0892922 0.193194 0.165396
8 1 0.0814763 0.423594 0.16648
97 2 0.0234019 0.0117069 0.160218
26 1 0.328989 0.164495 0.165852
32 1 0.340112 0.422143 0.166102
56 1 0.581385 0.414926 0.166261
50 1 0.581385 0.166459 0.166261
80 1 0.830822 0.415411 0.166333
74 1 0.832355 0.168901 0.166204
14 1 0.0814764 0.657883 0.16648
20 1 0.0892944 0.896093 0.165397
38 1 0.336694 0.668347 0.166309
44 1 0.340112 0.917969 0.166102
62 1 0.584919 0.666977 0.166289
68 1 0.584919 0.917942 0.166289
92 1 0.828334 0.914167 0.165937
1 1 0.00831158 0.00415613 0.00591991
86 1 0.832355 0.663454 0.166204
4 1 0.0828398 0.165914 0.499137
9 1 0.999376 0.251258 0.334624
33 1 0.252037 0.254212 0.333948
57 1 0.498322 0.249161 0.332522
63 1 0.501872 0.502273 0.333761
51 1 0.501872 0.999599 0.333761
81 1 0.748165 0.249446 0.333477
87 1 0.748165 0.498719 0.333477
15 1 0.997541 0.49877 0.335162
21 1 0.999376 0.748118 0.334624
22 1 0.0828398 0.916925 0.499137
27 1 0.252037 0.997825 0.333948
39 1 0.249901 0.500609 0.332912
40 1 0.334203 0.667102 0.499316
45 1 0.249901 0.749293 0.332912
69 1 0.5011 0.75055 0.333075
75 1 0.753238 0.00038979 0.332923
93 1 0.753237 0.752848 0.332923
94 1 0.837165 0.918583 0.498229
3 1 0.00823556 0.0041181 0.325047
10 1 0.083996 0.417128 0.500303
11 1 0.999995 0.249993 0.666127
28 1 0.332733 0.166367 0.500027
34 1 0.333914 0.417886 0.499917
35 1 0.250124 0.250673 0.665936
58 1 0.582255 0.415693 0.499671
59 1 0.499681 0.24984 0.666126
52 1 0.582255 0.166562 0.499671
82 1 0.832295 0.416148 0.500303
83 1 0.749174 0.24961 0.666322
76 1 0.832415 0.166982 0.500314
16 1 0.083996 0.666868 0.500303
17 1 0.999392 0.499696 0.66622
23 1 0.999995 0.750001 0.666127
29 1 0.250124 0.999451 0.665936
41 1 0.250317 0.500766 0.666126
46 1 0.333914 0.916028 0.499917
47 1 0.250317 0.749552 0.666126
53 1 0.500826 0.999923 0.666104
64 1 0.584903 0.668074 0.49963
65 1 0.500826 0.500903 0.666104
70 1 0.584903 0.916829 0.49963
71 1 0.500075 0.750037 0.666248
77 1 0.750996 0.999637 0.666036
95 1 0.750996 0.751359 0.666036
5 1 0.00108288 0.00054145 0.666054
88 1 0.832415 0.665432 0.500314
89 1 0.749174 0.499564 0.666322
6 1 0.0833409 0.166754 0.832605
7 1 0.999711 0.252243 0.997438
12 1 0.0842134 0.417488 0.83205
30 1 0.332902 0.166451 0.831801
31 1 0.253314 0.255445 0.997276
36 1 0.334436 0.418567 0.832056
55 1 0.498721 0.249361 0.999762
60 1 0.582313 0.41573 0.832744
61 1 0.502267 0.502714 0.998644
49 1 0.502267 0.999553 0.998644
54 1 0.582313 0.166583 0.832744
79 1 0.748201 0.249504 0.999064
84 1 0.83248 0.41624 0.832361
85 1 0.748201 0.498697 0.999064
13 1 0.997837 0.498918 0.997606
78 1 0.832619 0.167001 0.832119
18 1 0.0842134 0.666725 0.83205
19 1 0.999711 0.747468 0.997438
24 1 0.0833409 0.916587 0.832605
25 1 0.253314 0.997869 0.997276
37 1 0.250049 0.500764 0.999619
42 1 0.334426 0.667213 0.833173
43 1 0.250049 0.749285 0.999619
48 1 0.334436 0.91587 0.832056
66 1 0.585225 0.668215 0.832725
67 1 0.501307 0.750653 0.99947
72 1 0.585225 0.91701 0.832725
73 1 0.753404 0.000346536 0.999302
91 1 0.753404 0.753057 0.999302
96 1 0.836772 0.918386 0.833374
90 1 0.832619 0.665617 0.832119
ITEM: TIMESTEP
50
ITEM: NUMBER OF ATOMS
97
ITEM: BOX BOUNDS xy xz yz pp pp pp
-6.4403077717034343e+00 1.2880619210125165e+01 -6.4403077717034343e+00
0.0000000000000000e+00 1.1154943116692573e+01 0.0000000000000000e+00
0.0000000000000000e+00 1.5046356078130312e+01 0.0000000000000000e+00
ITEM: ATOMS id type xs ys zs
2 1 0.0893397 0.193223 0.165413
8 1 0.0814701 0.423598 0.166461
97 2 0.0232024 0.0115982 0.160446
26 1 0.328962 0.164481 0.165855
32 1 0.34012 0.422174 0.166098
56 1 0.58135 0.414909 0.166255
50 1 0.58135 0.166442 0.166255
80 1 0.830781 0.41539 0.166322
74 1 0.832354 0.16892 0.166198
14 1 0.08147 0.657872 0.166461
20 1 0.0893386 0.89612 0.165413
38 1 0.336716 0.668358 0.166299
44 1 0.34012 0.917947 0.166098
62 1 0.584927 0.66696 0.166284
68 1 0.584927 0.917966 0.166284
92 1 0.828244 0.914122 0.165941
1 1 0.00837895 0.00418931 0.00601272
86 1 0.832354 0.663434 0.166198
4 1 0.0828429 0.165934 0.499127
9 1 0.999386 0.251278 0.334611
33 1 0.252058 0.254247 0.333953
57 1 0.498301 0.249151 0.33252
63 1 0.501873 0.502296 0.333762
51 1 0.501873 0.999577 0.333762
81 1 0.74813 0.249425 0.333471
87 1 0.74813 0.498704 0.333471
15 1 0.997495 0.498748 0.335146
21 1 0.999386 0.748108 0.334611
22 1 0.0828429 0.916909 0.499127
27 1 0.252058 0.997811 0.333953
39 1 0.249888 0.50062 0.332901
40 1 0.334235 0.667118 0.499305
45 1 0.249888 0.749268 0.332901
69 1 0.501126 0.750563 0.333068
75 1 0.753263 0.000400345 0.332926
93 1 0.753263 0.752863 0.332926
94 1 0.837217 0.918608 0.498221
3 1 0.008281 0.00414034 0.324984
10 1 0.0839919 0.417142 0.500291
11 1 5.82762e-08 0.250005 0.666123
28 1 0.332692 0.166346 0.500028
34 1 0.333917 0.417914 0.499918
35 1 0.250132 0.250698 0.665938
58 1 0.582215 0.415673 0.499667
59 1 0.499651 0.249825 0.666123
52 1 0.582215 0.166543 0.499667
82 1 0.832257 0.416128 0.500294
83 1 0.749141 0.249587 0.666313
76 1 0.832416 0.166998 0.500309
16 1 0.0839919 0.66685 0.500291
17 1 0.999353 0.499676 0.666211
23 1 6.04124e-08 0.749995 0.666123
29 1 0.250132 0.999434 0.665938
41 1 0.250309 0.50078 0.66612
46 1 0.333917 0.916003 0.499918
47 1 0.250309 0.749529 0.66612
53 1 0.500836 0.999902 0.666103
64 1 0.584947 0.668101 0.499629
65 1 0.500836 0.500934 0.666103
70 1 0.584947 0.916845 0.499629
71 1 0.500098 0.750049 0.666243
77 1 0.751048 0.999645 0.666041
95 1 0.751048 0.751403 0.666041
5 1 0.00113845 0.000569223 0.666055
88 1 0.832416 0.665419 0.500309
89 1 0.749141 0.499553 0.666313
6 1 0.0833434 0.166756 0.832622
7 1 0.999723 0.25224 0.997442
12 1 0.0842205 0.417502 0.832046
30 1 0.332867 0.166433 0.831805
31 1 0.253308 0.25545 0.997295
36 1 0.33444 0.418585 0.832055
55 1 0.498698 0.249349 0.999758
60 1 0.582282 0.415712 0.832738
61 1 0.502274 0.502735 0.998634
49 1 0.502274 0.999539 0.998634
54 1 0.582282 0.16657 0.832738
79 1 0.748176 0.249487 0.999056
84 1 0.832448 0.416224 0.832349
85 1 0.748176 0.498688 0.999056
13 1 0.997793 0.498897 0.997593
78 1 0.832627 0.167026 0.832114
18 1 0.0842205 0.666718 0.832046
19 1 0.999723 0.747483 0.997443
24 1 0.0833434 0.916587 0.832622
25 1 0.253308 0.997858 0.997295
37 1 0.250047 0.500781 0.99961
42 1 0.334471 0.667235 0.833167
43 1 0.250047 0.749266 0.99961
48 1 0.33444 0.915855 0.832055
66 1 0.585281 0.66825 0.832722
67 1 0.501346 0.750673 0.999465
72 1 0.585281 0.91703 0.832722
73 1 0.753447 0.000369587 0.9993
91 1 0.753447 0.753078 0.9993
96 1 0.836862 0.918431 0.833406
90 1 0.832627 0.6656 0.832114
ITEM: TIMESTEP
60
ITEM: NUMBER OF ATOMS
97
ITEM: BOX BOUNDS xy xz yz pp pp pp
-6.4403077717034343e+00 1.2880619210125165e+01 -6.4403077717034343e+00
0.0000000000000000e+00 1.1154943116692573e+01 0.0000000000000000e+00
0.0000000000000000e+00 1.5046356078130312e+01 0.0000000000000000e+00
ITEM: ATOMS id type xs ys zs
2 1 0.0893876 0.193232 0.165427
8 1 0.081467 0.423599 0.166445
97 2 0.0230092 0.0115072 0.160626
26 1 0.328963 0.164481 0.165859
32 1 0.34013 0.4222 0.166095
56 1 0.58133 0.4149 0.16625
50 1 0.58133 0.16643 0.16625
80 1 0.830752 0.415376 0.166314
74 1 0.832357 0.168934 0.166193
14 1 0.081467 0.657868 0.166445
20 1 0.0893886 0.896152 0.165427
38 1 0.33673 0.668365 0.16629
44 1 0.34013 0.91793 0.166095
62 1 0.584928 0.666942 0.166279
68 1 0.584928 0.917986 0.166279
92 1 0.828155 0.914077 0.165944
1 1 0.00842215 0.00421123 0.0060875
86 1 0.832357 0.663423 0.166193
4 1 0.0828458 0.165949 0.499119
9 1 0.999397 0.251293 0.3346
33 1 0.252075 0.25427 0.333956
57 1 0.498294 0.249147 0.332522
63 1 0.501873 0.502312 0.333764
51 1 0.501873 0.99956 0.333764
81 1 0.748106 0.24941 0.333465
87 1 0.748106 0.498697 0.333465
15 1 0.997461 0.498731 0.33513
21 1 0.999397 0.748104 0.3346
22 1 0.0828458 0.916897 0.499119
27 1 0.252075 0.997805 0.333956
39 1 0.249878 0.500628 0.332892
40 1 0.334258 0.667129 0.499296
45 1 0.249878 0.74925 0.332892
69 1 0.501144 0.750572 0.333062
75 1 0.753279 0.000407617 0.332929
93 1 0.753279 0.752872 0.332929
94 1 0.837255 0.918628 0.498216
3 1 0.00830817 0.00415423 0.324934
10 1 0.0839862 0.417152 0.500281
11 1 4.51448e-06 0.250013 0.66612
28 1 0.332662 0.166331 0.500029
34 1 0.333917 0.417934 0.499918
35 1 0.250137 0.250716 0.66594
58 1 0.582185 0.415659 0.499665
59 1 0.499628 0.249814 0.666121
52 1 0.582185 0.166526 0.499665
82 1 0.832224 0.416112 0.500286
83 1 0.749114 0.249568 0.666305
76 1 0.832419 0.167009 0.500305
16 1 0.0839861 0.666834 0.500281
17 1 0.999319 0.49966 0.666204
23 1 4.51317e-06 0.749992 0.66612
29 1 0.250137 0.999421 0.66594
41 1 0.2503 0.50079 0.666115
46 1 0.333917 0.915983 0.499918
47 1 0.2503 0.749509 0.666115
53 1 0.50084 0.999883 0.666102
64 1 0.58498 0.668122 0.499629
65 1 0.50084 0.500958 0.666102
70 1 0.58498 0.916857 0.499629
71 1 0.500114 0.750057 0.666239
77 1 0.751087 0.999651 0.666044
95 1 0.751087 0.751436 0.666044
5 1 0.00118144 0.000590726 0.666055
88 1 0.832419 0.665409 0.500305
89 1 0.749114 0.499546 0.666305
6 1 0.0833463 0.166757 0.832637
7 1 0.999736 0.252236 0.997448
12 1 0.084224 0.417512 0.832042
30 1 0.332842 0.166421 0.83181
31 1 0.253305 0.255448 0.997314
36 1 0.33444 0.418597 0.832055
55 1 0.498689 0.249345 0.999753
60 1 0.582259 0.415701 0.832733
61 1 0.502278 0.502749 0.998626
49 1 0.502278 0.999529 0.998626
54 1 0.582259 0.166558 0.832733
79 1 0.748161 0.249476 0.99905
84 1 0.832422 0.416211 0.832339
85 1 0.748161 0.498685 0.99905
13 1 0.997762 0.498881 0.997583
78 1 0.832634 0.167045 0.83211
18 1 0.084224 0.666712 0.832042
19 1 0.999736 0.7475 0.997448
24 1 0.0833463 0.916589 0.832637
25 1 0.253305 0.997857 0.997314
37 1 0.250046 0.500793 0.999602
42 1 0.334505 0.667252 0.833162
43 1 0.250046 0.749253 0.999602
48 1 0.33444 0.915844 0.832055
66 1 0.585322 0.668276 0.832719
67 1 0.501375 0.750688 0.999461
72 1 0.585322 0.917045 0.832719
73 1 0.753476 0.000386563 0.999297
91 1 0.753476 0.75309 0.999297
96 1 0.836931 0.918466 0.83343
90 1 0.832634 0.665589 0.83211
ITEM: TIMESTEP
65
ITEM: NUMBER OF ATOMS
97
ITEM: BOX BOUNDS xy xz yz pp pp pp
-6.4403077717034343e+00 1.2880619210125165e+01 -6.4403077717034343e+00
0.0000000000000000e+00 1.1154943116692573e+01 0.0000000000000000e+00
0.0000000000000000e+00 1.5046356078130312e+01 0.0000000000000000e+00
ITEM: ATOMS id type xs ys zs
2 1 0.0894052 0.193237 0.165431
8 1 0.0814667 0.423599 0.16644
97 2 0.0229463 0.0114728 0.160676
26 1 0.328969 0.164484 0.165861
32 1 0.340133 0.422208 0.166095
56 1 0.581327 0.414899 0.166249
50 1 0.581327 0.166428 0.166249
80 1 0.830745 0.415373 0.166311
74 1 0.832359 0.168938 0.166192
14 1 0.0814667 0.657868 0.16644
20 1 0.0894051 0.896168 0.165431
38 1 0.336733 0.668367 0.166288
44 1 0.340133 0.917925 0.166095
62 1 0.584928 0.666936 0.166277
68 1 0.584928 0.917992 0.166277
92 1 0.828125 0.914063 0.165945
1 1 0.0084317 0.00421583 0.00610867
86 1 0.832359 0.663421 0.166192
4 1 0.0828467 0.165953 0.499117
9 1 0.999401 0.251297 0.334597
33 1 0.25208 0.254276 0.333957
57 1 0.498294 0.249147 0.332524
63 1 0.501872 0.502316 0.333765
51 1 0.501872 0.999556 0.333765
81 1 0.748101 0.249405 0.333464
87 1 0.748101 0.498696 0.333464
15 1 0.997452 0.498726 0.335126
21 1 0.999401 0.748104 0.334597
22 1 0.0828467 0.916894 0.499117
27 1 0.25208 0.997804 0.333957
39 1 0.249875 0.50063 0.33289
40 1 0.334264 0.667132 0.499294
45 1 0.249875 0.749245 0.33289
69 1 0.501149 0.750574 0.33306
75 1 0.753283 0.000409409 0.33293
93 1 0.753283 0.752874 0.33293
94 1 0.837266 0.918633 0.498215
3 1 0.0083137 0.00415683 0.324919
10 1 0.0839839 0.417155 0.500278
11 1 5.60187e-06 0.250015 0.666119
28 1 0.332654 0.166327 0.50003
34 1 0.333916 0.417939 0.499918
35 1 0.250139 0.250721 0.665941
58 1 0.582176 0.415655 0.499665
59 1 0.499621 0.249811 0.666121
52 1 0.582176 0.166521 0.499665
82 1 0.832214 0.416107 0.500283
83 1 0.749106 0.249563 0.666303
76 1 0.83242 0.167013 0.500304
16 1 0.0839839 0.666829 0.500278
17 1 0.999309 0.499655 0.666201
23 1 5.60238e-06 0.749991 0.666119
29 1 0.250139 0.999418 0.665941
41 1 0.250296 0.500793 0.666114
46 1 0.333916 0.915977 0.499918
47 1 0.250296 0.749504 0.666114
53 1 0.500841 0.999877 0.666102
64 1 0.584988 0.668128 0.499629
65 1 0.500841 0.500964 0.666102
70 1 0.584988 0.91686 0.499629
71 1 0.500118 0.750059 0.666238
77 1 0.751097 0.999653 0.666044
95 1 0.751097 0.751445 0.666044
5 1 0.00119287 0.000596438 0.666056
88 1 0.83242 0.665407 0.500304
89 1 0.749106 0.499544 0.666303
6 1 0.0833473 0.166757 0.832641
7 1 0.99974 0.252235 0.997449
12 1 0.0842242 0.417515 0.832041
30 1 0.332835 0.166418 0.831812
31 1 0.253304 0.255447 0.99732
36 1 0.33444 0.418599 0.832056
55 1 0.498689 0.249345 0.999751
60 1 0.582252 0.415698 0.832731
61 1 0.502279 0.502752 0.998623
49 1 0.502279 0.999527 0.998623
54 1 0.582252 0.166554 0.832731
79 1 0.748158 0.249473 0.999048
84 1 0.832415 0.416207 0.832336
85 1 0.748158 0.498685 0.999048
13 1 0.997754 0.498877 0.997581
78 1 0.832637 0.167051 0.832108
18 1 0.0842242 0.66671 0.832041
19 1 0.99974 0.747506 0.997449
24 1 0.0833473 0.91659 0.832641
25 1 0.253304 0.997858 0.99732
37 1 0.250046 0.500796 0.9996
42 1 0.334514 0.667257 0.833161
43 1 0.250046 0.74925 0.9996
48 1 0.33444 0.91584 0.832056
66 1 0.585332 0.668283 0.832718
67 1 0.501383 0.750691 0.99946
72 1 0.585332 0.917049 0.832718
73 1 0.753483 0.000390951 0.999296
91 1 0.753483 0.753092 0.999296
96 1 0.836949 0.918475 0.833437
90 1 0.832637 0.665586 0.832108
ITEM: TIMESTEP
70
ITEM: NUMBER OF ATOMS
97
ITEM: BOX BOUNDS xy xz yz pp pp pp
-6.4403077717034343e+00 1.2880619210125165e+01 -6.4403077717034343e+00
0.0000000000000000e+00 1.1154943116692573e+01 0.0000000000000000e+00
0.0000000000000000e+00 1.5046356078130312e+01 0.0000000000000000e+00
ITEM: ATOMS id type xs ys zs
2 1 0.0893876 0.193238 0.165433
8 1 0.0814614 0.423599 0.166439
97 2 0.0231201 0.0115614 0.160641
1 1 0.00844038 0.00422027 0.00610023
26 1 0.328938 0.164469 0.165864
32 1 0.340128 0.422206 0.166095
56 1 0.581315 0.414894 0.166249
50 1 0.581315 0.166421 0.166249
80 1 0.830735 0.415368 0.166309
74 1 0.832357 0.168935 0.166192
14 1 0.0814615 0.657863 0.166439
20 1 0.0893881 0.896149 0.165433
38 1 0.336737 0.668369 0.166287
44 1 0.340128 0.917922 0.166095
62 1 0.584939 0.666946 0.166277
68 1 0.584939 0.917992 0.166277
92 1 0.828173 0.914086 0.165949
86 1 0.832357 0.663422 0.166192
4 1 0.0828454 0.165957 0.49912
3 1 0.00832413 0.00416214 0.324934
33 1 0.252085 0.254287 0.333963
57 1 0.498285 0.249142 0.332521
34 1 0.333915 0.417944 0.49992
58 1 0.582165 0.41565 0.499664
81 1 0.748092 0.249399 0.333462
87 1 0.748092 0.498692 0.333462
52 1 0.582165 0.166516 0.499664
9 1 0.999395 0.251297 0.334599
15 1 0.99744 0.49872 0.335124
75 1 0.753288 0.000410157 0.332929
22 1 0.0828454 0.916888 0.49912
27 1 0.252085 0.997798 0.333963
51 1 0.501871 0.999549 0.333764
39 1 0.249869 0.500631 0.332888
40 1 0.334267 0.667134 0.499292
45 1 0.249869 0.749238 0.332888
46 1 0.333915 0.915971 0.49992
63 1 0.501871 0.502322 0.333764
69 1 0.50115 0.750575 0.33306
93 1 0.753288 0.752877 0.332929
94 1 0.83727 0.918635 0.498217
64 1 0.584993 0.668131 0.49963
70 1 0.584993 0.916862 0.49963
21 1 0.999395 0.748099 0.334599
10 1 0.0839798 0.417157 0.500277
11 1 3.43703e-06 0.250016 0.66612
5 1 0.00120152 0.000600765 0.666057
28 1 0.332645 0.166322 0.500032
35 1 0.250139 0.250725 0.665943
59 1 0.499614 0.249807 0.666121
82 1 0.832203 0.416102 0.500282
83 1 0.749097 0.249557 0.666302
89 1 0.749097 0.49954 0.666302
76 1 0.832416 0.167014 0.500303
17 1 0.999297 0.499649 0.6662
16 1 0.0839798 0.666823 0.500277
23 1 3.43655e-06 0.749988 0.66612
29 1 0.250139 0.999414 0.665943
41 1 0.250291 0.500794 0.666113
47 1 0.250291 0.749497 0.666113
53 1 0.50084 0.999872 0.666102
65 1 0.50084 0.500968 0.666102
71 1 0.50012 0.75006 0.666238
77 1 0.751104 0.999654 0.666045
95 1 0.751104 0.75145 0.666045
88 1 0.832416 0.665402 0.500303
6 1 0.0833476 0.166761 0.832643
12 1 0.0842226 0.417517 0.832041
30 1 0.332828 0.166414 0.831813
31 1 0.253311 0.255458 0.997317
36 1 0.33444 0.418605 0.832055
55 1 0.498678 0.249339 0.999756
60 1 0.582243 0.415693 0.832732