ITEM: TIMESTEP
0
ITEM: NUMBER OF ATOMS
97
ITEM: BOX BOUNDS xy xz yz pp pp pp
-6.4403077717034343e+00 1.2880619210125165e+01 -6.4403077717034343e+00
0.0000000000000000e+00 1.1154943116692573e+01 0.0000000000000000e+00
0.0000000000000000e+00 1.5046356078130312e+01 0.0000000000000000e+00
ITEM: ATOMS id type xs ys zs
2 1 0.0849296 0.170418 0.167795
8 1 0.0832453 0.417701 0.166703
26 1 0.333993 0.166997 0.167795
32 1 0.334833 0.418472 0.16662
56 1 0.583576 0.416925 0.166703
97 2 0.138889 0.0694444 0.0971555
50 1 0.583576 0.16665 0.166703
80 1 0.833193 0.416597 0.166502
74 1 0.832861 0.166654 0.166703
14 1 0.0832453 0.665544 0.166703
20 1 0.0849296 0.914511 0.167795
38 1 0.33337 0.666685 0.166752
44 1 0.334833 0.916361 0.16662
62 1 0.582609 0.665735 0.166752
67 1 0.500006 0.750003 2.83001e-05
68 1 0.582609 0.916874 0.166752
92 1 0.828668 0.914334 0.16662
1 1 0.999627 0.999814 0.00032147
86 1 0.832861 0.666207 0.166703
33 1 0.250273 0.250514 0.333539
34 1 0.333193 0.416527 0.499854
57 1 0.50136 0.25068 0.334123
51 1 0.50032 0.000197217 0.333756
81 1 0.749945 0.250026 0.333471
87 1 0.749945 0.499919 0.333471
9 1 0.999432 0.250799 0.334195
15 1 0.999914 0.499957 0.333626
75 1 0.749661 2.58182e-05 0.333674
27 1 0.250273 0.999758 0.333539
39 1 0.249905 0.50017 0.333516
40 1 0.333437 0.666718 0.499947
45 1 0.249905 0.749735 0.333516
46 1 0.333193 0.916666 0.499854
63 1 0.50032 0.500123 0.333756
69 1 0.500006 0.750003 0.333506
93 1 0.749661 0.749635 0.333674
94 1 0.83378 0.91689 0.499636
3 1 0.99965 0.999825 0.331794
21 1 0.999432 0.748633 0.334195
4 1 0.0831183 0.166417 0.500002
10 1 0.0834406 0.416739 0.50023
11 1 0.000147864 0.249889 0.666753
28 1 0.333523 0.166761 0.500273
35 1 0.249938 0.250078 0.666387
58 1 0.583388 0.416726 0.500243
59 1 0.499861 0.249931 0.666753
52 1 0.583388 0.166662 0.500243
53 1 0.500071 2.80065e-05 0.666377
82 1 0.833299 0.416649 0.500013
83 1 0.750053 0.250102 0.666526
89 1 0.750053 0.49995 0.666526
17 1 0.999907 0.499954 0.666526
76 1 0.833223 0.166662 0.500283
16 1 0.0834406 0.666701 0.50023
22 1 0.0831183 0.916702 0.500002
23 1 0.000147866 0.750258 0.666753
29 1 0.249938 0.99986 0.666387
41 1 0.250005 0.500125 0.666377
47 1 0.250005 0.74988 0.666377
64 1 0.583285 0.66679 0.50008
65 1 0.500071 0.500043 0.666377
70 1 0.583285 0.916495 0.50008
71 1 0.499912 0.749956 0.666607
77 1 0.750005 0.999959 0.666377
95 1 0.750005 0.750046 0.666377
5 1 0.99988 0.99994 0.666387
88 1 0.833223 0.66656 0.500283
6 1 0.0830032 0.166532 0.8333
12 1 0.083494 0.416931 0.832947
30 1 0.333753 0.166876 0.833029
31 1 0.250284 0.250537 0.998577
36 1 0.333896 0.417933 0.832426
55 1 0.50119 0.250595 0.999825
60 1 0.583526 0.416917 0.832933
49 1 0.500381 0.000261342 0.999587
54 1 0.583526 0.166609 0.832933
79 1 0.749973 0.250082 0.999693
84 1 0.833299 0.416649 0.832944
85 1 0.749973 0.499891 0.999693
7 1 0.999517 0.250714 0.999752
13 1 0.999858 0.499929 0.999538
73 1 0.749664 8.99494e-05 0.999669
78 1 0.833031 0.166609 0.832894
18 1 0.083494 0.666563 0.832947
24 1 0.0830032 0.916471 0.8333
25 1 0.250284 0.999747 0.998577
37 1 0.249841 0.500167 0.999827
42 1 0.333314 0.666657 0.83321
43 1 0.249841 0.749674 0.999827
48 1 0.333896 0.915964 0.832426
61 1 0.500381 0.50012 0.999587
66 1 0.583346 0.666729 0.833077
72 1 0.583346 0.916617 0.833077
91 1 0.749664 0.749574 0.999669
96 1 0.832374 0.916187 0.832643
19 1 0.999517 0.748803 0.999752
90 1 0.833031 0.666422 0.832894
ITEM: TIMESTEP
10
ITEM: NUMBER OF ATOMS
97
ITEM: BOX BOUNDS xy xz yz pp pp pp
-6.4403077717034343e+00 1.2880619210125165e+01 -6.4403077717034343e+00
0.0000000000000000e+00 1.1154943116692573e+01 0.0000000000000000e+00
0.0000000000000000e+00 1.5046356078130312e+01 0.0000000000000000e+00
ITEM: ATOMS id type xs ys zs
2 1 0.0814713 0.176127 0.170104
8 1 0.0818454 0.419913 0.167004
26 1 0.325559 0.162779 0.168114
32 1 0.335442 0.418294 0.166666
56 1 0.582225 0.415795 0.16662
97 2 0.142514 0.0712569 0.0956971
50 1 0.582225 0.16643 0.16662
80 1 0.832472 0.416236 0.166398
74 1 0.832124 0.166212 0.166573
14 1 0.0818454 0.661932 0.167004
20 1 0.0814713 0.905344 0.170104
38 1 0.334247 0.667124 0.166581
44 1 0.335442 0.917147 0.166666
62 1 0.58279 0.665849 0.166633
67 1 0.499902 0.749951 0.999801
68 1 0.58279 0.91694 0.166633
92 1 0.826533 0.913267 0.167763
1 1 0.995426 0.997713 0.000104147
86 1 0.832124 0.665911 0.166573
33 1 0.250391 0.251651 0.334372
34 1 0.333311 0.416817 0.500054
57 1 0.499347 0.249673 0.333126
51 1 0.500621 3.30441e-06 0.333871
81 1 0.749021 0.249797 0.333404
87 1 0.749021 0.499224 0.333404
9 1 0.998011 0.251803 0.336023
15 1 0.99915 0.499575 0.33476
75 1 0.749733 0.000204123 0.333924
27 1 0.250391 0.99874 0.334372
39 1 0.249747 0.500052 0.333353
40 1 0.333441 0.66672 0.499753
45 1 0.249747 0.749696 0.333353
46 1 0.333311 0.916494 0.500054
63 1 0.500621 0.500617 0.333871
69 1 0.500082 0.750041 0.333408
93 1 0.749733 0.749529 0.333924
94 1 0.833933 0.916966 0.499595
3 1 0.999868 0.999934 0.333116
21 1 0.998011 0.746209 0.336023
4 1 0.0829144 0.166251 0.500418
10 1 0.0838964 0.417098 0.50083
11 1 0.000115943 0.249757 0.666785
28 1 0.333675 0.166837 0.500461
35 1 0.249846 0.249984 0.666472
58 1 0.58305 0.416292 0.500039
59 1 0.499915 0.249958 0.666718
52 1 0.58305 0.166758 0.500039
53 1 0.500022 0.000109832 0.666403
82 1 0.833065 0.416532 0.500204
83 1 0.749842 0.250043 0.666498
89 1 0.749842 0.4998 0.666498
17 1 0.999753 0.499877 0.666449
76 1 0.832527 0.166579 0.500636
16 1 0.0838964 0.666799 0.50083
22 1 0.0829144 0.916664 0.500418
23 1 0.000115944 0.750359 0.666785
29 1 0.249846 0.999862 0.666472
41 1 0.250307 0.500326 0.666538
47 1 0.250307 0.749982 0.666538
64 1 0.58317 0.666836 0.500065
65 1 0.500022 0.499912 0.666403
70 1 0.58317 0.916334 0.500065
71 1 0.499806 0.749903 0.666535
77 1 0.749781 0.999907 0.666105
95 1 0.749781 0.749874 0.666105
5 1 0.999926 0.999963 0.666524
88 1 0.832527 0.665947 0.500636
6 1 0.0829433 0.166372 0.833728
12 1 0.0836118 0.417117 0.832424
30 1 0.333052 0.166526 0.833512
31 1 0.248058 0.249092 0.999961
36 1 0.333422 0.416892 0.832906
55 1 0.496959 0.24848 0.000811661
60 1 0.583205 0.416405 0.832999
49 1 0.499854 0.999942 0.999192
54 1 0.583205 0.1668 0.832999
79 1 0.748665 0.249772 0.99958
84 1 0.833052 0.416526 0.83267
85 1 0.748665 0.498893 0.99958
7 1 0.99835 0.252011 0.999166
13 1 0.999189 0.499594 0.998558
73 1 0.749633 1.15548e-05 0.999692
78 1 0.83269 0.166471 0.832656
18 1 0.0836118 0.666495 0.832424
24 1 0.0829433 0.916572 0.833728
25 1 0.248058 0.998966 0.999961
37 1 0.249494 0.499478 0.999956
42 1 0.333262 0.666631 0.833394
43 1 0.249494 0.750016 0.999956
48 1 0.333422 0.91653 0.832906
61 1 0.499854 0.499911 0.999192
66 1 0.583026 0.666483 0.832892
72 1 0.583026 0.916543 0.832892
91 1 0.749633 0.749622 0.999692
96 1 0.831403 0.915701 0.83178
19 1 0.99835 0.746338 0.999166
90 1 0.83269 0.666219 0.832656
ITEM: TIMESTEP
20
ITEM: NUMBER OF ATOMS
97
ITEM: BOX BOUNDS xy xz yz pp pp pp
-6.4403077717034343e+00 1.2880619210125165e+01 -6.4403077717034343e+00
0.0000000000000000e+00 1.1154943116692573e+01 0.0000000000000000e+00
0.0000000000000000e+00 1.5046356078130312e+01 0.0000000000000000e+00
ITEM: ATOMS id type xs ys zs
2 1 0.0812293 0.176621 0.169566
8 1 0.0814804 0.420087 0.167094
26 1 0.323064 0.161532 0.168356
32 1 0.335517 0.41871 0.166644
56 1 0.581059 0.415195 0.166599
97 2 0.144226 0.0721132 0.0959641
50 1 0.581059 0.165864 0.166599
80 1 0.83155 0.415775 0.166424
74 1 0.83156 0.166653 0.166609
14 1 0.0814804 0.661394 0.167094
20 1 0.0812293 0.904609 0.169566
38 1 0.334953 0.667477 0.166586
44 1 0.335517 0.916808 0.166644
62 1 0.583983 0.666888 0.16665
67 1 0.500277 0.750138 0.999786
68 1 0.583983 0.917095 0.16665
92 1 0.828972 0.914486 0.167958
1 1 0.997577 0.998788 0.000252855
86 1 0.83156 0.664907 0.166609
33 1 0.25025 0.252387 0.334443
34 1 0.333504 0.417167 0.500025
57 1 0.498048 0.249024 0.332869
51 1 0.500798 0.999534 0.333722
81 1 0.748139 0.249457 0.333415
87 1 0.748139 0.498682 0.333415
9 1 0.997633 0.251703 0.336045
15 1 0.998227 0.499114 0.334985
75 1 0.750546 0.000323356 0.333935
27 1 0.25025 0.997863 0.334443
39 1 0.249437 0.500213 0.33332
40 1 0.333582 0.666791 0.499754
45 1 0.249437 0.749224 0.33332
46 1 0.333504 0.916336 0.500025
63 1 0.500798 0.501263 0.333722
69 1 0.500285 0.750143 0.333435
93 1 0.750546 0.750223 0.333935
94 1 0.834485 0.917242 0.499593
3 1 0.00160464 0.000802323 0.3333
21 1 0.997633 0.745931 0.336045
4 1 0.0827948 0.166517 0.500616
10 1 0.0838573 0.417099 0.500879
11 1 0.999821 0.249756 0.66685
28 1 0.332974 0.166487 0.500343
35 1 0.249965 0.25026 0.666428
58 1 0.582451 0.41582 0.499829
59 1 0.499651 0.249825 0.66662
52 1 0.582451 0.166631 0.499829
53 1 0.500258 0.00015732 0.666372
82 1 0.832653 0.416326 0.500332
83 1 0.749377 0.249835 0.666556
89 1 0.749377 0.499543 0.666556
17 1 0.999507 0.499753 0.666477
76 1 0.83221 0.166679 0.500645
16 1 0.0838573 0.666758 0.500879
22 1 0.0827948 0.916278 0.500616
23 1 0.999821 0.750065 0.66685
29 1 0.249965 0.999705 0.666428
41 1 0.250307 0.5004 0.666514
47 1 0.250307 0.749907 0.666514
64 1 0.583508 0.667065 0.500036
65 1 0.500258 0.5001 0.666372
70 1 0.583508 0.916442 0.500036
71 1 0.499829 0.749914 0.66656
77 1 0.749984 0.999841 0.666157
95 1 0.749984 0.750144 0.666157
5 1 0.000218121 0.000109063 0.666631
88 1 0.83221 0.665532 0.500645
6 1 0.0829594 0.166714 0.833633
12 1 0.0836982 0.417298 0.832374
30 1 0.332527 0.166263 0.83333
31 1 0.248402 0.249832 0.999748
36 1 0.333768 0.417484 0.832802
55 1 0.495626 0.247813 0.00112688
60 1 0.582571 0.415884 0.833158
49 1 0.500248 0.999453 0.999286
54 1 0.582571 0.166687 0.833158
79 1 0.747754 0.249386 0.999596
84 1 0.832776 0.416388 0.83269
85 1 0.747754 0.498369 0.999596
7 1 0.998035 0.252156 0.999078
13 1 0.998426 0.499213 0.998526
73 1 0.750807 0.000220284 0.999859
78 1 0.832346 0.166513 0.832694
18 1 0.0836982 0.6664 0.832374
24 1 0.0829594 0.916245 0.833633
25 1 0.248402 0.99857 0.999748
37 1 0.249207 0.499614 4.17163e-05
42 1 0.333519 0.666759 0.83344
43 1 0.249207 0.749593 4.1717e-05
48 1 0.333768 0.916284 0.832802
61 1 0.500248 0.500795 0.999286
66 1 0.583623 0.666875 0.832952
72 1 0.583623 0.916748 0.832952
91 1 0.750807 0.750587 0.999859
96 1 0.832232 0.916116 0.832001
19 1 0.998035 0.745879 0.999078
90 1 0.832346 0.665832 0.832694
ITEM: TIMESTEP
30
ITEM: NUMBER OF ATOMS
97
ITEM: BOX BOUNDS xy xz yz pp pp pp
-6.4403077717034343e+00 1.2880619210125165e+01 -6.4403077717034343e+00
0.0000000000000000e+00 1.1154943116692573e+01 0.0000000000000000e+00
0.0000000000000000e+00 1.5046356078130312e+01 0.0000000000000000e+00
ITEM: ATOMS id type xs ys zs
2 1 0.0812761 0.177081 0.169466
8 1 0.0812909 0.420214 0.167043
26 1 0.32231 0.161155 0.168607
32 1 0.335559 0.419012 0.16663
56 1 0.580467 0.414914 0.166578
97 2 0.145233 0.0726163 0.0964209
50 1 0.580467 0.165553 0.166578
80 1 0.830976 0.415488 0.166397
74 1 0.831338 0.166868 0.166605
14 1 0.0812909 0.661077 0.167043
20 1 0.0812762 0.904195 0.169466
38 1 0.335309 0.667654 0.166551
44 1 0.335559 0.916547 0.16663
62 1 0.584478 0.667259 0.16664
67 1 0.500591 0.750295 0.999774
68 1 0.584478 0.917219 0.16664
92 1 0.829806 0.914903 0.168011
1 1 0.998743 0.999372 0.000583099
86 1 0.831338 0.66447 0.166605
33 1 0.250299 0.252867 0.334518
34 1 0.333574 0.417435 0.500029
57 1 0.497511 0.248755 0.332833
51 1 0.500829 0.999228 0.333679
81 1 0.747619 0.249207 0.333398
87 1 0.747619 0.498413 0.333398
9 1 0.99746 0.251701 0.335975
15 1 0.997629 0.498815 0.334962
75 1 0.750948 0.000412001 0.333912
27 1 0.250299 0.997432 0.334518
39 1 0.249231 0.500316 0.333266
40 1 0.333776 0.666888 0.499717
45 1 0.249231 0.748915 0.333266
46 1 0.333574 0.91614 0.500029
63 1 0.500829 0.501601 0.333679
69 1 0.500457 0.750228 0.333437
93 1 0.750948 0.750536 0.333912
94 1 0.834915 0.917458 0.499545
3 1 0.0024056 0.0012028 0.333242
21 1 0.99746 0.745759 0.335975
4 1 0.0826961 0.166691 0.500632
10 1 0.0837798 0.41716 0.500826
11 1 0.999699 0.249821 0.666857
28 1 0.332453 0.166227 0.500321
35 1 0.250014 0.250493 0.666409
58 1 0.581995 0.415529 0.499756
59 1 0.499337 0.249668 0.666575
52 1 0.581995 0.166465 0.499756
53 1 0.500407 5.15867e-05 0.666365
82 1 0.832296 0.416148 0.500335
83 1 0.749 0.249633 0.666542
89 1 0.749 0.499367 0.666542
17 1 0.999198 0.499599 0.666446
76 1 0.832046 0.166765 0.500634
16 1 0.0837798 0.66662 0.500826
22 1 0.0826961 0.916005 0.500632
23 1 0.999699 0.749878 0.666857
29 1 0.250014 0.999521 0.666409
41 1 0.25021 0.500482 0.666466
47 1 0.25021 0.749729 0.666466
64 1 0.583856 0.667287 0.500043
65 1 0.500407 0.500355 0.666365
70 1 0.583856 0.916569 0.500043
71 1 0.499943 0.749972 0.666562
77 1 0.750361 0.999856 0.666223
95 1 0.750361 0.750504 0.666223
5 1 0.000634427 0.000317216 0.666668
88 1 0.832046 0.665281 0.500634
6 1 0.0829849 0.16691 0.833675
12 1 0.0837496 0.417448 0.832353
30 1 0.332087 0.166044 0.833271
31 1 0.248738 0.250349 0.999681
36 1 0.333932 0.417841 0.832737
55 1 0.495043 0.247522 0.00123526
60 1 0.582134 0.415571 0.833196
49 1 0.500413 0.999172 0.999282
54 1 0.582134 0.166563 0.833196
79 1 0.747265 0.249155 0.999582
84 1 0.832491 0.416246 0.832651
85 1 0.747265 0.49811 0.999582
7 1 0.997954 0.252194 0.999042
13 1 0.99788 0.49894 0.998472
73 1 0.751441 0.000407011 0.999937
78 1 0.832227 0.166672 0.832709
18 1 0.0837496 0.666302 0.832353
24 1 0.0829849 0.916075 0.833675
25 1 0.248738 0.998389 0.999681
37 1 0.249087 0.499753 2.12288e-05
42 1 0.333851 0.666926 0.833424
43 1 0.249087 0.749334 2.12259e-05
48 1 0.333932 0.916091 0.832737
61 1 0.500413 0.501242 0.999282
66 1 0.584152 0.667224 0.832978
72 1 0.584152 0.916928 0.832978
91 1 0.751441 0.751034 0.999937
96 1 0.83305 0.916525 0.832271
19 1 0.997954 0.74576 0.999042
90 1 0.832227 0.665555 0.832709
ITEM: TIMESTEP
40
ITEM: NUMBER OF ATOMS
97
ITEM: BOX BOUNDS xy xz yz pp pp pp
-6.4403077717034343e+00 1.2880619210125165e+01 -6.4403077717034343e+00
0.0000000000000000e+00 1.1154943116692573e+01 0.0000000000000000e+00
0.0000000000000000e+00 1.5046356078130312e+01 0.0000000000000000e+00
ITEM: ATOMS id type xs ys zs
2 1 0.0813341 0.177226 0.169463
8 1 0.0812349 0.420239 0.167015
26 1 0.322228 0.161114 0.168681
32 1 0.335574 0.419102 0.166629
56 1 0.580339 0.414863 0.166574
97 2 0.145447 0.0727233 0.0965953
50 1 0.580339 0.165477 0.166574
80 1 0.830824 0.415412 0.166381
74 1 0.831304 0.166909 0.166599
14 1 0.0812349 0.660996 0.167015
20 1 0.0813341 0.904109 0.169462
38 1 0.335382 0.667691 0.166534
44 1 0.335574 0.916472 0.166629
62 1 0.584582 0.667332 0.166635
67 1 0.500674 0.750337 0.999766
68 1 0.584582 0.91725 0.166635
92 1 0.829956 0.914978 0.16802
1 1 0.999032 0.999516 0.000696189
86 1 0.831304 0.664395 0.166599
33 1 0.250336 0.252994 0.33455
34 1 0.333574 0.417508 0.500036
57 1 0.497423 0.248711 0.332846
51 1 0.500822 0.999142 0.333677
81 1 0.747491 0.249131 0.333389
87 1 0.747491 0.49836 0.333389
9 1 0.99742 0.251703 0.335954
15 1 0.997462 0.498731 0.334939
75 1 0.751035 0.000430946 0.333905
27 1 0.250336 0.997342 0.33455
39 1 0.249164 0.500335 0.333246
40 1 0.333834 0.666917 0.499699
45 1 0.249164 0.748829 0.333246
46 1 0.333574 0.916066 0.500036
63 1 0.500822 0.50168 0.333677
69 1 0.500494 0.750247 0.333433
93 1 0.751035 0.750604 0.333905
94 1 0.835032 0.917516 0.49953
3 1 0.00258251 0.00129125 0.333221
21 1 0.99742 0.745717 0.335954
4 1 0.0826647 0.166734 0.500629
10 1 0.0837434 0.41718 0.500802
11 1 0.999675 0.249844 0.666855
28 1 0.33231 0.166155 0.500329
35 1 0.250021 0.250558 0.666411
58 1 0.581859 0.415456 0.499747
59 1 0.499237 0.249618 0.666571
52 1 0.581859 0.166403 0.499747
53 1 0.500432 0.999999 0.666365
82 1 0.832169 0.416085 0.500323
83 1 0.748882 0.249564 0.666532
89 1 0.748882 0.499318 0.666532
17 1 0.999076 0.499538 0.666427
76 1 0.832006 0.166791 0.500629
16 1 0.0837434 0.666563 0.500802
22 1 0.0826647 0.915931 0.500629
23 1 0.999675 0.749832 0.666855
29 1 0.250021 0.999462 0.666411
41 1 0.250168 0.500511 0.66645
47 1 0.250168 0.749657 0.66645
64 1 0.583955 0.667351 0.500047
65 1 0.500432 0.500433 0.666365
70 1 0.583955 0.916605 0.500047
71 1 0.499985 0.749993 0.666558
77 1 0.750482 0.999869 0.666241
95 1 0.750482 0.750613 0.666241
5 1 0.00076598 0.000382992 0.66668
88 1 0.832006 0.665215 0.500629
6 1 0.0829963 0.16696 0.833701
12 1 0.083755 0.417491 0.832341
30 1 0.331968 0.165984 0.833268
31 1 0.248846 0.250482 0.999684
36 1 0.333959 0.417929 0.83272
55 1 0.49495 0.247475 0.00125368
60 1 0.582014 0.415496 0.833198
49 1 0.500446 0.999099 0.999274
54 1 0.582014 0.166517 0.833198
79 1 0.747156 0.249093 0.999573
84 1 0.832388 0.416194 0.832631
85 1 0.747156 0.498064 0.999573
7 1 0.997954 0.252197 0.999035
13 1 0.99773 0.498865 0.998445
73 1 0.751587 0.000454694 0.99995
78 1 0.832211 0.166726 0.832708
18 1 0.083755 0.666264 0.832341
24 1 0.0829963 0.916037 0.833701
25 1 0.248846 0.998364 0.999684
37 1 0.249056 0.499788 6.19929e-06
42 1 0.333956 0.666978 0.833413
43 1 0.249056 0.749267 6.19627e-06
48 1 0.333959 0.91603 0.83272
61 1 0.500446 0.501347 0.999274
66 1 0.584301 0.667322 0.832979
72 1 0.584301 0.91698 0.832979
91 1 0.751587 0.751132 0.99995
96 1 0.83328 0.91664 0.832347
19 1 0.997954 0.745757 0.999035
90 1 0.832211 0.665484 0.832708
ITEM: TIMESTEP
50
ITEM: NUMBER OF ATOMS
97
ITEM: BOX BOUNDS xy xz yz pp pp pp
-6.4403077717034343e+00 1.2880619210125165e+01 -6.4403077717034343e+00
0.0000000000000000e+00 1.1154943116692573e+01 0.0000000000000000e+00
0.0000000000000000e+00 1.5046356078130312e+01 0.0000000000000000e+00
ITEM: ATOMS id type xs ys zs
2 1 0.0813623 0.177281 0.169463
8 1 0.0812146 0.420248 0.167003
26 1 0.322214 0.161107 0.168708
32 1 0.335583 0.419137 0.166629
56 1 0.580299 0.414848 0.166573
97 2 0.145509 0.0727547 0.0966686
50 1 0.580299 0.165451 0.166573
80 1 0.830771 0.415385 0.166374
74 1 0.831298 0.166922 0.166595
14 1 0.0812146 0.660966 0.167003
20 1 0.0813623 0.904081 0.169463
38 1 0.335406 0.667703 0.166527
44 1 0.335583 0.916445 0.166629
62 1 0.584619 0.667358 0.166633
67 1 0.500701 0.750351 0.999763
68 1 0.584619 0.917261 0.166633
92 1 0.830008 0.915004 0.168022
1 1 0.999133 0.999567 0.000736798
86 1 0.831298 0.664375 0.166595
33 1 0.250354 0.25304 0.334563
34 1 0.33357 0.417534 0.500039
57 1 0.497401 0.2487 0.332854
51 1 0.500819 0.999111 0.333678
81 1 0.747448 0.249103 0.333385
87 1 0.747448 0.498345 0.333385
9 1 0.997407 0.251703 0.335946
15 1 0.997401 0.4987 0.334928
75 1 0.751065 0.000436422 0.333901
27 1 0.250354 0.997315 0.334563
39 1 0.249138 0.500341 0.333239
40 1 0.333854 0.666927 0.499691
45 1 0.249138 0.748797 0.333239
46 1 0.33357 0.916036 0.500039
63 1 0.500819 0.501709 0.333678
69 1 0.500505 0.750253 0.33343
93 1 0.751065 0.750629 0.333901
94 1 0.835074 0.917537 0.499524
3 1 0.00264514 0.00132258 0.333213
21 1 0.997407 0.745705 0.335946
4 1 0.0826536 0.166749 0.500628
10 1 0.0837261 0.417186 0.500792
11 1 0.999667 0.249851 0.666853
28 1 0.332258 0.166129 0.500334
35 1 0.250022 0.250581 0.666413
58 1 0.581808 0.415431 0.499746
59 1 0.4992 0.2496 0.666571
52 1 0.581808 0.166377 0.499746
53 1 0.500436 0.999975 0.666366
82 1 0.832118 0.416059 0.500316
83 1 0.748837 0.249536 0.666527
89 1 0.748837 0.499301 0.666527
17 1 0.999026 0.499513 0.666419
76 1 0.831991 0.1668 0.500626
16 1 0.0837261 0.66654 0.500792
22 1 0.0826536 0.915904 0.500628
23 1 0.999667 0.749816 0.666853
29 1 0.250022 0.999441 0.666413
41 1 0.250149 0.500521 0.666444
47 1 0.250149 0.749628 0.666444
64 1 0.58399 0.667373 0.500048
65 1 0.500436 0.500461 0.666366
70 1 0.58399 0.916617 0.500048
71 1 0.499998 0.749999 0.666556
77 1 0.750524 0.999873 0.666247
95 1 0.750524 0.750651 0.666247
5 1 0.000813098 0.000406552 0.666684
88 1 0.831991 0.665192 0.500626
6 1 0.0830019 0.166978 0.833711
12 1 0.0837536 0.417506 0.832336
30 1 0.331926 0.165963 0.833269
31 1 0.24889 0.25053 0.999688
36 1 0.333965 0.417958 0.832716
55 1 0.494928 0.247464 0.00125924
60 1 0.58197 0.415472 0.833198
49 1 0.500458 0.999073 0.999271
54 1 0.58197 0.166498 0.833198
79 1 0.747123 0.249071 0.999569
84 1 0.832346 0.416173 0.832623
85 1 0.747123 0.498052 0.999569
7 1 0.997957 0.252197 0.999032
13 1 0.997677 0.498838 0.998435
73 1 0.751638 0.000470457 0.999954
78 1 0.832206 0.166746 0.832706
18 1 0.0837536 0.666248 0.832336
24 1 0.0830019 0.916024 0.833711
25 1 0.24889 0.99836 0.999688
37 1 0.249044 0.4998 1
42 1 0.333992 0.666996 0.833408
43 1 0.249044 0.749244 1
48 1 0.333965 0.916007 0.832716
61 1 0.500458 0.501384 0.999271
66 1 0.584353 0.667356 0.832979
72 1 0.584353 0.916997 0.832979
91 1 0.751638 0.751167 0.999954
96 1 0.833361 0.91668 0.832372
19 1 0.997957 0.74576 0.999032
90 1 0.832206 0.665461 0.832706
ITEM: TIMESTEP
60
ITEM: NUMBER OF ATOMS
97
ITEM: BOX BOUNDS xy xz yz pp pp pp
-6.4403077717034343e+00 1.2880619210125165e+01 -6.4403077717034343e+00
0.0000000000000000e+00 1.1154943116692573e+01 0.0000000000000000e+00
0.0000000000000000e+00 1.5046356078130312e+01 0.0000000000000000e+00
ITEM: ATOMS id type xs ys zs
2 1 0.081389 0.177328 0.169465
8 1 0.0811991 0.420256 0.166993
26 1 0.322213 0.161106 0.16873
32 1 0.335591 0.419167 0.16663
56 1 0.580271 0.414839 0.166573
97 2 0.145547 0.0727736 0.0967339
50 1 0.580271 0.165432 0.166573
80 1 0.83073 0.415365 0.166368
74 1 0.831296 0.166932 0.166591
14 1 0.0811991 0.660943 0.166993
20 1 0.081389 0.904061 0.169465
38 1 0.335424 0.667712 0.166521
44 1 0.335591 0.916424 0.16663
62 1 0.584649 0.66738 0.166631
67 1 0.500722 0.750361 0.99976
68 1 0.584649 0.917269 0.166631
92 1 0.830052 0.915026 0.168023
1 1 0.999212 0.999606 0.000767428
86 1 0.831296 0.664364 0.166591
33 1 0.250373 0.253077 0.334573
34 1 0.333565 0.417554 0.500042
57 1 0.497389 0.248695 0.332862
51 1 0.500818 0.999086 0.333678
81 1 0.747416 0.24908 0.333381
87 1 0.747416 0.498336 0.333381
9 1 0.9974 0.251702 0.33594
15 1 0.997353 0.498676 0.334919
75 1 0.75109 0.000439982 0.333898
27 1 0.250373 0.997296 0.334573
39 1 0.249116 0.500344 0.333233
40 1 0.333866 0.666933 0.499686
45 1 0.249116 0.748772 0.333233
46 1 0.333565 0.916011 0.500042
63 1 0.500818 0.501731 0.333678
69 1 0.500512 0.750256 0.333428
93 1 0.75109 0.75065 0.333898
94 1 0.835107 0.917553 0.499519
3 1 0.00269563 0.00134781 0.333208
21 1 0.9974 0.745698 0.33594
4 1 0.0826453 0.166761 0.500627
10 1 0.0837093 0.41719 0.500784
11 1 0.999658 0.249856 0.666852
28 1 0.332218 0.166109 0.500339
35 1 0.250022 0.250599 0.666416
58 1 0.581766 0.415412 0.499746
59 1 0.499169 0.249585 0.666572
52 1 0.581766 0.166354 0.499746
53 1 0.500437 0.999954 0.666366
82 1 0.832073 0.416037 0.500311
83 1 0.7488 0.249513 0.666524
89 1 0.7488 0.499287 0.666524
17 1 0.998981 0.499491 0.666412
76 1 0.831979 0.166805 0.500623
16 1 0.0837093 0.666519 0.500784
22 1 0.0826453 0.915884 0.500627
23 1 0.999658 0.749803 0.666852
29 1 0.250022 0.999424 0.666416
41 1 0.25013 0.500526 0.66644
47 1 0.25013 0.749604 0.66644
64 1 0.584016 0.667392 0.500049
65 1 0.500437 0.500482 0.666366
70 1 0.584016 0.916625 0.500049
71 1 0.500007 0.750003 0.666554
77 1 0.750555 0.999875 0.66625
95 1 0.750555 0.75068 0.66625
5 1 0.000848819 0.000424412 0.666688
88 1 0.831979 0.665174 0.500623
6 1 0.083007 0.166992 0.833719
12 1 0.0837495 0.417516 0.832332
30 1 0.331894 0.165947 0.833272
31 1 0.248927 0.250568 0.999693
36 1 0.333968 0.41798 0.832713
55 1 0.494918 0.247459 0.00126338
60 1 0.581936 0.415454 0.833198
49 1 0.500467 0.999054 0.999269
54 1 0.581936 0.166482 0.833198
79 1 0.747099 0.249054 0.999566
84 1 0.83231 0.416155 0.832617
85 1 0.747099 0.498046 0.999566
7 1 0.997961 0.252196 0.999029
13 1 0.997636 0.498818 0.998426
73 1 0.751677 0.000481776 0.999955
78 1 0.832202 0.16676 0.832704
18 1 0.0837495 0.666234 0.832332
24 1 0.083007 0.916015 0.833719
25 1 0.248927 0.998359 0.999693
37 1 0.249035 0.499808 0.999994
42 1 0.334019 0.667009 0.833405
43 1 0.249035 0.749227 0.999994
48 1 0.333968 0.915988 0.832713
61 1 0.500467 0.501413 0.999269
66 1 0.584392 0.667382 0.832979
72 1 0.584392 0.91701 0.832979
91 1 0.751677 0.751195 0.999955
96 1 0.833422 0.916711 0.832391
19 1 0.997961 0.745765 0.999029
90 1 0.832202 0.665443 0.832704
ITEM: TIMESTEP
65
ITEM: NUMBER OF ATOMS
97
ITEM: BOX BOUNDS xy xz yz pp pp pp
-6.4403077717034343e+00 1.2880619210125165e+01 -6.4403077717034343e+00
0.0000000000000000e+00 1.1154943116692573e+01 0.0000000000000000e+00
0.0000000000000000e+00 1.5046356078130312e+01 0.0000000000000000e+00
ITEM: ATOMS id type xs ys zs
2 1 0.0813976 0.177342 0.169465
8 1 0.0811951 0.420258 0.16699
26 1 0.322215 0.161107 0.168735
32 1 0.335594 0.419176 0.16663
56 1 0.580264 0.414838 0.166573
97 2 0.145555 0.0727776 0.0967541
50 1 0.580264 0.165427 0.166573
80 1 0.83072 0.41536 0.166366
74 1 0.831296 0.166934 0.16659
14 1 0.0811951 0.660937 0.16699
20 1 0.0813976 0.904055 0.169465
38 1 0.335429 0.667714 0.166519
44 1 0.335594 0.916418 0.16663
62 1 0.584658 0.667387 0.166631
67 1 0.500727 0.750363 0.99976
68 1 0.584658 0.917272 0.166631
92 1 0.830065 0.915032 0.168023
1 1 0.999234 0.999617 0.000775445
86 1 0.831296 0.664362 0.16659
33 1 0.250379 0.253087 0.334576
34 1 0.333563 0.417559 0.500043
57 1 0.497388 0.248694 0.332865
51 1 0.500818 0.99908 0.333678
81 1 0.747409 0.249074 0.33338
87 1 0.747409 0.498334 0.33338
9 1 0.997398 0.251702 0.335938
15 1 0.99734 0.49867 0.334916
75 1 0.751097 0.000440812 0.333896
27 1 0.250379 0.997292 0.334576
39 1 0.249111 0.500345 0.333232
40 1 0.333869 0.666935 0.499684
45 1 0.249111 0.748765 0.333232
46 1 0.333563 0.916003 0.500043
63 1 0.500818 0.501738 0.333678
69 1 0.500514 0.750257 0.333427
93 1 0.751097 0.750656 0.333896
94 1 0.835116 0.917558 0.499518
3 1 0.0027102 0.0013551 0.333206
21 1 0.997398 0.745696 0.335938
4 1 0.0826431 0.166765 0.500627
10 1 0.0837039 0.417191 0.500781
11 1 0.999656 0.249856 0.666851
28 1 0.332208 0.166104 0.500341
35 1 0.250022 0.250603 0.666417
58 1 0.581755 0.415407 0.499746
59 1 0.499161 0.24958 0.666572
52 1 0.581755 0.166348 0.499746
53 1 0.500436 0.999948 0.666367
82 1 0.83206 0.41603 0.500309
83 1 0.748789 0.249506 0.666523
89 1 0.748789 0.499283 0.666523
17 1 0.998968 0.499484 0.66641
76 1 0.831976 0.166807 0.500622
16 1 0.0837039 0.666513 0.500781
22 1 0.0826431 0.915878 0.500627
23 1 0.999656 0.749799 0.666851
29 1 0.250022 0.999419 0.666417
41 1 0.250124 0.500527 0.666438
47 1 0.250124 0.749596 0.666438
64 1 0.584023 0.667397 0.500048
65 1 0.500436 0.500488 0.666367
70 1 0.584023 0.916627 0.500048
71 1 0.500008 0.750004 0.666553
77 1 0.750562 0.999875 0.666251
95 1 0.750562 0.750687 0.666251
5 1 0.000858112 0.000429059 0.666688
88 1 0.831976 0.665169 0.500622
6 1 0.0830085 0.166996 0.833721
12 1 0.0837475 0.417519 0.832331
30 1 0.331886 0.165943 0.833273
31 1 0.248938 0.250579 0.999694
36 1 0.333968 0.417985 0.832713
55 1 0.494917 0.247458 0.00126453
60 1 0.581926 0.415449 0.833198
49 1 0.50047 0.999049 0.999268
54 1 0.581926 0.166477 0.833198
79 1 0.747094 0.249049 0.999565
84 1 0.8323 0.41615 0.832615
85 1 0.747094 0.498045 0.999565
7 1 0.997963 0.252195 0.999028
13 1 0.997625 0.498812 0.998423
73 1 0.751687 0.000484589 0.999955
78 1 0.832201 0.166763 0.832704
18 1 0.0837475 0.666229 0.832331
24 1 0.0830085 0.916012 0.833721
25 1 0.248938 0.998359 0.999694
37 1 0.249032 0.49981 0.999993
42 1 0.334025 0.667013 0.833404
43 1 0.249032 0.749222 0.999993
48 1 0.333968 0.915983 0.832713
61 1 0.50047 0.501421 0.999268
66 1 0.584402 0.667389 0.832979
72 1 0.584402 0.917012 0.832979
91 1 0.751687 0.751203 0.999955
96 1 0.833439 0.916719 0.832395
19 1 0.997963 0.745767 0.999028
90 1 0.832201 0.665438 0.832704
ITEM: TIMESTEP
70
ITEM: NUMBER OF ATOMS
97
ITEM: BOX BOUNDS xy xz yz pp pp pp
-6.4403077717034343e+00 1.2880619210125165e+01 -6.4403077717034343e+00
0.0000000000000000e+00 1.1154943116692573e+01 0.0000000000000000e+00
0.0000000000000000e+00 1.5046356078130312e+01 0.0000000000000000e+00
ITEM: ATOMS id type xs ys zs
2 1 0.0814045 0.177298 0.169464
8 1 0.0811943 0.420246 0.166988
26 1 0.322228 0.161114 0.168751
32 1 0.335586 0.419178 0.166631
56 1 0.58026 0.414839 0.166574
97 2 0.145785 0.0728922 0.0966503
55 1 0.494915 0.247458 0.00126676
50 1 0.58026 0.165421 0.166574
80 1 0.830713 0.415356 0.166365
74 1 0.831297 0.166933 0.166591
14 1 0.0811943 0.660948 0.166988
20 1 0.0814045 0.904107 0.169464
38 1 0.335427 0.667714 0.166518
44 1 0.335586 0.916408 0.166631
62 1 0.584661 0.667388 0.166631
68 1 0.584661 0.917273 0.166631
92 1 0.830069 0.915035 0.168024
1 1 0.999233 0.999617 0.000777739
86 1 0.831297 0.664363 0.166591
3 1 0.00270734 0.00135367 0.333215
33 1 0.25038 0.25309 0.334579
57 1 0.497391 0.248696 0.332871
58 1 0.581744 0.415403 0.499747
81 1 0.747402 0.249068 0.333379
87 1 0.747402 0.498334 0.333379
52 1 0.581744 0.166341 0.499747
9 1 0.997396 0.251702 0.335935
15 1 0.99733 0.498665 0.334911
75 1 0.751096 0.000441755 0.333898
27 1 0.25038 0.99729 0.334579
51 1 0.500814 0.999073 0.333679
39 1 0.249104 0.500345 0.333231
40 1 0.333871 0.666936 0.499684
45 1 0.249104 0.748758 0.333231
63 1 0.500814 0.50174 0.333679
69 1 0.500514 0.750257 0.333427
93 1 0.751096 0.750654 0.333898
94 1 0.835119 0.91756 0.49952
21 1 0.997396 0.745694 0.335935
4 1 0.0826412 0.16677 0.500628
10 1 0.0836977 0.417192 0.50078
5 1 0.000865682 0.000432843 0.666691
34 1 0.333559 0.417563 0.500044
28 1 0.332197 0.166098 0.500344
35 1 0.250021 0.250606 0.66642
59 1 0.499151 0.249576 0.666575
82 1 0.832048 0.416024 0.500307
83 1 0.748779 0.2495 0.666522
89 1 0.748779 0.499279 0.666522
11 1 0.999653 0.249856 0.666852
17 1 0.998955 0.499477 0.666408
76 1 0.831973 0.166808 0.500622
16 1 0.0836977 0.666506 0.50078
22 1 0.0826412 0.915872 0.500628
29 1 0.250021 0.999415 0.66642
46 1 0.333559 0.915997 0.500044
53 1 0.500433 0.999941 0.666368
41 1 0.250117 0.500527 0.666438
47 1 0.250117 0.74959 0.666438
64 1 0.584027 0.667399 0.500049
65 1 0.500433 0.500492 0.666368
70 1 0.584027 0.916628 0.500049
71 1 0.500008 0.750004 0.666553
77 1 0.750567 0.999875 0.666252
95 1 0.750567 0.750692 0.666252
23 1 0.999653 0.749796 0.666852
88 1 0.831973 0.665165 0.500622
6 1 0.0830075 0.166998 0.833726
12 1 0.0837439 0.41752 0.832331
37 1 0.249027 0.49981 0.999992
30 1 0.331877 0.165938 0.833278
31 1 0.248935 0.250571 0.999703