ITEM: TIMESTEP
0
ITEM: NUMBER OF ATOMS
97
ITEM: BOX BOUNDS xy xz yz pp pp pp
-6.4403077717034343e+00 1.2880619210125165e+01 -6.4403077717034343e+00
0.0000000000000000e+00 1.1154943116692573e+01 0.0000000000000000e+00
0.0000000000000000e+00 1.5046356078130312e+01 0.0000000000000000e+00
ITEM: ATOMS id type xs ys zs
2 1 0.0885695 0.177475 0.167184
8 1 0.0826939 0.418981 0.166528
97 2 0.0833333 0.0416667 0.1248
26 1 0.334419 0.167209 0.167184
32 1 0.336514 0.419444 0.166479
56 1 0.583647 0.416654 0.166528
50 1 0.583647 0.166993 0.166528
80 1 0.832913 0.416456 0.166408
74 1 0.832705 0.167004 0.166528
14 1 0.0826939 0.663713 0.166528
20 1 0.0885695 0.911095 0.167184
38 1 0.333356 0.666678 0.166558
44 1 0.336514 0.91707 0.166479
62 1 0.581205 0.663827 0.166558
68 1 0.581205 0.917378 0.166558
92 1 0.821977 0.910989 0.166479
1 1 0.999776 0.999888 0.00383357
86 1 0.832705 0.665702 0.166528
4 1 0.0828323 0.165773 0.499495
33 1 0.250397 0.250702 0.333683
34 1 0.333077 0.416575 0.499928
57 1 0.501033 0.250516 0.333859
63 1 0.500318 0.499948 0.334009
51 1 0.500318 0.000370215 0.334009
81 1 0.749859 0.250124 0.333468
87 1 0.749859 0.499735 0.333468
9 1 0.999819 0.250872 0.334077
15 1 0.999697 0.499848 0.333931
22 1 0.0828323 0.91706 0.499495
27 1 0.250397 0.999696 0.333683
39 1 0.249936 0.500088 0.333289
40 1 0.333396 0.666698 0.499664
45 1 0.249936 0.749848 0.333289
46 1 0.333077 0.916502 0.499928
69 1 0.500017 0.750009 0.333283
75 1 0.749403 0.999856 0.333764
93 1 0.749403 0.749547 0.333764
94 1 0.834345 0.917173 0.499276
3 1 0.99979 0.999895 0.328449
21 1 0.999819 0.748946 0.334077
10 1 0.0835619 0.416702 0.500153
11 1 0.000279874 0.249832 0.666558
28 1 0.333613 0.166807 0.500308
35 1 0.24967 0.249945 0.666339
58 1 0.583407 0.416661 0.500195
59 1 0.499911 0.249956 0.666558
52 1 0.583407 0.166747 0.500195
82 1 0.83323 0.416615 0.500057
83 1 0.750035 0.250059 0.666422
89 1 0.750035 0.499976 0.666422
17 1 0.99997 0.499985 0.666422
76 1 0.833184 0.166747 0.500314
16 1 0.0835619 0.66686 0.500153
23 1 0.000279875 0.750448 0.666558
29 1 0.24967 0.999725 0.666339
41 1 0.250108 0.500286 0.666333
47 1 0.250108 0.749823 0.666333
53 1 0.500029 0.999991 0.666333
64 1 0.583312 0.666913 0.500064
65 1 0.500029 0.500039 0.666333
70 1 0.583312 0.916399 0.500064
71 1 0.499736 0.749868 0.666471
77 1 0.750105 0.999784 0.666333
95 1 0.750105 0.75032 0.666333
5 1 0.999928 0.999964 0.666339
88 1 0.833184 0.666437 0.500314
6 1 0.0827632 0.165842 0.833499
12 1 0.0835939 0.416817 0.832766
30 1 0.333751 0.166876 0.832686
31 1 0.250404 0.250715 0.998599
36 1 0.333499 0.417418 0.832453
55 1 0.500931 0.250465 0.999523
60 1 0.58349 0.416776 0.832724
61 1 0.500355 0.499946 0.999009
49 1 0.500355 0.000408669 0.999009
54 1 0.58349 0.166714 0.832724
79 1 0.749876 0.250158 0.999443
84 1 0.83323 0.416615 0.832731
85 1 0.749876 0.499718 0.999443
7 1 0.999869 0.250821 0.999305
13 1 0.999663 0.499831 0.99898
78 1 0.833069 0.166715 0.832605
18 1 0.0835939 0.666777 0.832766
24 1 0.0827632 0.916921 0.833499
25 1 0.250404 0.999689 0.998599
37 1 0.249897 0.500086 0.999729
42 1 0.333322 0.666661 0.833243
43 1 0.249897 0.749811 0.999729
48 1 0.333499 0.916081 0.832453
66 1 0.583349 0.666876 0.832844
67 1 0.500017 0.750009 0.99985
72 1 0.583349 0.916473 0.832844
73 1 0.749405 0.999894 0.999255
91 1 0.749405 0.749511 0.999255
96 1 0.833502 0.916751 0.833105
19 1 0.999869 0.749048 0.999305
90 1 0.833069 0.666354 0.832605
ITEM: TIMESTEP
10
ITEM: NUMBER OF ATOMS
97
ITEM: BOX BOUNDS xy xz yz pp pp pp
-6.4403077717034343e+00 1.2880619210125165e+01 -6.4403077717034343e+00
0.0000000000000000e+00 1.1154943116692573e+01 0.0000000000000000e+00
0.0000000000000000e+00 1.5046356078130312e+01 0.0000000000000000e+00
ITEM: ATOMS id type xs ys zs
2 1 0.0857051 0.18973 0.166218
8 1 0.0810788 0.422695 0.167214
97 2 0.0877102 0.0438551 0.126965
26 1 0.326159 0.16308 0.166679
32 1 0.338008 0.419726 0.166335
56 1 0.582192 0.41548 0.166574
50 1 0.582192 0.166712 0.166574
80 1 0.832037 0.416019 0.166446
74 1 0.832454 0.166414 0.166522
14 1 0.0810788 0.658384 0.167214
20 1 0.0857051 0.895976 0.166218
38 1 0.335175 0.667587 0.166557
44 1 0.338008 0.918282 0.166335
62 1 0.583957 0.667017 0.166593
68 1 0.583957 0.91694 0.166593
92 1 0.829348 0.914674 0.167622
1 1 0.998669 0.999334 0.999411
86 1 0.832454 0.66604 0.166522
4 1 0.0827956 0.165995 0.500295
33 1 0.251173 0.252814 0.334668
34 1 0.333446 0.417021 0.500071
57 1 0.498937 0.249469 0.332677
63 1 0.501053 0.501087 0.33392
51 1 0.501053 0.999966 0.33392
81 1 0.749031 0.249805 0.333467
87 1 0.749031 0.499226 0.333467
9 1 0.997985 0.2509 0.336182
15 1 0.998702 0.499351 0.335374
22 1 0.0827956 0.916801 0.500295
27 1 0.251173 0.998358 0.334668
39 1 0.249886 0.500055 0.33331
40 1 0.333453 0.666726 0.499638
45 1 0.249886 0.749832 0.33331
46 1 0.333446 0.916425 0.500071
69 1 0.500061 0.750031 0.333295
75 1 0.75021 0.999969 0.333678
93 1 0.75021 0.750241 0.333678
94 1 0.834365 0.917182 0.499382
3 1 0.0021676 0.0010838 0.33272
21 1 0.997985 0.747086 0.336182
10 1 0.0839157 0.417049 0.500765
11 1 3.76596e-05 0.249845 0.66655
28 1 0.333828 0.166914 0.500399
35 1 0.249892 0.250065 0.666157
58 1 0.583052 0.416246 0.499938
59 1 0.500283 0.250142 0.666411
52 1 0.583052 0.166805 0.499938
82 1 0.83294 0.41647 0.500301
83 1 0.749843 0.250045 0.666518
89 1 0.749843 0.499798 0.666518
17 1 0.999746 0.499873 0.666414
76 1 0.832345 0.166605 0.50064
16 1 0.0839157 0.666867 0.500765
23 1 3.76602e-05 0.750193 0.66655
29 1 0.249892 0.999827 0.666157
41 1 0.250288 0.50043 0.666394
47 1 0.250288 0.749858 0.666394
53 1 0.500209 0.000151128 0.666284
64 1 0.583289 0.666975 0.499989
65 1 0.500209 0.500058 0.666284
70 1 0.583289 0.916315 0.499989
71 1 0.49977 0.749885 0.666479
77 1 0.749793 0.999863 0.666013
95 1 0.749793 0.749929 0.666013
5 1 0.999995 0.999998 0.666402
88 1 0.832345 0.66574 0.50064
6 1 0.0834663 0.167083 0.832785
12 1 0.083693 0.417204 0.832224
30 1 0.333937 0.166969 0.831969
31 1 0.253788 0.255711 0.99666
36 1 0.333954 0.417738 0.832222
55 1 0.498265 0.249133 0.000481461
60 1 0.583129 0.416305 0.832943
61 1 0.501017 0.501249 0.998908
49 1 0.501017 0.999768 0.998908
54 1 0.583129 0.166824 0.832943
79 1 0.748813 0.249806 0.999474
84 1 0.832917 0.416458 0.832625
85 1 0.748813 0.499007 0.999474
7 1 0.998714 0.252494 0.998059
13 1 0.998945 0.499473 0.998033
78 1 0.832675 0.166491 0.83249
18 1 0.083693 0.666489 0.832224
24 1 0.0834663 0.916383 0.832785
25 1 0.253788 0.998077 0.99666
37 1 0.249836 0.49988 0.99987
42 1 0.333355 0.666677 0.833332
43 1 0.249836 0.749956 0.99987
48 1 0.333954 0.916217 0.832222
66 1 0.583415 0.666863 0.832802
67 1 0.499926 0.749963 0.999656
72 1 0.583415 0.916552 0.832802
73 1 0.750871 0.999705 0.999771
91 1 0.750871 0.751166 0.999771
96 1 0.832177 0.916089 0.831428
19 1 0.998714 0.746221 0.998059
90 1 0.832675 0.666184 0.83249
ITEM: TIMESTEP
20
ITEM: NUMBER OF ATOMS
97
ITEM: BOX BOUNDS xy xz yz pp pp pp
-6.4403077717034343e+00 1.2880619210125165e+01 -6.4403077717034343e+00
0.0000000000000000e+00 1.1154943116692573e+01 0.0000000000000000e+00
0.0000000000000000e+00 1.5046356078130312e+01 0.0000000000000000e+00
ITEM: ATOMS id type xs ys zs
2 1 0.085607 0.191097 0.165442
8 1 0.0806083 0.423001 0.167285
97 2 0.0903918 0.0451959 0.130752
26 1 0.320661 0.160331 0.166316
32 1 0.338163 0.419999 0.166265
56 1 0.580739 0.414668 0.166525
50 1 0.580739 0.166071 0.166525
80 1 0.831025 0.415513 0.166459
74 1 0.831837 0.166783 0.166514
14 1 0.0806083 0.657607 0.167285
20 1 0.085607 0.89451 0.165442
38 1 0.335997 0.667998 0.166547
44 1 0.338163 0.918164 0.166265
62 1 0.585325 0.668181 0.166575
68 1 0.585325 0.917144 0.166575
92 1 0.832424 0.916212 0.167748
1 1 0.00205527 0.00102764 6.54343e-05
86 1 0.831837 0.665054 0.166514
4 1 0.0826751 0.16624 0.500463
33 1 0.251267 0.253875 0.334818
34 1 0.333701 0.41745 0.500054
57 1 0.497074 0.248537 0.332018
63 1 0.501362 0.501878 0.333751
51 1 0.501362 0.999485 0.333751
81 1 0.748088 0.249459 0.333428
87 1 0.748088 0.498629 0.333428
9 1 0.997715 0.250725 0.33607
15 1 0.997731 0.498865 0.33562
22 1 0.0826751 0.916435 0.500463
27 1 0.251267 0.997392 0.334818
39 1 0.249596 0.500237 0.333228
40 1 0.333611 0.666805 0.49962
45 1 0.249596 0.749359 0.333228
46 1 0.333701 0.916251 0.500054
69 1 0.500299 0.75015 0.333313
75 1 0.751188 0.000114677 0.333625
93 1 0.751188 0.751073 0.333625
94 1 0.835053 0.917526 0.499302
3 1 0.00446778 0.00223389 0.332581
21 1 0.997715 0.74699 0.33607
10 1 0.0838979 0.41706 0.500804
11 1 0.999738 0.249854 0.666581
28 1 0.333183 0.166592 0.500285
35 1 0.250025 0.25036 0.666085
58 1 0.582412 0.415693 0.499639
59 1 0.500066 0.250033 0.666279
52 1 0.582412 0.16672 0.499639
82 1 0.832519 0.416259 0.500423
83 1 0.749363 0.249825 0.666558
89 1 0.749363 0.499538 0.666558
17 1 0.999502 0.499751 0.666422
76 1 0.832004 0.166711 0.500637
16 1 0.0838979 0.666838 0.500804
23 1 0.999738 0.749884 0.666581
29 1 0.250025 0.999665 0.666085
41 1 0.250294 0.500529 0.666331
47 1 0.250294 0.749765 0.666331
53 1 0.500517 0.000234925 0.666228
64 1 0.583697 0.667251 0.499955
65 1 0.500517 0.500282 0.666228
70 1 0.583697 0.916446 0.499955
71 1 0.499801 0.7499 0.666494
77 1 0.750065 0.99978 0.666065
95 1 0.750065 0.750285 0.666065
5 1 0.000295734 0.00014787 0.666486
88 1 0.832004 0.665293 0.500637
6 1 0.0833585 0.167286 0.832652
12 1 0.0838431 0.4174 0.832139
30 1 0.333391 0.166696 0.83171
31 1 0.254215 0.257041 0.995949
36 1 0.334394 0.418466 0.832029
55 1 0.496421 0.248211 0.000987314
60 1 0.582439 0.415701 0.833143
61 1 0.501603 0.502329 0.998993
49 1 0.501603 0.999273 0.998993
54 1 0.582439 0.166737 0.833143
79 1 0.747819 0.249393 0.999508
84 1 0.83264 0.41632 0.832633
85 1 0.747819 0.498426 0.999508
7 1 0.998338 0.25257 0.997769
13 1 0.998124 0.499062 0.997929
78 1 0.832289 0.166541 0.832507
18 1 0.0838431 0.666443 0.832139
24 1 0.0833585 0.916073 0.832652
25 1 0.254215 0.997174 0.995949
37 1 0.249589 0.50014 0.99995
42 1 0.333669 0.666834 0.833353
43 1 0.249589 0.749449 0.99995
48 1 0.334394 0.915928 0.832029
66 1 0.584149 0.66736 0.832862
67 1 0.500394 0.750197 0.999633
72 1 0.584149 0.916789 0.832862
73 1 0.752422 0.999998 0.999956
91 1 0.752422 0.752424 0.999956
96 1 0.833456 0.916728 0.831947
19 1 0.998338 0.745768 0.997769
90 1 0.832289 0.665748 0.832507
ITEM: TIMESTEP
30
ITEM: NUMBER OF ATOMS
97
ITEM: BOX BOUNDS xy xz yz pp pp pp
-6.4403077717034343e+00 1.2880619210125165e+01 -6.4403077717034343e+00
0.0000000000000000e+00 1.1154943116692573e+01 0.0000000000000000e+00
0.0000000000000000e+00 1.5046356078130312e+01 0.0000000000000000e+00
ITEM: ATOMS id type xs ys zs
2 1 0.0858252 0.191816 0.165034
8 1 0.0803324 0.423154 0.1672
97 2 0.091787 0.0458902 0.133875
26 1 0.318266 0.159133 0.166182
32 1 0.338234 0.420182 0.166218
56 1 0.580013 0.414298 0.16649
50 1 0.580013 0.165715 0.16649
80 1 0.830396 0.415198 0.166429
74 1 0.831551 0.166947 0.166489
14 1 0.0803323 0.657178 0.1672
20 1 0.0858253 0.894013 0.165034
38 1 0.336377 0.668189 0.166508
44 1 0.338233 0.918051 0.166218
62 1 0.585842 0.668563 0.166552
68 1 0.585842 0.91728 0.166552
92 1 0.833373 0.916686 0.16775
1 1 0.00412322 0.00206149 0.000894127
86 1 0.831551 0.664604 0.166489
4 1 0.0825425 0.166365 0.500434
33 1 0.251469 0.254575 0.334968
34 1 0.333791 0.417755 0.500075
57 1 0.496209 0.248105 0.331766
63 1 0.50144 0.502273 0.333703
51 1 0.50144 0.999166 0.333703
81 1 0.747527 0.249206 0.333386
87 1 0.747527 0.498321 0.333386
9 1 0.997602 0.250659 0.335919
15 1 0.997098 0.498549 0.335604
22 1 0.0825425 0.916178 0.500434
27 1 0.251468 0.996893 0.334968
39 1 0.249392 0.500343 0.333144
40 1 0.333799 0.6669 0.499569
45 1 0.249392 0.749048 0.333144
46 1 0.333791 0.916035 0.500075
69 1 0.500478 0.750239 0.333313
75 1 0.751658 0.000215798 0.33358
93 1 0.751658 0.751443 0.33358
94 1 0.835561 0.917781 0.499188
3 1 0.00562007 0.00280994 0.332189
21 1 0.997602 0.746943 0.335919
10 1 0.0838152 0.417105 0.50073
11 1 0.999602 0.249918 0.66657
28 1 0.33268 0.16634 0.500273
35 1 0.250049 0.250585 0.666058
58 1 0.581921 0.415343 0.499514
59 1 0.499755 0.249878 0.666225
52 1 0.581921 0.166579 0.499514
82 1 0.832152 0.416076 0.500424
83 1 0.748961 0.249611 0.666539
89 1 0.748961 0.49935 0.666539
17 1 0.999189 0.499595 0.666387
76 1 0.831825 0.166804 0.500612
16 1 0.0838152 0.666711 0.50073
23 1 0.999602 0.749684 0.66657
29 1 0.250049 0.999464 0.666058
41 1 0.250192 0.500625 0.666266
47 1 0.250192 0.749567 0.666266
53 1 0.500697 0.000152258 0.666213
64 1 0.584071 0.66749 0.499968
65 1 0.500697 0.500544 0.666213
70 1 0.584071 0.916581 0.499968
71 1 0.499906 0.749953 0.666495
77 1 0.750476 0.999774 0.666148
95 1 0.750476 0.750703 0.666148
5 1 0.000687398 0.0003437 0.66651
88 1 0.831825 0.665021 0.500612
6 1 0.0832438 0.167338 0.832665
12 1 0.0839189 0.417543 0.832103
30 1 0.332919 0.16646 0.831596
31 1 0.254534 0.257859 0.995612
36 1 0.334595 0.418909 0.831892
55 1 0.495543 0.247772 0.0011949
60 1 0.581945 0.41532 0.833211
61 1 0.501856 0.502873 0.998982
49 1 0.501856 0.998983 0.998982
54 1 0.581945 0.166625 0.833211
79 1 0.747268 0.249146 0.999508
84 1 0.832344 0.416172 0.832592
85 1 0.747268 0.498123 0.999508
7 1 0.998208 0.25252 0.997618
13 1 0.997525 0.498762 0.997837
78 1 0.832116 0.166698 0.832504
18 1 0.0839189 0.666375 0.832103
24 1 0.0832438 0.915906 0.832665
25 1 0.254534 0.996676 0.995612
37 1 0.249477 0.500349 0.99993
42 1 0.334016 0.667008 0.833328
43 1 0.249477 0.749128 0.99993
48 1 0.334595 0.915686 0.831892
66 1 0.584735 0.667758 0.83289
67 1 0.50075 0.750375 0.999619
72 1 0.584735 0.916977 0.83289
73 1 0.75321 0.00023253 3.7374e-05
91 1 0.75321 0.752977 3.73849e-05
96 1 0.834519 0.917259 0.832414
19 1 0.998208 0.745688 0.997618
90 1 0.832116 0.665418 0.832504
ITEM: TIMESTEP
40
ITEM: NUMBER OF ATOMS
97
ITEM: BOX BOUNDS xy xz yz pp pp pp
-6.4403077717034343e+00 1.2880619210125165e+01 -6.4403077717034343e+00
0.0000000000000000e+00 1.1154943116692573e+01 0.0000000000000000e+00
0.0000000000000000e+00 1.5046356078130312e+01 0.0000000000000000e+00
ITEM: ATOMS id type xs ys zs
2 1 0.0859346 0.191972 0.16493
8 1 0.0802598 0.423171 0.16716
97 2 0.0919159 0.0459551 0.134842
26 1 0.317914 0.158957 0.166177
32 1 0.338257 0.420243 0.166208
56 1 0.579863 0.414231 0.166483
50 1 0.579863 0.165632 0.166483
80 1 0.830238 0.415119 0.166413
74 1 0.831508 0.166976 0.166478
14 1 0.0802597 0.657088 0.16716
20 1 0.0859347 0.893966 0.164929
38 1 0.336449 0.668225 0.16649
44 1 0.338257 0.918014 0.166208
62 1 0.585946 0.668635 0.166545
68 1 0.585946 0.917311 0.166545
92 1 0.833554 0.916777 0.167738
1 1 0.00462439 0.00231209 0.00111245
86 1 0.831508 0.664532 0.166478
4 1 0.0824993 0.166391 0.500415
33 1 0.251546 0.25476 0.335019
34 1 0.333793 0.417837 0.500088
57 1 0.496059 0.24803 0.331737
63 1 0.501442 0.502364 0.333701
51 1 0.501442 0.999078 0.333701
81 1 0.747393 0.24913 0.333371
87 1 0.747393 0.498263 0.333371
9 1 0.997583 0.250638 0.335866
15 1 0.996926 0.498463 0.335576
22 1 0.0824993 0.916108 0.500415
27 1 0.251546 0.996786 0.335019
39 1 0.249324 0.500363 0.333116
40 1 0.333854 0.666927 0.499548
45 1 0.249324 0.748961 0.333116
46 1 0.333793 0.915956 0.500088
69 1 0.500516 0.750258 0.333308
75 1 0.751768 0.000237962 0.333564
93 1 0.751768 0.75153 0.333564
94 1 0.835698 0.917849 0.499153
3 1 0.00590183 0.00295083 0.332054
21 1 0.997583 0.746945 0.335866
10 1 0.0837746 0.417118 0.500699
11 1 0.999575 0.24994 0.666563
28 1 0.332538 0.166269 0.500285
35 1 0.250047 0.250647 0.666059
58 1 0.581778 0.415257 0.499495
59 1 0.499652 0.249826 0.66622
52 1 0.581778 0.166521 0.499495
82 1 0.832022 0.416011 0.50041
83 1 0.748836 0.249539 0.666528
89 1 0.748836 0.499297 0.666528
17 1 0.999066 0.499533 0.666367
76 1 0.831781 0.166832 0.500603
16 1 0.0837746 0.666656 0.500699
23 1 0.999575 0.749635 0.666563
29 1 0.250047 0.9994 0.666059
41 1 0.250148 0.500657 0.666245
47 1 0.250148 0.74949 0.666245
53 1 0.500727 0.000104603 0.666212
64 1 0.584175 0.667557 0.499973
65 1 0.500727 0.500623 0.666212
70 1 0.584175 0.916618 0.499973
71 1 0.499943 0.749972 0.66649
77 1 0.750604 0.99978 0.66617
95 1 0.750604 0.750824 0.66617
5 1 0.000809699 0.00040485 0.666517
88 1 0.831781 0.66495 0.500603
6 1 0.0832158 0.167349 0.83268
12 1 0.0839284 0.417583 0.83209
30 1 0.332788 0.166394 0.831584
31 1 0.254642 0.258061 0.995549
36 1 0.334628 0.419015 0.83186
55 1 0.495403 0.247701 0.00122852
60 1 0.58181 0.41523 0.83322
61 1 0.501909 0.503 0.998972
49 1 0.501909 0.998909 0.998972
54 1 0.58181 0.16658 0.83322
79 1 0.74715 0.249081 0.999502
84 1 0.832238 0.416119 0.832572
85 1 0.74715 0.498069 0.999502
7 1 0.998196 0.252493 0.997581
13 1 0.997365 0.498682 0.997805
78 1 0.832085 0.166751 0.832499
18 1 0.0839284 0.666345 0.83209
24 1 0.0832158 0.915867 0.83268
25 1 0.254642 0.996581 0.995549
37 1 0.249447 0.500399 0.999914
42 1 0.334121 0.66706 0.833316
43 1 0.249447 0.749048 0.999914
48 1 0.334628 0.915613 0.83186
66 1 0.584893 0.667864 0.832891
67 1 0.50084 0.75042 0.999613
72 1 0.584893 0.917029 0.832891
73 1 0.753386 0.000290527 5.04392e-05
91 1 0.753386 0.753095 5.04483e-05
96 1 0.834801 0.9174 0.832537
19 1 0.998196 0.745703 0.997581
90 1 0.832085 0.665334 0.832499
ITEM: TIMESTEP
50
ITEM: NUMBER OF ATOMS
97
ITEM: BOX BOUNDS xy xz yz pp pp pp
-6.4403077717034343e+00 1.2880619210125165e+01 -6.4403077717034343e+00
0.0000000000000000e+00 1.1154943116692573e+01 0.0000000000000000e+00
0.0000000000000000e+00 1.5046356078130312e+01 0.0000000000000000e+00
ITEM: ATOMS id type xs ys zs
2 1 0.0859805 0.192015 0.164887
8 1 0.0802356 0.423173 0.167143
97 2 0.0918956 0.0459495 0.13522
26 1 0.317841 0.15892 0.166182
32 1 0.338268 0.420269 0.166205
56 1 0.579818 0.414212 0.166481
50 1 0.579818 0.165605 0.166481
80 1 0.830184 0.415092 0.166406
74 1 0.831499 0.166985 0.166473
14 1 0.0802356 0.657063 0.167143
20 1 0.0859805 0.893963 0.164888
38 1 0.336471 0.668235 0.166482
44 1 0.338268 0.917999 0.166205
62 1 0.585983 0.668662 0.166542
68 1 0.585983 0.917321 0.166542
92 1 0.833626 0.916813 0.167729
1 1 0.00479703 0.00239858 0.00118257
86 1 0.831499 0.664513 0.166473
4 1 0.0824836 0.166401 0.500407
33 1 0.251578 0.254826 0.335037
34 1 0.33379 0.417866 0.500093
57 1 0.496021 0.248011 0.331733
63 1 0.501441 0.502396 0.333701
51 1 0.501441 0.999046 0.333701
81 1 0.747349 0.249102 0.333365
87 1 0.747349 0.498247 0.333365
9 1 0.99758 0.250629 0.335845
15 1 0.996864 0.498432 0.335563
22 1 0.0824836 0.916083 0.500407
27 1 0.251578 0.996753 0.335038
39 1 0.249298 0.500369 0.333106
40 1 0.333872 0.666936 0.49954
45 1 0.249298 0.748929 0.333106
46 1 0.33379 0.915924 0.500093
69 1 0.500526 0.750263 0.333305
75 1 0.751809 0.000244495 0.333556
93 1 0.751809 0.751564 0.333556
94 1 0.835746 0.917873 0.49914
3 1 0.0060054 0.00300275 0.332002
21 1 0.99758 0.746951 0.335845
10 1 0.0837552 0.417122 0.500687
11 1 0.999565 0.249948 0.66656
28 1 0.332487 0.166243 0.500291
35 1 0.250045 0.250668 0.666061
58 1 0.581724 0.415228 0.49949
59 1 0.499613 0.249807 0.666221
52 1 0.581724 0.166496 0.49949
82 1 0.83197 0.415985 0.500403
83 1 0.748789 0.249511 0.666524
89 1 0.748789 0.499278 0.666524
17 1 0.999015 0.499507 0.666359
76 1 0.831766 0.166841 0.500598
16 1 0.0837552 0.666633 0.500687
23 1 0.999565 0.749617 0.66656
29 1 0.250045 0.999377 0.666061
41 1 0.250127 0.500667 0.666238
47 1 0.250127 0.749459 0.666238
53 1 0.500733 8.291e-05 0.666212
64 1 0.584212 0.667581 0.499974
65 1 0.500733 0.50065 0.666212
70 1 0.584212 0.91663 0.499974
71 1 0.499955 0.749977 0.666488
77 1 0.750648 0.999782 0.666176
95 1 0.750648 0.750865 0.666176
5 1 0.000852927 0.000426467 0.66652
88 1 0.831766 0.664925 0.500598
6 1 0.083207 0.167354 0.832686
12 1 0.0839277 0.417596 0.832084
30 1 0.332742 0.166371 0.831583
31 1 0.254685 0.25813 0.995532
36 1 0.334635 0.41905 0.83185
55 1 0.495372 0.247686 0.0012374
60 1 0.581762 0.415201 0.833223
61 1 0.501927 0.503044 0.998969
49 1 0.501927 0.998883 0.998969
54 1 0.581762 0.166561 0.833223
79 1 0.747114 0.249058 0.999499
84 1 0.832196 0.416098 0.832565
85 1 0.747114 0.498056 0.999499
7 1 0.998195 0.25248 0.997567
13 1 0.997309 0.498655 0.997794
78 1 0.832074 0.166769 0.832496
18 1 0.0839277 0.666332 0.832084
24 1 0.083207 0.915853 0.832686
25 1 0.254685 0.996555 0.995531
37 1 0.249436 0.500415 0.999907
42 1 0.334157 0.667079 0.833311
43 1 0.249436 0.749021 0.999907
48 1 0.334635 0.915585 0.83185
66 1 0.584947 0.667901 0.832891
67 1 0.500869 0.750435 0.99961
72 1 0.584947 0.917047 0.832891
73 1 0.753445 0.000309118 5.38291e-05
91 1 0.753445 0.753136 5.38233e-05
96 1 0.834897 0.917448 0.832577
19 1 0.998195 0.745715 0.997567
90 1 0.832074 0.665305 0.832496
ITEM: TIMESTEP
60
ITEM: NUMBER OF ATOMS
97
ITEM: BOX BOUNDS xy xz yz pp pp pp
-6.4403077717034343e+00 1.2880619210125165e+01 -6.4403077717034343e+00
0.0000000000000000e+00 1.1154943116692573e+01 0.0000000000000000e+00
0.0000000000000000e+00 1.5046356078130312e+01 0.0000000000000000e+00
ITEM: ATOMS id type xs ys zs
2 1 0.0860201 0.192047 0.16485
8 1 0.0802187 0.423172 0.167129
97 2 0.0918324 0.0459146 0.13554
26 1 0.317817 0.158908 0.166188
32 1 0.338277 0.420291 0.166204
56 1 0.579787 0.414201 0.166481
50 1 0.579787 0.165586 0.166481
80 1 0.830145 0.415072 0.1664
74 1 0.831496 0.166992 0.166468
14 1 0.0802186 0.657047 0.167129
20 1 0.0860202 0.893975 0.16485
38 1 0.336486 0.668243 0.166476
44 1 0.338277 0.917986 0.166204
62 1 0.586014 0.668685 0.166539
68 1 0.586014 0.917329 0.166539
92 1 0.833693 0.916847 0.16772
1 1 0.0049295 0.0024647 0.00123103
86 1 0.831496 0.664504 0.166468
4 1 0.0824716 0.166408 0.500401
33 1 0.251608 0.254878 0.335052
34 1 0.333785 0.417888 0.500098
57 1 0.496002 0.248001 0.331735
63 1 0.501442 0.502421 0.333701
51 1 0.501442 0.999021 0.333701
81 1 0.747318 0.249079 0.33336
87 1 0.747318 0.498239 0.33336
9 1 0.99758 0.25062 0.335826
15 1 0.996816 0.498408 0.33555
22 1 0.0824716 0.916064 0.500401
27 1 0.251608 0.99673 0.335052
39 1 0.249276 0.500372 0.333098
40 1 0.333883 0.666942 0.499534
45 1 0.249276 0.748904 0.333098
46 1 0.333785 0.915897 0.500098
69 1 0.500533 0.750266 0.333303
75 1 0.751843 0.000248854 0.333547
93 1 0.751843 0.751594 0.333547
94 1 0.835784 0.917892 0.49913
3 1 0.00609085 0.00304538 0.331959
21 1 0.99758 0.74696 0.335826
10 1 0.0837363 0.417124 0.500676
11 1 0.999555 0.249952 0.666556
28 1 0.332447 0.166223 0.500297
35 1 0.250043 0.250684 0.666064
58 1 0.581682 0.415207 0.499489
59 1 0.499581 0.249791 0.666222
52 1 0.581682 0.166475 0.499489
82 1 0.831925 0.415962 0.500397
83 1 0.74875 0.249487 0.66652
89 1 0.74875 0.499263 0.66652
17 1 0.99897 0.499485 0.666352
76 1 0.831753 0.166847 0.500594
16 1 0.0837363 0.666613 0.500676
23 1 0.999555 0.749603 0.666556
29 1 0.250043 0.999359 0.666064
41 1 0.250106 0.500673 0.666232
47 1 0.250106 0.749433 0.666232
53 1 0.500734 6.28266e-05 0.666213
64 1 0.584239 0.6676 0.499974
65 1 0.500734 0.500671 0.666213
70 1 0.584239 0.916639 0.499974
71 1 0.499962 0.749981 0.666485
77 1 0.750679 0.999783 0.66618
95 1 0.750679 0.750896 0.66618
5 1 0.000885185 0.000442594 0.666522
88 1 0.831753 0.664907 0.500594
6 1 0.0832004 0.167358 0.83269
12 1 0.0839238 0.417605 0.83208
30 1 0.332706 0.166353 0.831586
31 1 0.254721 0.258181 0.995521
36 1 0.334638 0.419075 0.831844
55 1 0.49536 0.24768 0.00124277
60 1 0.581724 0.415179 0.833225
61 1 0.50194 0.503077 0.998968
49 1 0.50194 0.998864 0.998968
54 1 0.581724 0.166545 0.833225
79 1 0.747089 0.24904 0.999497
84 1 0.83216 0.41608 0.83256
85 1 0.747089 0.498049 0.999497
7 1 0.998196 0.252469 0.997555
13 1 0.997267 0.498634 0.997785
78 1 0.832066 0.166782 0.832493
18 1 0.0839238 0.666319 0.83208
24 1 0.0832004 0.915843 0.83269
25 1 0.254721 0.99654 0.995521
37 1 0.249426 0.500426 0.999901
42 1 0.334183 0.667091 0.833307
43 1 0.249426 0.749001 0.999901
48 1 0.334638 0.915563 0.831844
66 1 0.584986 0.667928 0.832891
67 1 0.50089 0.750445 0.999608
72 1 0.584986 0.917059 0.832891
73 1 0.75349 0.000322056 5.56885e-05
91 1 0.75349 0.753168 5.56934e-05
96 1 0.834968 0.917484 0.832607
19 1 0.998196 0.745728 0.997555
90 1 0.832066 0.665284 0.832493
ITEM: TIMESTEP
65
ITEM: NUMBER OF ATOMS
97
ITEM: BOX BOUNDS xy xz yz pp pp pp
-6.4403077717034343e+00 1.2880619210125165e+01 -6.4403077717034343e+00
0.0000000000000000e+00 1.1154943116692573e+01 0.0000000000000000e+00
0.0000000000000000e+00 1.5046356078130312e+01 0.0000000000000000e+00
ITEM: ATOMS id type xs ys zs
2 1 0.086032 0.192053 0.164838
8 1 0.0802146 0.423171 0.167124
97 2 0.0918022 0.0459013 0.135635
26 1 0.317818 0.158909 0.166191
32 1 0.33828 0.420298 0.166204
56 1 0.57978 0.414199 0.166481
50 1 0.57978 0.165581 0.166481
80 1 0.830135 0.415067 0.166398
74 1 0.831496 0.166994 0.166467
14 1 0.0802146 0.657043 0.167124
20 1 0.086032 0.893979 0.164838
38 1 0.33649 0.668245 0.166474
44 1 0.33828 0.917983 0.166204
62 1 0.586023 0.668692 0.166539
68 1 0.586023 0.917331 0.166539
92 1 0.833715 0.916858 0.167717
1 1 0.00496549 0.00248275 0.00124258
86 1 0.831496 0.664502 0.166467
4 1 0.0824684 0.16641 0.500399
33 1 0.251617 0.254893 0.335056
34 1 0.333783 0.417894 0.5001
57 1 0.495999 0.247999 0.331737
63 1 0.501442 0.502428 0.333702
51 1 0.501442 0.999014 0.333702
81 1 0.74731 0.249073 0.333359
87 1 0.74731 0.498237 0.333359
9 1 0.997581 0.250617 0.33582
15 1 0.996804 0.498402 0.335546
22 1 0.0824684 0.916059 0.500399
27 1 0.251617 0.996724 0.335056
39 1 0.249271 0.500373 0.333096
40 1 0.333886 0.666943 0.499532
45 1 0.249271 0.748897 0.333096
46 1 0.333783 0.915889 0.5001
69 1 0.500534 0.750267 0.333302
75 1 0.751854 0.000249882 0.333544
93 1 0.751854 0.751604 0.333544
94 1 0.835794 0.917897 0.499127
3 1 0.00611587 0.00305794 0.331947
21 1 0.997581 0.746964 0.33582
10 1 0.0837301 0.417124 0.500673
11 1 0.999552 0.249953 0.666555
28 1 0.332436 0.166218 0.500299
35 1 0.250041 0.250687 0.666065
58 1 0.58167 0.415202 0.499489
59 1 0.499572 0.249786 0.666223
52 1 0.58167 0.166468 0.499489
82 1 0.831912 0.415956 0.500394
83 1 0.748739 0.24948 0.666519
89 1 0.748739 0.499259 0.666519
17 1 0.998957 0.499478 0.66635
76 1 0.83175 0.166848 0.500592
16 1 0.0837301 0.666606 0.500673
23 1 0.999552 0.749599 0.666555
29 1 0.250041 0.999354 0.666065
41 1 0.2501 0.500674 0.666231
47 1 0.2501 0.749425 0.666231
53 1 0.500733 5.64997e-05 0.666213
64 1 0.584246 0.667605 0.499974
65 1 0.500733 0.500676 0.666213
70 1 0.584246 0.916641 0.499974
71 1 0.499963 0.749981 0.666485
77 1 0.750686 0.999783 0.666181
95 1 0.750686 0.750904 0.666181
5 1 0.000893416 0.000446711 0.666522
88 1 0.83175 0.664902 0.500592
6 1 0.0831986 0.167359 0.83269
12 1 0.0839216 0.417607 0.832079
30 1 0.332696 0.166348 0.831587
31 1 0.254732 0.258195 0.995519
36 1 0.334638 0.419081 0.831843
55 1 0.495359 0.24768 0.00124392
60 1 0.581713 0.415174 0.833225
61 1 0.501944 0.503086 0.998967
49 1 0.501944 0.998858 0.998967
54 1 0.581713 0.166539 0.833225
79 1 0.747083 0.249035 0.999496
84 1 0.832149 0.416074 0.832558
85 1 0.747083 0.498048 0.999496
7 1 0.998197 0.252465 0.997552
13 1 0.997256 0.498628 0.997783
78 1 0.832063 0.166785 0.832492
18 1 0.0839216 0.666315 0.832079
24 1 0.0831986 0.91584 0.83269
25 1 0.254732 0.996538 0.995519
37 1 0.249423 0.500428 0.9999
42 1 0.334189 0.667094 0.833306
43 1 0.249423 0.748995 0.9999
48 1 0.334638 0.915557 0.831843
66 1 0.584996 0.667935 0.832891
67 1 0.500895 0.750447 0.999607
72 1 0.584996 0.917061 0.832891
73 1 0.753502 0.000325146 5.6008e-05
91 1 0.753502 0.753177 5.6007e-05
96 1 0.834987 0.917493 0.832614
19 1 0.998197 0.745732 0.997552
90 1 0.832063 0.665279 0.832492
ITEM: TIMESTEP
70
ITEM: NUMBER OF ATOMS
97
ITEM: BOX BOUNDS xy xz yz pp pp pp
-6.4403077717034343e+00 1.2880619210125165e+01 -6.4403077717034343e+00
0.0000000000000000e+00 1.1154943116692573e+01 0.0000000000000000e+00
0.0000000000000000e+00 1.5046356078130312e+01 0.0000000000000000e+00
ITEM: ATOMS id type xs ys zs
2 1 0.0859338 0.192014 0.165349
8 1 0.0801915 0.423117 0.167138
97 2 0.0974791 0.0487393 0.132004
1 1 0.00447041 0.00223519 0.00129895
26 1 0.317342 0.158671 0.166264
32 1 0.338162 0.420281 0.166233
56 1 0.579777 0.414219 0.166493
55 1 0.495146 0.247573 0.00129642
50 1 0.579777 0.165558 0.166493
80 1 0.830132 0.415066 0.166393
74 1 0.831458 0.166929 0.166468
73 1 0.753394 0.000343693 4.02833e-05
14 1 0.0801915 0.657075 0.167138
20 1 0.085934 0.89392 0.165349
38 1 0.336442 0.668221 0.166477
44 1 0.338162 0.91788 0.166233
62 1 0.585932 0.668595 0.166545
68 1 0.585932 0.917338 0.166545
92 1 0.832914 0.916457 0.167858
91 1 0.753394 0.75305 4.02802e-05
86 1 0.831458 0.664529 0.166468
3 1 0.00565179 0.00282589 0.332357
33 1 0.251534 0.254799 0.335071
57 1 0.496001 0.248001 0.331772
58 1 0.581656 0.415197 0.499495
81 1 0.747297 0.249068 0.333353
87 1 0.747297 0.498229 0.333353
52 1 0.581656 0.166459 0.499495
9 1 0.997525 0.250684 0.335906
15 1 0.996803 0.498402 0.335536
75 1 0.751668 0.000253329 0.333654
27 1 0.251534 0.996735 0.335071
51 1 0.501403 0.999007 0.333707
39 1 0.249248 0.500365 0.333105
40 1 0.33388 0.66694 0.499537
45 1 0.249248 0.748883 0.333105
63 1 0.501403 0.502396 0.333707
69 1 0.500525 0.750263 0.333316
93 1 0.751668 0.751415 0.333654
94 1 0.83573 0.917865 0.499177
64 1 0.58422 0.667587 0.499991
70 1 0.58422 0.916633 0.499991
21 1 0.997525 0.746842 0.335906
4 1 0.0824795 0.166456 0.500456
10 1 0.0837248 0.417131 0.500684
5 1 0.000900102 0.000450053 0.666544
34 1 0.333767 0.417882 0.500099
28 1 0.332418 0.166209 0.50031
35 1 0.250038 0.250686 0.66608
59 1 0.499554 0.249777 0.666235
82 1 0.831903 0.415951 0.500391
83 1 0.748727 0.249474 0.66652
89 1 0.748727 0.499253 0.66652
53 1 0.500719 4.98265e-05 0.666221
11 1 0.99955 0.249947 0.666578
17 1 0.998939 0.499469 0.666351
76 1 0.831751 0.166851 0.500602
22 1 0.0824795 0.916024 0.500456
16 1 0.0837248 0.666594 0.500684
29 1 0.250038 0.999352 0.66608
46 1 0.333767 0.915885 0.500099
41 1 0.250093 0.500668 0.666241
47 1 0.250093 0.749425 0.666241
65 1 0.500719 0.500669 0.666221
71 1 0.499961 0.749981 0.666491
77 1 0.750683 0.99979 0.666187
95 1 0.750683 0.750893 0.666187
23 1 0.99955 0.749603 0.666578
88 1 0.831751 0.6649 0.500602
6 1 0.0832074 0.167351 0.832774
12 1 0.0839052 0.41761 0.832084
30 1 0.332673 0.166337 0.831625