ITEM: TIMESTEP
0
ITEM: NUMBER OF ATOMS
97
ITEM: BOX BOUNDS xy xz yz pp pp pp
-6.4403077717034343e+00 1.2880619210125165e+01 -6.4403077717034343e+00
0.0000000000000000e+00 1.1154943116692573e+01 0.0000000000000000e+00
0.0000000000000000e+00 1.5046356078130312e+01 0.0000000000000000e+00
ITEM: ATOMS id type xs ys zs
2 1 0.0903895 0.181003 0.166878
8 1 0.0824182 0.419621 0.166441
97 2 0.0555555 0.0277778 0.138622
26 1 0.334631 0.167316 0.166878
32 1 0.337354 0.419929 0.166408
56 1 0.583683 0.416518 0.166441
50 1 0.583683 0.167165 0.166441
80 1 0.832772 0.416386 0.166361
74 1 0.832627 0.167178 0.166441
14 1 0.0824182 0.662797 0.166441
20 1 0.0903895 0.909387 0.166878
38 1 0.333348 0.666674 0.166461
44 1 0.337354 0.917424 0.166408
62 1 0.580503 0.662873 0.166461
68 1 0.580503 0.91763 0.166461
92 1 0.818632 0.909316 0.166408
1 1 0.999851 0.999925 0.00558962
86 1 0.832627 0.665449 0.166441
4 1 0.0826893 0.165451 0.499241
9 1 1.18929e-05 0.250909 0.334018
33 1 0.25046 0.250796 0.333755
34 1 0.333019 0.416598 0.499965
57 1 0.500869 0.250434 0.333727
63 1 0.500317 0.49986 0.334136
51 1 0.500317 0.000456714 0.334136
81 1 0.749816 0.250173 0.333466
87 1 0.749816 0.499643 0.333466
15 1 0.999588 0.499794 0.334084
21 1 1.18926e-05 0.749103 0.334018
22 1 0.0826893 0.917239 0.499241
27 1 0.25046 0.999664 0.333755
39 1 0.249951 0.500047 0.333176
40 1 0.333375 0.666687 0.499523
45 1 0.249951 0.749905 0.333176
46 1 0.333019 0.91642 0.499965
69 1 0.500023 0.750012 0.333172
75 1 0.749274 0.999771 0.333809
93 1 0.749274 0.749503 0.333809
94 1 0.834628 0.917314 0.499095
3 1 0.99986 0.99993 0.326776
10 1 0.0836225 0.416683 0.500115
11 1 0.000345879 0.249803 0.666461
28 1 0.333658 0.166829 0.500325
35 1 0.249536 0.249878 0.666315
58 1 0.583417 0.416628 0.50017
59 1 0.499936 0.249968 0.666461
52 1 0.583417 0.166789 0.50017
82 1 0.833196 0.416598 0.500078
83 1 0.750025 0.250037 0.66637
89 1 0.750025 0.499989 0.66637
76 1 0.833164 0.16679 0.500329
16 1 0.0836225 0.666939 0.500115
17 1 1.77983e-06 0.500001 0.66637
23 1 0.00034588 0.750543 0.666461
29 1 0.249536 0.999657 0.666315
41 1 0.25016 0.500366 0.66631
47 1 0.25016 0.749794 0.66631
53 1 0.500009 0.999972 0.66631
64 1 0.583326 0.666975 0.500055
65 1 0.500009 0.500037 0.66631
70 1 0.583326 0.916352 0.500055
71 1 0.499649 0.749824 0.666402
77 1 0.750155 0.999697 0.66631
95 1 0.750155 0.750458 0.66631
5 1 0.999952 0.999976 0.666315
88 1 0.833164 0.666375 0.500329
6 1 0.0826433 0.165497 0.833599
7 1 4.58501e-05 0.250875 0.999081
12 1 0.0836439 0.41676 0.832675
30 1 0.33375 0.166875 0.832515
31 1 0.250464 0.250805 0.998611
36 1 0.3333 0.417161 0.832466
55 1 0.500801 0.250401 0.999372
60 1 0.583472 0.416705 0.83262
61 1 0.500341 0.499859 0.998721
49 1 0.500341 0.000482333 0.998721
54 1 0.583472 0.166767 0.83262
79 1 0.749827 0.250195 0.999319
84 1 0.833196 0.416598 0.832624
85 1 0.749827 0.499631 0.999319
13 1 0.999565 0.499783 0.998701
78 1 0.833088 0.166768 0.832461
18 1 0.0836439 0.666884 0.832675
19 1 4.58495e-05 0.749171 0.999081
24 1 0.0826433 0.917147 0.833599
25 1 0.250464 0.99966 0.998611
37 1 0.249926 0.500046 0.99968
42 1 0.333326 0.666663 0.833259
43 1 0.249926 0.74988 0.99968
48 1 0.3333 0.916139 0.832466
66 1 0.583351 0.66695 0.832727
67 1 0.500023 0.750012 0.999761
72 1 0.583351 0.916401 0.832727
73 1 0.749276 0.999797 0.999048
91 1 0.749276 0.749479 0.999048
96 1 0.834066 0.917033 0.833336
90 1 0.833088 0.66632 0.832461
ITEM: TIMESTEP
10
ITEM: NUMBER OF ATOMS
97
ITEM: BOX BOUNDS xy xz yz pp pp pp
-6.4403077717034343e+00 1.2880619210125165e+01 -6.4403077717034343e+00
0.0000000000000000e+00 1.1154943116692573e+01 0.0000000000000000e+00
0.0000000000000000e+00 1.5046356078130312e+01 0.0000000000000000e+00
ITEM: ATOMS id type xs ys zs
2 1 0.0855386 0.190713 0.16499
8 1 0.0813134 0.422988 0.167077
97 2 0.0583478 0.0291739 0.141811
26 1 0.329997 0.164998 0.16646
32 1 0.338602 0.420126 0.166278
56 1 0.582486 0.41564 0.166527
50 1 0.582486 0.166846 0.166527
80 1 0.832036 0.416018 0.166463
74 1 0.832481 0.16715 0.166485
14 1 0.0813134 0.658325 0.167077
20 1 0.0855386 0.894826 0.16499
38 1 0.335416 0.667708 0.166528
44 1 0.338602 0.918475 0.166278
62 1 0.584372 0.667491 0.16654
68 1 0.584372 0.916881 0.16654
92 1 0.833153 0.916576 0.166706
1 1 0.00163623 0.000818118 0.999929
86 1 0.832481 0.665331 0.166485
4 1 0.0827451 0.165766 0.499952
9 1 0.998357 0.250668 0.335674
33 1 0.251448 0.253038 0.334372
34 1 0.333475 0.417058 0.500051
57 1 0.499373 0.249686 0.332862
63 1 0.501218 0.501207 0.333865
51 1 0.501218 1.1384e-05 0.333865
81 1 0.74911 0.249815 0.333544
87 1 0.74911 0.499295 0.333544
15 1 0.998688 0.499344 0.335343
21 1 0.998357 0.747689 0.335674
22 1 0.0827451 0.916979 0.499952
27 1 0.251448 0.99841 0.334372
39 1 0.249982 0.50009 0.333258
40 1 0.33349 0.666745 0.499604
45 1 0.249982 0.749891 0.333258
46 1 0.333475 0.916417 0.500051
69 1 0.500106 0.750053 0.333234
75 1 0.751243 0.999919 0.333076
93 1 0.751243 0.751324 0.333076
94 1 0.834783 0.917391 0.499062
3 1 0.0042598 0.0021299 0.330632
10 1 0.0838906 0.41699 0.500663
11 1 3.41382e-05 0.249861 0.666416
28 1 0.333812 0.166906 0.500337
35 1 0.249882 0.250071 0.666103
58 1 0.583086 0.416295 0.499964
59 1 0.500273 0.250137 0.666382
52 1 0.583086 0.166792 0.499964
82 1 0.832933 0.416466 0.500303
83 1 0.749861 0.250045 0.666501
89 1 0.749861 0.499817 0.666501
76 1 0.832347 0.166576 0.500555
16 1 0.0838906 0.6669 0.500663
17 1 0.999776 0.499888 0.666391
23 1 3.41389e-05 0.750173 0.666416
29 1 0.249882 0.999811 0.666103
41 1 0.250282 0.500454 0.66634
47 1 0.250282 0.749828 0.66634
53 1 0.500248 0.000121758 0.666247
64 1 0.583498 0.667116 0.499849
65 1 0.500248 0.500126 0.666247
70 1 0.583498 0.916382 0.499849
71 1 0.499776 0.749888 0.666431
77 1 0.749839 0.999805 0.66598
95 1 0.749839 0.750033 0.66598
5 1 0.99999 0.999995 0.666292
88 1 0.832347 0.665771 0.500555
6 1 0.083466 0.167095 0.832505
7 1 0.998979 0.25242 0.997644
12 1 0.0837565 0.417196 0.8322
30 1 0.333922 0.166961 0.831887
31 1 0.254463 0.256172 0.996436
36 1 0.334028 0.417866 0.832125
55 1 0.49951 0.249755 4.03934e-05
60 1 0.583137 0.416347 0.832869
61 1 0.501375 0.501556 0.998916
49 1 0.501375 0.999819 0.998916
54 1 0.583137 0.166791 0.832869
79 1 0.74897 0.249853 0.999357
84 1 0.832916 0.416458 0.832609
85 1 0.74897 0.499117 0.999357
13 1 0.998948 0.499474 0.99796
78 1 0.832672 0.166482 0.832415
18 1 0.0837565 0.666561 0.8322
19 1 0.998979 0.74656 0.997644
24 1 0.083466 0.916371 0.832505
25 1 0.254463 0.998291 0.996436
37 1 0.249968 0.500045 0.9998
42 1 0.333403 0.666701 0.83329
43 1 0.249968 0.749923 0.9998
48 1 0.334028 0.916161 0.832125
66 1 0.583558 0.667003 0.832804
67 1 0.499939 0.749969 0.999632
72 1 0.583558 0.916555 0.832804
73 1 0.751317 0.999582 0.999712
91 1 0.751317 0.751735 0.999712
96 1 0.832833 0.916417 0.831733
90 1 0.832672 0.66619 0.832415
ITEM: TIMESTEP
20
ITEM: NUMBER OF ATOMS
97
ITEM: BOX BOUNDS xy xz yz pp pp pp
-6.4403077717034343e+00 1.2880619210125165e+01 -6.4403077717034343e+00
0.0000000000000000e+00 1.1154943116692573e+01 0.0000000000000000e+00
0.0000000000000000e+00 1.5046356078130312e+01 0.0000000000000000e+00
ITEM: ATOMS id type xs ys zs
2 1 0.0851543 0.191644 0.164504
8 1 0.0809171 0.423339 0.167092
97 2 0.05922 0.0296099 0.145985
26 1 0.32503 0.162515 0.166088
32 1 0.338772 0.420461 0.166196
56 1 0.581024 0.414776 0.166462
50 1 0.581024 0.166248 0.166462
80 1 0.831055 0.415527 0.166473
74 1 0.83193 0.167552 0.166451
14 1 0.0809171 0.657578 0.167092
20 1 0.0851543 0.89351 0.164504
38 1 0.336281 0.66814 0.166509
44 1 0.338772 0.91831 0.166196
62 1 0.585731 0.668613 0.166511
68 1 0.585731 0.917118 0.166511
92 1 0.83603 0.918015 0.166721
1 1 0.00523643 0.00261822 0.000723669
86 1 0.83193 0.664378 0.166451
4 1 0.0826613 0.166002 0.500049
9 1 0.998153 0.250596 0.33557
33 1 0.251628 0.254165 0.334524
34 1 0.333763 0.41752 0.500029
57 1 0.497623 0.248811 0.332217
63 1 0.501586 0.502048 0.333692
51 1 0.501586 0.999538 0.333692
81 1 0.748196 0.249474 0.333499
87 1 0.748196 0.498723 0.333499
15 1 0.997744 0.498872 0.335563
21 1 0.998153 0.747557 0.33557
22 1 0.0826613 0.91666 0.500049
27 1 0.251628 0.997463 0.334524
39 1 0.249737 0.50031 0.333169
40 1 0.333683 0.666841 0.499575
45 1 0.249737 0.749427 0.333169
46 1 0.333763 0.916244 0.500029
69 1 0.500399 0.7502 0.33324
75 1 0.752415 0.000109711 0.33297
93 1 0.752415 0.752305 0.33297
94 1 0.835594 0.917797 0.498912
3 1 0.00685769 0.00342885 0.330131
10 1 0.0838935 0.417013 0.500684
11 1 0.999751 0.249875 0.666416
28 1 0.333176 0.166588 0.500205
35 1 0.250039 0.250378 0.666023
58 1 0.582465 0.415759 0.499664
59 1 0.500054 0.250027 0.666249
52 1 0.582465 0.166706 0.499664
82 1 0.83252 0.41626 0.500414
83 1 0.749396 0.249827 0.666527
89 1 0.749396 0.499569 0.666527
76 1 0.832036 0.166685 0.500525
16 1 0.0838935 0.66688 0.500684
17 1 0.999544 0.499772 0.66639
23 1 0.999751 0.749876 0.666416
29 1 0.250039 0.999661 0.666023
41 1 0.250297 0.500558 0.666275
47 1 0.250297 0.74974 0.666275
53 1 0.500572 0.000193353 0.666186
64 1 0.583975 0.667442 0.499784
65 1 0.500572 0.500379 0.666186
70 1 0.583975 0.916533 0.499784
71 1 0.499824 0.749912 0.666431
77 1 0.75014 0.999715 0.666019
95 1 0.75014 0.750425 0.666019
5 1 0.000313872 0.000156939 0.666331
88 1 0.832036 0.665351 0.500525
6 1 0.0833703 0.167281 0.832318
7 1 0.998635 0.252468 0.997342
12 1 0.0839234 0.417398 0.832102
30 1 0.333373 0.166687 0.831667
31 1 0.254641 0.2572 0.995946
36 1 0.334472 0.418574 0.831953
55 1 0.497896 0.248948 0.000452204
60 1 0.582472 0.415776 0.833042
61 1 0.501989 0.502641 0.998989
49 1 0.501989 0.999348 0.998989
54 1 0.582472 0.166697 0.833042
79 1 0.74803 0.249454 0.999373
84 1 0.832646 0.416323 0.832605
85 1 0.74803 0.498575 0.999373
13 1 0.998138 0.499069 0.997842
78 1 0.832304 0.166543 0.832402
18 1 0.0839234 0.666526 0.832102
19 1 0.998635 0.746166 0.997342
24 1 0.0833703 0.916089 0.832318
25 1 0.254641 0.99744 0.995946
37 1 0.249761 0.500334 0.999862
42 1 0.333748 0.666874 0.833299
43 1 0.249761 0.749427 0.999862
48 1 0.334472 0.915898 0.831953
66 1 0.584333 0.667533 0.832862
67 1 0.50045 0.750225 0.999605
72 1 0.584333 0.9168 0.832862
73 1 0.752963 0.999912 0.999912
91 1 0.752963 0.75305 0.999912
96 1 0.834175 0.917087 0.832229
90 1 0.832304 0.665761 0.832402
ITEM: TIMESTEP
30
ITEM: NUMBER OF ATOMS
97
ITEM: BOX BOUNDS xy xz yz pp pp pp
-6.4403077717034343e+00 1.2880619210125165e+01 -6.4403077717034343e+00
0.0000000000000000e+00 1.1154943116692573e+01 0.0000000000000000e+00
0.0000000000000000e+00 1.5046356078130312e+01 0.0000000000000000e+00
ITEM: ATOMS id type xs ys zs
2 1 0.0850728 0.192272 0.164461
8 1 0.0807022 0.423533 0.166967
97 2 0.0588861 0.0293731 0.149233
26 1 0.322865 0.16143 0.165938
32 1 0.338847 0.420678 0.166143
56 1 0.580266 0.414354 0.166412
50 1 0.580266 0.165912 0.166412
80 1 0.830431 0.415216 0.166439
74 1 0.831665 0.167786 0.166411
14 1 0.0807011 0.657164 0.166967
20 1 0.0850619 0.892873 0.164454
38 1 0.33671 0.668355 0.166461
44 1 0.338846 0.91817 0.166143
62 1 0.586265 0.66899 0.166478
68 1 0.586265 0.917275 0.166478
92 1 0.836938 0.918467 0.166676
1 1 0.00738922 0.00369218 0.00161461
86 1 0.831668 0.663883 0.16641
4 1 0.0825692 0.166132 0.499971
9 1 0.998079 0.250634 0.335438
33 1 0.251878 0.25489 0.334647
34 1 0.33388 0.417852 0.500047
57 1 0.496798 0.248399 0.331946
63 1 0.501714 0.502491 0.333636
51 1 0.501714 0.999224 0.333636
81 1 0.747637 0.249221 0.333456
87 1 0.747637 0.498415 0.333456
15 1 0.997125 0.498562 0.335533
21 1 0.998079 0.747446 0.335436
22 1 0.0825692 0.916437 0.499971
27 1 0.251877 0.996988 0.334645
39 1 0.249566 0.500444 0.333074
40 1 0.333901 0.66695 0.499516
45 1 0.249566 0.749122 0.333074
46 1 0.33388 0.916028 0.500047
69 1 0.50062 0.75031 0.333228
75 1 0.753035 0.000236852 0.332879
93 1 0.753035 0.752798 0.332879
94 1 0.836205 0.918102 0.498744
3 1 0.00825496 0.00412516 0.329479
10 1 0.0838335 0.417076 0.500603
11 1 0.99963 0.249942 0.666381
28 1 0.33267 0.166335 0.500175
35 1 0.250082 0.250614 0.665988
58 1 0.581981 0.415416 0.499535
59 1 0.499743 0.249871 0.666188
52 1 0.581981 0.166565 0.499535
82 1 0.832162 0.416081 0.500408
83 1 0.749005 0.249614 0.666494
89 1 0.749005 0.49939 0.666494
76 1 0.831876 0.166775 0.500484
16 1 0.0838336 0.666758 0.500603
17 1 0.999242 0.499621 0.666348
23 1 0.99963 0.749688 0.666381
29 1 0.250082 0.999468 0.665988
41 1 0.250205 0.500657 0.66621
47 1 0.250205 0.749548 0.66621
53 1 0.500766 0.00010087 0.666167
64 1 0.584408 0.667725 0.499771
65 1 0.500766 0.500665 0.666167
70 1 0.584408 0.916683 0.499771
71 1 0.499943 0.749971 0.66642
77 1 0.750574 0.999702 0.666089
95 1 0.750574 0.750872 0.66609
5 1 0.000725198 0.000362568 0.666315
88 1 0.831876 0.665101 0.500484
6 1 0.0832772 0.167325 0.832309
7 1 0.998523 0.252409 0.997196
12 1 0.084012 0.417542 0.832059
30 1 0.332891 0.166446 0.831589
31 1 0.254716 0.257745 0.995796
36 1 0.334667 0.418982 0.83185
55 1 0.497096 0.248548 0.000613134
60 1 0.581996 0.415414 0.833092
61 1 0.502256 0.503179 0.998972
49 1 0.502256 0.999076 0.998972
54 1 0.581996 0.166582 0.833092
79 1 0.747501 0.249213 0.999355
84 1 0.832356 0.416178 0.832551
85 1 0.747501 0.498288 0.999355
13 1 0.997538 0.498768 0.997732
78 1 0.832145 0.166704 0.832383
18 1 0.0840121 0.66647 0.832059
19 1 0.998524 0.746117 0.997198
24 1 0.0832772 0.915952 0.832309
25 1 0.254713 0.99697 0.995798
37 1 0.249677 0.500561 0.999829
42 1 0.33412 0.66706 0.833265
43 1 0.249677 0.749117 0.999829
48 1 0.334667 0.915685 0.831849
66 1 0.584952 0.667956 0.832894
67 1 0.500837 0.750419 0.999587
72 1 0.584952 0.916996 0.832894
73 1 0.753838 0.000170462 1.76406e-05
91 1 0.753839 0.753669 1.81284e-05
96 1 0.835309 0.917654 0.832706
90 1 0.832145 0.665441 0.832383
ITEM: TIMESTEP
40
ITEM: NUMBER OF ATOMS
97
ITEM: BOX BOUNDS xy xz yz pp pp pp
-6.4403077717034343e+00 1.2880619210125165e+01 -6.4403077717034343e+00
0.0000000000000000e+00 1.1154943116692573e+01 0.0000000000000000e+00
0.0000000000000000e+00 1.5046356078130312e+01 0.0000000000000000e+00
ITEM: ATOMS id type xs ys zs
2 1 0.0851063 0.192428 0.16449
8 1 0.0806487 0.423581 0.166915
97 2 0.0583807 0.0291431 0.150139
26 1 0.322552 0.161274 0.165925
32 1 0.338885 0.420761 0.166131
56 1 0.580111 0.414275 0.166399
50 1 0.580111 0.165835 0.166399
80 1 0.830272 0.415136 0.16642
74 1 0.831627 0.167852 0.166395
14 1 0.0806479 0.657064 0.166915
20 1 0.0850988 0.892727 0.164486
38 1 0.336804 0.668402 0.16644
44 1 0.338884 0.918124 0.166131
62 1 0.586375 0.669058 0.166467
68 1 0.586375 0.917317 0.166467
92 1 0.837091 0.918544 0.166653
1 1 0.00792415 0.0039604 0.0018915
86 1 0.83163 0.663778 0.166395
4 1 0.0825436 0.166165 0.499939
9 1 0.998071 0.250652 0.335396
33 1 0.251963 0.25507 0.334681
34 1 0.333892 0.417943 0.500056
57 1 0.496658 0.248329 0.331911
63 1 0.501733 0.502595 0.333631
51 1 0.501733 0.999138 0.333631
81 1 0.747501 0.249147 0.333442
87 1 0.747501 0.498354 0.333442
15 1 0.996956 0.498478 0.335504
21 1 0.998071 0.74742 0.335395
22 1 0.0825436 0.916379 0.499939
27 1 0.251962 0.996893 0.33468
39 1 0.24951 0.500472 0.333042
40 1 0.333967 0.666984 0.499491
45 1 0.24951 0.749038 0.333042
46 1 0.333892 0.915949 0.500056
69 1 0.500673 0.750337 0.33322
75 1 0.753184 0.000266486 0.332853
93 1 0.753184 0.752917 0.332853
94 1 0.836376 0.918188 0.498694
3 1 0.00859801 0.0042974 0.329269
10 1 0.083803 0.417097 0.500571
11 1 0.999609 0.249966 0.666366
28 1 0.332528 0.166264 0.500179
35 1 0.250088 0.250681 0.665986
58 1 0.58184 0.415332 0.499514
59 1 0.499642 0.249821 0.66618
52 1 0.58184 0.166508 0.499514
82 1 0.832036 0.416018 0.500393
83 1 0.748885 0.249542 0.666478
89 1 0.748885 0.499342 0.666478
76 1 0.83184 0.166802 0.50047
16 1 0.083803 0.666706 0.500571
17 1 0.999123 0.499562 0.666326
23 1 0.999609 0.749644 0.666366
29 1 0.250088 0.999407 0.665986
41 1 0.250165 0.500691 0.666189
47 1 0.250165 0.749474 0.666189
53 1 0.500803 5.01832e-05 0.666164
64 1 0.584534 0.667807 0.499768
65 1 0.500803 0.500753 0.666164
70 1 0.584534 0.916727 0.499768
71 1 0.499986 0.749993 0.666412
77 1 0.750711 0.999707 0.666108
95 1 0.750711 0.751004 0.666108
5 1 0.000857329 0.000428644 0.666311
88 1 0.83184 0.665037 0.50047
6 1 0.0832614 0.167337 0.832321
7 1 0.998524 0.252389 0.997167
12 1 0.0840275 0.417582 0.832043
30 1 0.332759 0.166379 0.831585
31 1 0.254739 0.257854 0.995798
36 1 0.334699 0.419077 0.831828
55 1 0.496964 0.248482 0.000634132
60 1 0.581868 0.41533 0.833094
61 1 0.502313 0.503303 0.998959
49 1 0.502313 0.999009 0.998959
54 1 0.581868 0.166538 0.833094
79 1 0.747388 0.249151 0.999341
84 1 0.832252 0.416126 0.832526
85 1 0.747388 0.498237 0.999341
13 1 0.997376 0.498688 0.997691
78 1 0.832122 0.16676 0.832373
18 1 0.0840276 0.666445 0.832043
19 1 0.998525 0.746137 0.997169
24 1 0.0832614 0.915924 0.832321
25 1 0.254737 0.996884 0.9958
37 1 0.249658 0.500619 0.999809
42 1 0.334235 0.667118 0.833249
43 1 0.249658 0.749039 0.999809
48 1 0.334699 0.915622 0.831828
66 1 0.585124 0.668072 0.832896
67 1 0.500941 0.75047 0.999578
72 1 0.585124 0.917052 0.832896
73 1 0.754039 0.000235562 3.4919e-05
91 1 0.754039 0.753804 3.52495e-05
96 1 0.835619 0.91781 0.832835
90 1 0.832122 0.665362 0.832373
ITEM: TIMESTEP
50
ITEM: NUMBER OF ATOMS
97
ITEM: BOX BOUNDS xy xz yz pp pp pp
-6.4403077717034343e+00 1.2880619210125165e+01 -6.4403077717034343e+00
0.0000000000000000e+00 1.1154943116692573e+01 0.0000000000000000e+00
0.0000000000000000e+00 1.5046356078130312e+01 0.0000000000000000e+00
ITEM: ATOMS id type xs ys zs
2 1 0.0851254 0.192453 0.164503
8 1 0.0806313 0.423599 0.166894
97 2 0.0581009 0.0290745 0.150474
26 1 0.322492 0.161247 0.165925
32 1 0.338903 0.420798 0.166128
56 1 0.580065 0.414254 0.166395
50 1 0.580064 0.165811 0.166395
80 1 0.830217 0.415108 0.166412
74 1 0.831623 0.167877 0.166389
14 1 0.0806317 0.657034 0.166894
20 1 0.0851293 0.892647 0.164505
38 1 0.336835 0.668417 0.166432
44 1 0.338903 0.918105 0.166128
62 1 0.586413 0.669081 0.166463
68 1 0.586413 0.917332 0.166463
92 1 0.837138 0.91857 0.166642
1 1 0.00811046 0.00405609 0.00199273
86 1 0.831622 0.663744 0.166389
4 1 0.0825351 0.166176 0.499926
9 1 0.998072 0.250659 0.335379
33 1 0.251996 0.255131 0.334691
34 1 0.333893 0.417975 0.50006
57 1 0.496624 0.248312 0.331906
63 1 0.501739 0.502631 0.33363
51 1 0.501739 0.999108 0.33363
81 1 0.747456 0.24912 0.333436
87 1 0.747456 0.498337 0.333436
15 1 0.996895 0.498447 0.335491
21 1 0.998072 0.747413 0.335379
22 1 0.0825351 0.916359 0.499926
27 1 0.251997 0.996866 0.334691
39 1 0.249488 0.500481 0.333031
40 1 0.33399 0.666995 0.499481
45 1 0.249488 0.749007 0.333031
46 1 0.333893 0.915918 0.50006
69 1 0.50069 0.750345 0.333216
75 1 0.753237 0.000275791 0.332842
93 1 0.753237 0.752961 0.332842
94 1 0.836437 0.918219 0.498675
3 1 0.00871997 0.00436082 0.329187
10 1 0.0837879 0.417104 0.500558
11 1 0.999602 0.249973 0.66636
28 1 0.332476 0.166238 0.500182
35 1 0.25009 0.250704 0.665986
58 1 0.581788 0.415304 0.499509
59 1 0.499604 0.249802 0.666178
52 1 0.581788 0.166484 0.499509
82 1 0.831986 0.415993 0.500386
83 1 0.748839 0.249514 0.666472
89 1 0.748839 0.499325 0.666472
76 1 0.831828 0.166812 0.500464
16 1 0.0837879 0.666684 0.500558
17 1 0.999074 0.499537 0.666317
23 1 0.999602 0.749628 0.66636
29 1 0.25009 0.999385 0.665986
41 1 0.250146 0.500702 0.666182
47 1 0.250146 0.749444 0.666182
53 1 0.500811 2.73412e-05 0.666163
64 1 0.584578 0.667837 0.499766
65 1 0.500811 0.500784 0.666163
70 1 0.584578 0.916741 0.499766
71 1 0.500001 0.75 0.666408
77 1 0.750759 0.999708 0.666113
95 1 0.750759 0.751051 0.666113
5 1 0.000904962 0.000452495 0.66631
88 1 0.831828 0.665016 0.500464
6 1 0.0832579 0.167342 0.832327
7 1 0.998531 0.25238 0.997158
12 1 0.0840299 0.417596 0.832037
30 1 0.332712 0.166356 0.831587
31 1 0.254748 0.257885 0.995808
36 1 0.334706 0.419108 0.831822
55 1 0.496934 0.248467 0.0006379
60 1 0.581823 0.415304 0.833094
61 1 0.502332 0.503345 0.998954
49 1 0.502332 0.998987 0.998954
54 1 0.581823 0.166519 0.833094
79 1 0.747354 0.249129 0.999335
84 1 0.832211 0.416106 0.832516
85 1 0.747354 0.498225 0.999335
13 1 0.997319 0.49866 0.997676
78 1 0.832116 0.16678 0.832368
18 1 0.0840299 0.666434 0.832037
19 1 0.99853 0.74615 0.997158
24 1 0.0832579 0.915916 0.832327
25 1 0.254749 0.996863 0.995807
37 1 0.249651 0.500638 0.999801
42 1 0.334276 0.667138 0.833243
43 1 0.249651 0.749013 0.999801
48 1 0.334706 0.915599 0.831822
66 1 0.585183 0.668112 0.832896
67 1 0.500976 0.750488 0.999575
72 1 0.585183 0.917071 0.832896
73 1 0.754106 0.000257119 3.88505e-05
91 1 0.754106 0.753849 3.86817e-05
96 1 0.835729 0.917864 0.832879
90 1 0.832116 0.665336 0.832368
ITEM: TIMESTEP
60
ITEM: NUMBER OF ATOMS
97
ITEM: BOX BOUNDS xy xz yz pp pp pp
-6.4403077717034343e+00 1.2880619210125165e+01 -6.4403077717034343e+00
0.0000000000000000e+00 1.1154943116692573e+01 0.0000000000000000e+00
0.0000000000000000e+00 1.5046356078130312e+01 0.0000000000000000e+00
ITEM: ATOMS id type xs ys zs
2 1 0.0851565 0.192537 0.164518
8 1 0.0806209 0.42361 0.166877
97 2 0.057816 0.0288864 0.150745
26 1 0.322479 0.161239 0.165928
32 1 0.338922 0.420833 0.166126
56 1 0.580035 0.414241 0.166392
50 1 0.580035 0.165794 0.166392
80 1 0.830176 0.415088 0.166406
74 1 0.831621 0.167899 0.166383
14 1 0.0806205 0.657009 0.166877
20 1 0.085153 0.892642 0.164517
38 1 0.336858 0.668429 0.166424
44 1 0.338922 0.918089 0.166126
62 1 0.586443 0.669098 0.166459
68 1 0.586443 0.917345 0.166459
92 1 0.837172 0.918585 0.166631
1 1 0.00825454 0.0041265 0.00207372
86 1 0.831623 0.663723 0.166383
4 1 0.0825293 0.166185 0.499914
9 1 0.998076 0.250665 0.335365
33 1 0.252026 0.255178 0.334699
34 1 0.333891 0.417999 0.500064
57 1 0.496609 0.248304 0.331906
63 1 0.501744 0.502659 0.33363
51 1 0.501744 0.999085 0.33363
81 1 0.747425 0.249098 0.333432
87 1 0.747425 0.498327 0.333432
15 1 0.996848 0.498424 0.335479
21 1 0.998077 0.747412 0.335364
22 1 0.0825293 0.916344 0.499914
27 1 0.252025 0.996848 0.334698
39 1 0.249471 0.500488 0.333022
40 1 0.334005 0.667003 0.499473
45 1 0.249471 0.748983 0.333022
46 1 0.333891 0.915892 0.500064
69 1 0.500702 0.750351 0.333212
75 1 0.75328 0.000282832 0.332833
93 1 0.75328 0.752997 0.332833
94 1 0.836486 0.918243 0.49866
3 1 0.00881676 0.00440763 0.329119
10 1 0.0837729 0.417109 0.500547
11 1 0.999595 0.249978 0.666354
28 1 0.332437 0.166218 0.500185
35 1 0.25009 0.250722 0.665988
58 1 0.581746 0.415284 0.499507
59 1 0.499572 0.249786 0.666179
52 1 0.581746 0.166462 0.499507
82 1 0.831942 0.415971 0.500379
83 1 0.748802 0.24949 0.666466
89 1 0.748802 0.499312 0.666466
76 1 0.831818 0.166818 0.500459
16 1 0.0837729 0.666664 0.500547
17 1 0.999032 0.499516 0.666309
23 1 0.999595 0.749617 0.666354
29 1 0.25009 0.999368 0.665988
41 1 0.250128 0.500709 0.666176
47 1 0.250128 0.749419 0.666176
53 1 0.500814 6.32412e-06 0.666163
64 1 0.584612 0.667861 0.499764
65 1 0.500814 0.500808 0.666163
70 1 0.584612 0.916751 0.499764
71 1 0.500009 0.750005 0.666404
77 1 0.750794 0.999708 0.666116
95 1 0.750794 0.751086 0.666116
5 1 0.000941208 0.000470596 0.666308
88 1 0.831818 0.665 0.500459
6 1 0.0832562 0.167346 0.832332
7 1 0.998538 0.252374 0.99715
12 1 0.0840287 0.417606 0.832031
30 1 0.332677 0.166338 0.831591
31 1 0.254757 0.257905 0.995819
36 1 0.334709 0.419129 0.831819
55 1 0.496922 0.248461 0.000638713
60 1 0.581787 0.415285 0.833093
61 1 0.502347 0.503376 0.998951
49 1 0.502347 0.998971 0.998951
54 1 0.581787 0.166503 0.833093
79 1 0.747331 0.249113 0.99933
84 1 0.832176 0.416088 0.832508
85 1 0.747331 0.498218 0.99933
13 1 0.997277 0.498638 0.997663
78 1 0.832112 0.166794 0.832363
18 1 0.0840287 0.666423 0.832031
19 1 0.998538 0.746165 0.997151
24 1 0.0832562 0.915911 0.832332
25 1 0.254756 0.996851 0.99582
37 1 0.249646 0.500652 0.999793
42 1 0.334305 0.667153 0.833238
43 1 0.249646 0.748994 0.999793
48 1 0.334709 0.91558 0.831819
66 1 0.585227 0.668143 0.832896
67 1 0.501002 0.750501 0.999571
72 1 0.585227 0.917084 0.832896
73 1 0.754156 0.000272935 3.98222e-05
91 1 0.754157 0.753884 3.99739e-05
96 1 0.835812 0.917906 0.832912
90 1 0.832112 0.665317 0.832363
ITEM: TIMESTEP
65
ITEM: NUMBER OF ATOMS
97
ITEM: BOX BOUNDS xy xz yz pp pp pp
-6.4403077717034343e+00 1.2880619210125165e+01 -6.4403077717034343e+00
0.0000000000000000e+00 1.1154943116692573e+01 0.0000000000000000e+00
0.0000000000000000e+00 1.5046356078130312e+01 0.0000000000000000e+00
ITEM: ATOMS id type xs ys zs
2 1 0.0851643 0.192539 0.164522
8 1 0.0806184 0.423614 0.166872
97 2 0.0577199 0.0288626 0.150823
26 1 0.322484 0.161242 0.165929
32 1 0.338928 0.420844 0.166126
56 1 0.580029 0.414239 0.166392
50 1 0.580029 0.16579 0.166392
80 1 0.830166 0.415083 0.166404
74 1 0.831623 0.167906 0.166381
14 1 0.0806184 0.657004 0.166872
20 1 0.0851647 0.892623 0.164522
38 1 0.336864 0.668432 0.166422
44 1 0.338928 0.918085 0.166126
62 1 0.586451 0.669103 0.166458
68 1 0.586451 0.917348 0.166458
92 1 0.837181 0.918591 0.166627
1 1 0.00829398 0.00414709 0.00209642
86 1 0.831623 0.663717 0.166381
4 1 0.082528 0.166188 0.499911
9 1 0.998079 0.250666 0.33536
33 1 0.252035 0.25519 0.3347
34 1 0.33389 0.418006 0.500064
57 1 0.496607 0.248304 0.331908
63 1 0.501746 0.502667 0.33363
51 1 0.501746 0.999078 0.33363
81 1 0.747418 0.249092 0.333431
87 1 0.747418 0.498326 0.333431
15 1 0.996835 0.498418 0.335475
21 1 0.998079 0.747413 0.33536
22 1 0.082528 0.91634 0.499911
27 1 0.252035 0.996844 0.3347
39 1 0.249466 0.500489 0.333019
40 1 0.334009 0.667005 0.499471
45 1 0.249466 0.748977 0.333019
46 1 0.33389 0.915884 0.500064
69 1 0.500705 0.750353 0.333211
75 1 0.753292 0.000284528 0.33283
93 1 0.753292 0.753007 0.33283
94 1 0.8365 0.91825 0.498656
3 1 0.00884408 0.00442214 0.329099
10 1 0.083768 0.41711 0.500544
11 1 0.999593 0.249979 0.666353
28 1 0.332426 0.166213 0.500186
35 1 0.250089 0.250726 0.665989
58 1 0.581735 0.415279 0.499507
59 1 0.499564 0.249782 0.666179
52 1 0.581735 0.166456 0.499507
82 1 0.831929 0.415965 0.500377
83 1 0.748792 0.249483 0.666464
89 1 0.748792 0.499309 0.666464
76 1 0.831816 0.166819 0.500457
16 1 0.083768 0.666658 0.500544
17 1 0.999019 0.499509 0.666306
23 1 0.999593 0.749614 0.666353
29 1 0.250089 0.999363 0.665989
41 1 0.250122 0.50071 0.666174
47 1 0.250122 0.749412 0.666174
53 1 0.500814 1 0.666163
64 1 0.584621 0.667867 0.499763
65 1 0.500814 0.500814 0.666163
70 1 0.584621 0.916754 0.499763
71 1 0.500011 0.750005 0.666403
77 1 0.750803 0.999708 0.666117
95 1 0.750803 0.751095 0.666117
5 1 0.000950664 0.000475336 0.666307
88 1 0.831816 0.664996 0.500457
6 1 0.0832558 0.167346 0.832333
7 1 0.998541 0.252372 0.997148
12 1 0.0840274 0.417608 0.83203
30 1 0.332667 0.166334 0.831593
31 1 0.254759 0.257909 0.995824
36 1 0.334709 0.419134 0.831819
55 1 0.496922 0.248461 0.000638437
60 1 0.581778 0.41528 0.833093
61 1 0.502351 0.503385 0.99895
49 1 0.502351 0.998966 0.99895
54 1 0.581778 0.166498 0.833093
79 1 0.747326 0.249108 0.999328
84 1 0.832166 0.416083 0.832505
85 1 0.747326 0.498218 0.999328
13 1 0.997265 0.498633 0.99766
78 1 0.83211 0.166798 0.832362
18 1 0.0840274 0.66642 0.83203
19 1 0.998541 0.746169 0.997148
24 1 0.0832558 0.915909 0.832333
25 1 0.254759 0.99685 0.995824
37 1 0.249644 0.500655 0.999791
42 1 0.334313 0.667156 0.833236
43 1 0.249644 0.748989 0.999791
48 1 0.334709 0.915574 0.831819
66 1 0.585239 0.668151 0.832896
67 1 0.501008 0.750504 0.99957
72 1 0.585239 0.917087 0.832896
73 1 0.75417 0.000276855 3.97516e-05
91 1 0.75417 0.753893 3.97328e-05
96 1 0.835835 0.917917 0.83292
90 1 0.83211 0.665312 0.832362
ITEM: TIMESTEP
70
ITEM: NUMBER OF ATOMS
97
ITEM: BOX BOUNDS xy xz yz pp pp pp
-6.4403077717034343e+00 1.2880619210125165e+01 -6.4403077717034343e+00
0.0000000000000000e+00 1.1154943116692573e+01 0.0000000000000000e+00
0.0000000000000000e+00 1.5046356078130312e+01 0.0000000000000000e+00
ITEM: ATOMS id type xs ys zs
2 1 0.0851195 0.192526 0.164598
8 1 0.0806277 0.4236 0.166864
97 2 0.0580078 0.0289938 0.150529
1 1 0.00826988 0.00413458 0.00210126
26 1 0.322546 0.161273 0.165953
32 1 0.338912 0.42085 0.16613
56 1 0.58003 0.414243 0.166392
55 1 0.496919 0.248459 0.000634454
50 1 0.58003 0.165787 0.166392
80 1 0.830162 0.415081 0.166401
74 1 0.831619 0.167916 0.166379
73 1 0.754172 0.000284123 3.78399e-05
14 1 0.0806275 0.657027 0.166864
20 1 0.0851179 0.892604 0.164597
38 1 0.336865 0.668433 0.16642
44 1 0.338912 0.918062 0.16613
62 1 0.58645 0.669098 0.166457
68 1 0.58645 0.917352 0.166457
92 1 0.837126 0.918563 0.166626
91 1 0.754172 0.753888 3.79112e-05
86 1 0.831619 0.663703 0.166379
4 1 0.0825301 0.166192 0.499906
3 1 0.00883313 0.00441621 0.329108
33 1 0.252037 0.255188 0.334696
57 1 0.496625 0.248313 0.331921
58 1 0.581725 0.415277 0.499509
81 1 0.747412 0.249086 0.333431
87 1 0.747412 0.498326 0.333431
52 1 0.581725 0.166448 0.499509
9 1 0.998078 0.250683 0.335366
15 1 0.996829 0.498414 0.335466
75 1 0.753307 0.000290854 0.332827
22 1 0.0825301 0.916338 0.499906
27 1 0.252037 0.996849 0.334696
51 1 0.501746 0.999075 0.333629
39 1 0.249462 0.500492 0.333017
40 1 0.334014 0.667007 0.49947
45 1 0.249462 0.74897 0.333017
63 1 0.501746 0.502672 0.333629
69 1 0.500711 0.750356 0.33321
93 1 0.753307 0.753016 0.332827
94 1 0.836515 0.918257 0.49865
64 1 0.584632 0.667875 0.49976
70 1 0.584632 0.916757 0.49976
21 1 0.998078 0.747395 0.335366
10 1 0.0837643 0.417112 0.500541
5 1 0.000960762 0.000480379 0.666307
34 1 0.333887 0.418009 0.500064
28 1 0.332414 0.166207 0.500186
35 1 0.25009 0.25073 0.665992
59 1 0.499551 0.249775 0.666182
82 1 0.831919 0.415959 0.500374
83 1 0.748783 0.249477 0.666462
89 1 0.748783 0.499306 0.666462
11 1 0.999592 0.249979 0.666352
76 1 0.831816 0.16682 0.500455
17 1 0.999007 0.499503 0.666304
16 1 0.0837643 0.666652 0.500541
29 1 0.25009 0.99936 0.665992
46 1 0.333887 0.915878 0.500064
41 1 0.250116 0.50071 0.666175
47 1 0.250116 0.749406 0.666175
53 1 0.500812 0.999991 0.666164
65 1 0.500812 0.50082 0.666164
71 1 0.500013 0.750006 0.666401
77 1 0.750811 0.999707 0.666117
95 1 0.750811 0.751104 0.666117
23 1 0.999592 0.749613 0.666352
88 1 0.831816 0.664996 0.500455
6 1 0.0832592 0.167347 0.832345
12 1 0.0840251 0.41761 0.832029