ITEM: TIMESTEP
0
ITEM: NUMBER OF ATOMS
97
ITEM: BOX BOUNDS xy xz yz pp pp pp
-6.4403077717034343e+00 1.2880619210125165e+01 -6.4403077717034343e+00
0.0000000000000000e+00 1.1154943116692573e+01 0.0000000000000000e+00
0.0000000000000000e+00 1.5046356078130312e+01 0.0000000000000000e+00
ITEM: ATOMS id type xs ys zs
2 1 0.0867496 0.173947 0.16749
8 1 0.0829696 0.418341 0.166616
97 2 0.111111 0.0555556 0.110978
26 1 0.334206 0.167103 0.16749
32 1 0.335674 0.418958 0.166549
56 1 0.583611 0.41679 0.166616
50 1 0.583611 0.166822 0.166616
80 1 0.833053 0.416526 0.166455
74 1 0.832783 0.166829 0.166616
14 1 0.0829696 0.664628 0.166616
20 1 0.0867496 0.912803 0.16749
38 1 0.333363 0.666681 0.166655
44 1 0.335674 0.916716 0.166549
62 1 0.581907 0.664781 0.166655
68 1 0.581907 0.917126 0.166655
92 1 0.825323 0.912661 0.166549
1 1 0.999702 0.999851 0.00207752
86 1 0.832783 0.665954 0.166616
4 1 0.0829753 0.166095 0.499748
33 1 0.250335 0.250608 0.333611
34 1 0.333135 0.416551 0.499891
57 1 0.501196 0.250598 0.333991
51 1 0.500319 0.000283716 0.333882
81 1 0.749902 0.250075 0.33347
87 1 0.749902 0.499827 0.33347
9 1 0.999625 0.250835 0.334136
15 1 0.999805 0.499903 0.333779
22 1 0.0829753 0.916881 0.499748
27 1 0.250335 0.999727 0.333611
39 1 0.24992 0.500129 0.333403
40 1 0.333416 0.666708 0.499806
45 1 0.24992 0.749792 0.333403
46 1 0.333135 0.916584 0.499891
63 1 0.500319 0.500035 0.333882
69 1 0.500012 0.750006 0.333394
75 1 0.749532 0.999941 0.333719
93 1 0.749532 0.749591 0.333719
94 1 0.834063 0.917031 0.499456
3 1 0.99972 0.99986 0.330121
21 1 0.999625 0.74879 0.334136
10 1 0.0835012 0.416721 0.500192
11 1 0.000213869 0.249861 0.666655
28 1 0.333568 0.166784 0.50029
35 1 0.249804 0.250011 0.666363
58 1 0.583398 0.416693 0.500219
59 1 0.499886 0.249943 0.666655
52 1 0.583398 0.166704 0.500219
53 1 0.50005 9.43367e-06 0.666355
82 1 0.833265 0.416632 0.500035
83 1 0.750044 0.250081 0.666474
89 1 0.750044 0.499963 0.666474
17 1 0.999939 0.499969 0.666474
76 1 0.833203 0.166705 0.500299
16 1 0.0835012 0.66678 0.500192
23 1 0.00021387 0.750353 0.666655
29 1 0.249804 0.999793 0.666363
41 1 0.250057 0.500205 0.666355
47 1 0.250057 0.749851 0.666355
64 1 0.583299 0.666852 0.500072
65 1 0.50005 0.500041 0.666355
70 1 0.583299 0.916447 0.500072
71 1 0.499824 0.749912 0.666539
77 1 0.750055 0.999872 0.666355
95 1 0.750055 0.750183 0.666355
5 1 0.999904 0.999952 0.666363
88 1 0.833203 0.666498 0.500299
6 1 0.0828832 0.166187 0.8334
12 1 0.083544 0.416874 0.832856
30 1 0.333752 0.166876 0.832858
31 1 0.250344 0.250626 0.998588
36 1 0.333697 0.417675 0.832439
55 1 0.50106 0.25053 0.999674
60 1 0.583508 0.416846 0.832829
49 1 0.500368 0.000335006 0.999298
54 1 0.583508 0.166662 0.832829
79 1 0.749925 0.25012 0.999568
84 1 0.833265 0.416632 0.832837
85 1 0.749925 0.499805 0.999568
7 1 0.999693 0.250768 0.999528
13 1 0.99976 0.49988 0.999259
78 1 0.83305 0.166662 0.832749
18 1 0.083544 0.66667 0.832856
24 1 0.0828832 0.916696 0.8334
25 1 0.250344 0.999718 0.998588
37 1 0.249869 0.500126 0.999778
42 1 0.333318 0.666659 0.833227
43 1 0.249869 0.749743 0.999778
48 1 0.333697 0.916022 0.832439
61 1 0.500368 0.500033 0.999298
66 1 0.583348 0.666803 0.83296
67 1 0.500012 0.750006 0.999939
72 1 0.583348 0.916545 0.83296
73 1 0.749534 0.999992 0.999462
91 1 0.749534 0.749542 0.999462
96 1 0.832938 0.916469 0.832874
19 1 0.999693 0.748925 0.999528
90 1 0.83305 0.666388 0.832749
ITEM: TIMESTEP
10
ITEM: NUMBER OF ATOMS
97
ITEM: BOX BOUNDS xy xz yz pp pp pp
-6.4403077717034343e+00 1.2880619210125165e+01 -6.4403077717034343e+00
0.0000000000000000e+00 1.1154943116692573e+01 0.0000000000000000e+00
0.0000000000000000e+00 1.5046356078130312e+01 0.0000000000000000e+00
ITEM: ATOMS id type xs ys zs
2 1 0.0836414 0.185133 0.168825
8 1 0.0812762 0.421673 0.167121
97 2 0.115683 0.0578417 0.111093
26 1 0.324344 0.162172 0.167063
32 1 0.336977 0.419183 0.16649
56 1 0.582111 0.415522 0.166603
50 1 0.582111 0.16659 0.166603
80 1 0.832146 0.416073 0.166423
74 1 0.832314 0.166223 0.16648
14 1 0.0812762 0.659603 0.167121
20 1 0.0836414 0.898509 0.168825
38 1 0.334885 0.667442 0.166564
44 1 0.336977 0.917794 0.16649
62 1 0.583458 0.666473 0.166608
68 1 0.583458 0.916985 0.166608
92 1 0.826686 0.913343 0.167972
1 1 0.996503 0.998252 0.999457
86 1 0.832314 0.666091 0.16648
4 1 0.0828519 0.166109 0.500377
33 1 0.250881 0.252375 0.334592
34 1 0.333399 0.416952 0.500063
57 1 0.498926 0.249463 0.332747
51 1 0.500925 0.999981 0.333916
81 1 0.748996 0.24979 0.333431
87 1 0.748996 0.499206 0.333431
9 1 0.997915 0.251456 0.336365
15 1 0.998826 0.499413 0.335226
22 1 0.0828519 0.916743 0.500377
27 1 0.250881 0.998506 0.334592
39 1 0.249823 0.500046 0.333316
40 1 0.333449 0.666725 0.49967
45 1 0.249823 0.749777 0.333316
46 1 0.333399 0.916446 0.500063
63 1 0.500925 0.500944 0.333916
69 1 0.500071 0.750036 0.333349
75 1 0.74998 8.42318e-05 0.33385
93 1 0.74998 0.749896 0.33385
94 1 0.834209 0.917105 0.499464
3 1 0.00092405 0.000462028 0.333199
21 1 0.997915 0.746459 0.336365
10 1 0.0839279 0.417083 0.50081
11 1 6.81119e-05 0.24981 0.666644
28 1 0.333772 0.166886 0.50042
35 1 0.24989 0.250039 0.66627
58 1 0.583038 0.416243 0.499957
59 1 0.500154 0.250077 0.666523
52 1 0.583038 0.166795 0.499957
53 1 0.500145 0.000135902 0.666324
82 1 0.832978 0.416489 0.500272
83 1 0.749837 0.250041 0.66651
89 1 0.749837 0.499796 0.66651
17 1 0.999739 0.49987 0.666426
76 1 0.8324 0.166593 0.500649
16 1 0.0839279 0.666845 0.50081
23 1 6.81126e-05 0.750258 0.666644
29 1 0.24989 0.999851 0.66627
41 1 0.250303 0.500394 0.666454
47 1 0.250303 0.749909 0.666454
64 1 0.583236 0.666927 0.500025
65 1 0.500145 0.500009 0.666324
70 1 0.583236 0.916309 0.500025
71 1 0.499779 0.749889 0.666498
77 1 0.74978 0.999882 0.666036
95 1 0.74978 0.749898 0.666036
5 1 0.999986 0.999993 0.666451
88 1 0.8324 0.665807 0.500649
6 1 0.0833153 0.166787 0.833266
12 1 0.0836598 0.417204 0.832253
30 1 0.333523 0.166761 0.83267
31 1 0.251178 0.252742 0.998275
36 1 0.333742 0.417363 0.832511
55 1 0.497346 0.248673 0.000709123
60 1 0.583157 0.416335 0.832955
49 1 0.500502 0.999827 0.998979
54 1 0.583157 0.166823 0.832955
79 1 0.748715 0.249771 0.999519
84 1 0.832952 0.416476 0.83263
85 1 0.748715 0.498944 0.999519
7 1 0.998493 0.25246 0.998526
13 1 0.999005 0.499503 0.998167
78 1 0.832674 0.166478 0.832533
18 1 0.0836598 0.666456 0.832253
24 1 0.0833153 0.916528 0.833266
25 1 0.251178 0.998436 0.998275
37 1 0.249705 0.499661 0.99992
42 1 0.333325 0.666663 0.833358
43 1 0.249705 0.750044 0.99992
48 1 0.333742 0.916379 0.832511
61 1 0.500502 0.500675 0.998979
66 1 0.583276 0.666725 0.832829
67 1 0.49994 0.74997 0.999699
72 1 0.583276 0.916552 0.832829
73 1 0.750466 0.999889 0.999761
91 1 0.750466 0.750576 0.999761
96 1 0.831831 0.915916 0.831513
19 1 0.998493 0.746033 0.998526
90 1 0.832674 0.666195 0.832533
ITEM: TIMESTEP
20
ITEM: NUMBER OF ATOMS
97
ITEM: BOX BOUNDS xy xz yz pp pp pp
-6.4403077717034343e+00 1.2880619210125165e+01 -6.4403077717034343e+00
0.0000000000000000e+00 1.1154943116692573e+01 0.0000000000000000e+00
0.0000000000000000e+00 1.5046356078130312e+01 0.0000000000000000e+00
ITEM: ATOMS id type xs ys zs
2 1 0.0833785 0.186098 0.16824
8 1 0.0808335 0.422083 0.167208
97 2 0.118262 0.0591309 0.11299
26 1 0.319959 0.159979 0.166977
32 1 0.337153 0.419572 0.166449
56 1 0.580787 0.414814 0.16656
50 1 0.580787 0.165973 0.16656
80 1 0.831162 0.415581 0.166435
74 1 0.831684 0.166654 0.166498
14 1 0.0808335 0.65875 0.167208
20 1 0.0833785 0.89728 0.16824
38 1 0.335684 0.667842 0.166557
44 1 0.337153 0.917581 0.166449
62 1 0.584785 0.667611 0.166597
68 1 0.584785 0.917174 0.166597
92 1 0.829595 0.914798 0.168112
1 1 0.9995 0.99975 0.00015878
86 1 0.831684 0.66503 0.166498
4 1 0.0827505 0.166387 0.500581
33 1 0.250886 0.253313 0.334699
34 1 0.333642 0.417364 0.500034
57 1 0.49728 0.24864 0.332244
51 1 0.501196 0.999503 0.333749
81 1 0.748068 0.24945 0.333409
87 1 0.748068 0.498619 0.333409
9 1 0.99759 0.251319 0.336327
15 1 0.997873 0.498937 0.33545
22 1 0.0827505 0.916364 0.500581
27 1 0.250886 0.997573 0.334699
39 1 0.249531 0.500222 0.33325
40 1 0.333606 0.666803 0.499654
45 1 0.249531 0.749309 0.33325
46 1 0.333642 0.916278 0.500034
63 1 0.501196 0.501694 0.333749
69 1 0.500311 0.750156 0.333371
75 1 0.750898 0.000223152 0.333829
93 1 0.750898 0.750675 0.333829
94 1 0.834843 0.917422 0.499431
3 1 0.00297198 0.001486 0.333244
21 1 0.99759 0.746271 0.336327
10 1 0.0839133 0.417102 0.50086
11 1 0.999774 0.249812 0.666685
28 1 0.333113 0.166557 0.500301
35 1 0.250023 0.25033 0.666202
58 1 0.58241 0.415715 0.499685
59 1 0.499926 0.249963 0.666396
52 1 0.58241 0.166695 0.499685
53 1 0.500442 0.000211985 0.66627
82 1 0.832557 0.416279 0.500401
83 1 0.749364 0.249824 0.66655
89 1 0.749364 0.49954 0.66655
17 1 0.999495 0.499747 0.666431
76 1 0.832063 0.166695 0.500652
16 1 0.0839133 0.666811 0.50086
23 1 0.999774 0.749962 0.666685
29 1 0.250023 0.999693 0.666202
41 1 0.250307 0.500488 0.666395
47 1 0.250307 0.749819 0.666395
64 1 0.583632 0.667195 0.499985
65 1 0.500442 0.50023 0.66627
70 1 0.583632 0.916437 0.499985
71 1 0.499811 0.749905 0.666514
77 1 0.750044 0.999803 0.666086
95 1 0.750044 0.750241 0.666086
5 1 0.000298483 0.000149244 0.666545
88 1 0.832063 0.665368 0.500652
6 1 0.0833011 0.167089 0.833138
12 1 0.0837953 0.417397 0.832182
30 1 0.332975 0.166488 0.832451
31 1 0.251625 0.253942 0.997716
36 1 0.33416 0.418052 0.832356
55 1 0.495641 0.247821 0.00114388
60 1 0.58249 0.415761 0.833138
49 1 0.501024 0.999333 0.999063
54 1 0.58249 0.166729 0.833138
79 1 0.747748 0.249373 0.999537
84 1 0.832677 0.416339 0.832637
85 1 0.747748 0.498374 0.999537
7 1 0.998143 0.252589 0.998302
13 1 0.998208 0.499104 0.998091
78 1 0.832313 0.166537 0.832559
18 1 0.0837953 0.666398 0.832182
24 1 0.0833011 0.916212 0.833138
25 1 0.251625 0.997683 0.997716
37 1 0.249458 0.499883 0.99999
42 1 0.333631 0.666815 0.833388
43 1 0.249458 0.749575 0.99999
48 1 0.33416 0.916108 0.832356
61 1 0.501024 0.501691 0.999063
66 1 0.583985 0.6672 0.832889
67 1 0.500397 0.750199 0.999674
72 1 0.583985 0.916784 0.832889
73 1 0.751896 0.000150451 0.999927
91 1 0.751896 0.751746 0.999927
96 1 0.832965 0.916482 0.831898
19 1 0.998143 0.745554 0.998302
90 1 0.832313 0.665776 0.832559
ITEM: TIMESTEP
30
ITEM: NUMBER OF ATOMS
97
ITEM: BOX BOUNDS xy xz yz pp pp pp
-6.4403077717034343e+00 1.2880619210125165e+01 -6.4403077717034343e+00
0.0000000000000000e+00 1.1154943116692573e+01 0.0000000000000000e+00
0.0000000000000000e+00 1.5046356078130312e+01 0.0000000000000000e+00
ITEM: ATOMS id type xs ys zs
2 1 0.0834672 0.186892 0.168051
8 1 0.0805803 0.422253 0.16714
97 2 0.119642 0.059822 0.114595
26 1 0.31835 0.159175 0.167045
32 1 0.337219 0.419832 0.166422
56 1 0.580125 0.414493 0.16653
50 1 0.580125 0.165632 0.166529
80 1 0.830543 0.415272 0.166404
74 1 0.8314 0.16685 0.166482
14 1 0.0805804 0.658328 0.16714
20 1 0.083467 0.896574 0.168051
38 1 0.336064 0.668032 0.166519
44 1 0.337219 0.917387 0.166422
62 1 0.585296 0.66799 0.166578
68 1 0.585296 0.917306 0.166578
92 1 0.830462 0.915231 0.168146
1 1 0.00118151 0.000590816 0.000816159
86 1 0.8314 0.66455 0.166482
4 1 0.0826367 0.16654 0.50058
33 1 0.251015 0.253912 0.334818
34 1 0.333726 0.417657 0.500047
57 1 0.496558 0.248279 0.332092
51 1 0.501256 0.999188 0.333702
81 1 0.747518 0.249198 0.333377
87 1 0.747518 0.49832 0.333377
9 1 0.997436 0.251289 0.336232
15 1 0.997247 0.498623 0.335439
22 1 0.0826367 0.916097 0.50058
27 1 0.251015 0.997102 0.334818
39 1 0.249326 0.500329 0.333177
40 1 0.3338 0.6669 0.499605
45 1 0.249326 0.748997 0.333177
46 1 0.333726 0.916069 0.500047
63 1 0.501256 0.502068 0.333702
69 1 0.500493 0.750246 0.333371
75 1 0.751333 0.000319745 0.333796
93 1 0.751333 0.751013 0.333796
94 1 0.835319 0.917659 0.499348
3 1 0.0038988 0.00194943 0.333102
21 1 0.997436 0.746147 0.336232
10 1 0.0838358 0.417156 0.500796
11 1 0.999643 0.249876 0.666681
28 1 0.332602 0.166301 0.500283
35 1 0.250058 0.250559 0.666177
58 1 0.581929 0.415386 0.499578
59 1 0.499614 0.249807 0.666344
52 1 0.581929 0.166544 0.499578
53 1 0.500615 0.000121617 0.666257
82 1 0.832194 0.416097 0.500402
83 1 0.748969 0.249614 0.66653
89 1 0.748969 0.499355 0.66653
17 1 0.999183 0.499591 0.666395
76 1 0.831888 0.166785 0.500633
16 1 0.0838358 0.666679 0.500796
23 1 0.999643 0.749768 0.666681
29 1 0.250058 0.999499 0.666177
41 1 0.250208 0.50058 0.666335
47 1 0.250208 0.749628 0.666335
64 1 0.583999 0.667429 0.499995
65 1 0.500615 0.500494 0.666257
70 1 0.583999 0.91657 0.499995
71 1 0.499919 0.74996 0.666514
77 1 0.750447 0.999804 0.666164
95 1 0.750447 0.750643 0.666164
5 1 0.00070307 0.000351539 0.666577
88 1 0.831888 0.665103 0.500633
6 1 0.0832572 0.167213 0.833172
12 1 0.0838632 0.417544 0.83215
30 1 0.332506 0.166253 0.832358
31 1 0.251985 0.254711 0.99747
36 1 0.33435 0.418466 0.832244
55 1 0.494841 0.24742 0.00131351
60 1 0.582016 0.415402 0.833193
49 1 0.501238 0.999043 0.999053
54 1 0.582016 0.166614 0.833193
79 1 0.747213 0.249132 0.999528
84 1 0.832385 0.416192 0.832593
85 1 0.747213 0.498081 0.999528
7 1 0.998034 0.252588 0.998213
13 1 0.997623 0.498811 0.998007
78 1 0.832161 0.166698 0.832563
18 1 0.0838632 0.666319 0.83215
24 1 0.0832572 0.916044 0.833172
25 1 0.251985 0.997274 0.99747
37 1 0.249345 0.500067 0.999968
42 1 0.333976 0.666988 0.833365
43 1 0.249345 0.749278 0.999968
48 1 0.33435 0.915884 0.832244
61 1 0.501238 0.502195 0.999053
66 1 0.584556 0.667586 0.832915
67 1 0.500743 0.750372 0.999659
72 1 0.584556 0.916971 0.832915
73 1 0.752626 0.000368889 2.6543e-06
91 1 0.752626 0.752257 2.65497e-06
96 1 0.833953 0.916976 0.832296
19 1 0.998034 0.745446 0.998213
90 1 0.832161 0.665463 0.832563
ITEM: TIMESTEP
40
ITEM: NUMBER OF ATOMS
97
ITEM: BOX BOUNDS xy xz yz pp pp pp
-6.4403077717034343e+00 1.2880619210125165e+01 -6.4403077717034343e+00
0.0000000000000000e+00 1.1154943116692573e+01 0.0000000000000000e+00
0.0000000000000000e+00 1.5046356078130312e+01 0.0000000000000000e+00
ITEM: ATOMS id type xs ys zs
2 1 0.0835545 0.187102 0.168005
8 1 0.0805087 0.422292 0.167105
97 2 0.119823 0.0599125 0.115118
26 1 0.318113 0.159057 0.167077
32 1 0.337245 0.419915 0.166417
56 1 0.579987 0.414434 0.166523
50 1 0.579987 0.165552 0.166523
80 1 0.830384 0.415192 0.166387
74 1 0.831355 0.166886 0.166473
14 1 0.0805088 0.658217 0.167105
20 1 0.0835543 0.896451 0.168005
38 1 0.33614 0.66807 0.166502
44 1 0.337245 0.91733 0.166417
62 1 0.585399 0.668062 0.166571
68 1 0.585399 0.917337 0.166571
92 1 0.830611 0.915306 0.168145
1 1 0.00160709 0.000803602 0.0010201
86 1 0.831355 0.664469 0.166473
4 1 0.0826001 0.166576 0.50057
33 1 0.251074 0.254071 0.334863
34 1 0.333728 0.417736 0.500056
57 1 0.496436 0.248218 0.332083
51 1 0.501255 0.9991 0.3337
81 1 0.747385 0.249123 0.333365
87 1 0.747385 0.498263 0.333365
9 1 0.997402 0.251281 0.336204
15 1 0.997074 0.498537 0.335415
22 1 0.0826001 0.916024 0.50057
27 1 0.251074 0.997003 0.334863
39 1 0.249259 0.500349 0.333153
40 1 0.333857 0.666928 0.499584
45 1 0.249259 0.74891 0.333153
46 1 0.333728 0.915992 0.500056
63 1 0.501255 0.502155 0.3337
69 1 0.500532 0.750266 0.333367
75 1 0.751428 0.000340219 0.333786
93 1 0.751428 0.751087 0.333786
94 1 0.835447 0.917723 0.499323
3 1 0.00410987 0.00205497 0.33305
21 1 0.997402 0.746122 0.336204
10 1 0.0837977 0.417173 0.500767
11 1 0.999618 0.249898 0.666676
28 1 0.332459 0.16623 0.500293
35 1 0.25006 0.250622 0.666178
58 1 0.581788 0.415304 0.499563
59 1 0.499512 0.249756 0.666339
52 1 0.581788 0.166484 0.499563
53 1 0.500645 7.20444e-05 0.666256
82 1 0.832065 0.416033 0.500389
83 1 0.748847 0.249543 0.666519
89 1 0.748847 0.499304 0.666519
17 1 0.99906 0.49953 0.666376
76 1 0.831846 0.166813 0.500625
16 1 0.0837977 0.666624 0.500767
23 1 0.999618 0.74972 0.666676
29 1 0.25006 0.999437 0.666178
41 1 0.250164 0.500611 0.666315
47 1 0.250164 0.749553 0.666315
64 1 0.584103 0.667496 0.5
65 1 0.500645 0.500573 0.666256
70 1 0.584103 0.916607 0.5
71 1 0.499959 0.749979 0.66651
77 1 0.750573 0.999812 0.666185
95 1 0.750573 0.750762 0.666185
5 1 0.000829956 0.000414982 0.666587
88 1 0.831846 0.665034 0.500625
6 1 0.0832496 0.167245 0.833192
12 1 0.0838711 0.417585 0.832137
30 1 0.33238 0.16619 0.832345
31 1 0.252105 0.25491 0.997428
36 1 0.334382 0.418568 0.832216
55 1 0.49471 0.247355 0.0013411
60 1 0.581886 0.415317 0.833199
49 1 0.501283 0.998969 0.999043
54 1 0.581886 0.166569 0.833199
79 1 0.747097 0.249069 0.99952
84 1 0.832279 0.416139 0.832572
85 1 0.747097 0.498028 0.99952
7 1 0.998028 0.252578 0.998192
13 1 0.997465 0.498732 0.997974
78 1 0.832136 0.166752 0.832559
18 1 0.0838711 0.666286 0.832137
24 1 0.0832496 0.916004 0.833192
25 1 0.252105 0.997195 0.997428
37 1 0.249316 0.500113 0.999951
42 1 0.334082 0.667041 0.833353
43 1 0.249316 0.749203 0.999951
48 1 0.334382 0.915815 0.832216
61 1 0.501283 0.502314 0.999043
66 1 0.584713 0.66769 0.832916
67 1 0.500833 0.750416 0.999651
72 1 0.584713 0.917023 0.832916
73 1 0.752791 0.000422613 1.42167e-05
91 1 0.752791 0.752368 1.42177e-05
96 1 0.834218 0.917109 0.832399
19 1 0.998028 0.74545 0.998192
90 1 0.832136 0.665383 0.832559
ITEM: TIMESTEP
50
ITEM: NUMBER OF ATOMS
97
ITEM: BOX BOUNDS xy xz yz pp pp pp
-6.4403077717034343e+00 1.2880619210125165e+01 -6.4403077717034343e+00
0.0000000000000000e+00 1.1154943116692573e+01 0.0000000000000000e+00
0.0000000000000000e+00 1.5046356078130312e+01 0.0000000000000000e+00
ITEM: ATOMS id type xs ys zs
2 1 0.0835934 0.187188 0.16799
8 1 0.0804838 0.422303 0.167091
97 2 0.119846 0.0599226 0.115329
26 1 0.318063 0.159031 0.167091
32 1 0.337257 0.419949 0.166416
56 1 0.579943 0.414418 0.166522
50 1 0.579943 0.165526 0.166522
80 1 0.83033 0.415165 0.16638
74 1 0.831344 0.166897 0.166468
14 1 0.0804837 0.658181 0.167091
20 1 0.0835936 0.896406 0.16799
38 1 0.336164 0.668082 0.166494
44 1 0.337257 0.917308 0.166416
62 1 0.585436 0.668088 0.166568
68 1 0.585436 0.917348 0.166568
92 1 0.830665 0.915333 0.168143
1 1 0.00175094 0.000875444 0.001084
86 1 0.831344 0.664448 0.166468
4 1 0.082587 0.166589 0.500566
33 1 0.2511 0.254128 0.33488
34 1 0.333725 0.417764 0.500061
57 1 0.496405 0.248202 0.332085
51 1 0.501254 0.999068 0.3337
81 1 0.747341 0.249094 0.33336
87 1 0.747341 0.498247 0.33336
9 1 0.997393 0.251276 0.336192
15 1 0.997012 0.498506 0.335404
22 1 0.082587 0.915998 0.500566
27 1 0.2511 0.996972 0.33488
39 1 0.249233 0.500355 0.333144
40 1 0.333875 0.666937 0.499576
45 1 0.249233 0.748878 0.333144
46 1 0.333725 0.915961 0.500061
63 1 0.501254 0.502186 0.3337
69 1 0.500543 0.750272 0.333364
75 1 0.751461 0.000346269 0.333781
93 1 0.751461 0.751115 0.333781
94 1 0.835492 0.917746 0.499313
3 1 0.00418528 0.00209263 0.333032
21 1 0.997393 0.746117 0.336192
10 1 0.0837796 0.417179 0.500756
11 1 0.999608 0.249906 0.666673
28 1 0.332408 0.166204 0.500299
35 1 0.250059 0.250644 0.66618
58 1 0.581735 0.415277 0.499559
59 1 0.499474 0.249737 0.666338
52 1 0.581735 0.166459 0.499559
53 1 0.500651 4.97763e-05 0.666256
82 1 0.832013 0.416007 0.500383
83 1 0.7488 0.249515 0.666515
89 1 0.7488 0.499286 0.666515
17 1 0.999009 0.499504 0.666367
76 1 0.831831 0.166821 0.500622
16 1 0.0837796 0.666601 0.500756
23 1 0.999608 0.749703 0.666673
29 1 0.250059 0.999415 0.66618
41 1 0.250144 0.500621 0.666308
47 1 0.250144 0.749523 0.666308
64 1 0.584139 0.66752 0.500001
65 1 0.500651 0.500601 0.666256
70 1 0.584139 0.916619 0.500001
71 1 0.499971 0.749985 0.666507
77 1 0.750617 0.999814 0.666191
95 1 0.750617 0.750802 0.666191
5 1 0.000875062 0.000437533 0.66659
88 1 0.831831 0.665009 0.500622
6 1 0.0832483 0.167257 0.8332
12 1 0.0838702 0.417599 0.832131
30 1 0.332336 0.166168 0.832343
31 1 0.252156 0.254984 0.997415
36 1 0.33439 0.418601 0.832207
55 1 0.494678 0.247339 0.00134888
60 1 0.58184 0.415289 0.8332
49 1 0.501298 0.998943 0.999039
54 1 0.58184 0.166551 0.8332
79 1 0.747061 0.249046 0.999516
84 1 0.832237 0.416118 0.832564
85 1 0.747061 0.498015 0.999516
7 1 0.99803 0.252573 0.998184
13 1 0.997409 0.498704 0.997962
78 1 0.832128 0.166771 0.832556
18 1 0.0838702 0.666272 0.832131
24 1 0.0832483 0.915991 0.8332
25 1 0.252156 0.997172 0.997415
37 1 0.249305 0.500128 0.999945
42 1 0.334119 0.667059 0.833348
43 1 0.249305 0.749177 0.999945
48 1 0.33439 0.915789 0.832207
61 1 0.501298 0.502355 0.999039
66 1 0.584767 0.667727 0.832916
67 1 0.500862 0.750431 0.999648
72 1 0.584767 0.91704 0.832916
73 1 0.752847 0.000440218 1.6927e-05
91 1 0.752847 0.752407 1.69259e-05
96 1 0.83431 0.917155 0.832434
19 1 0.99803 0.745457 0.998184
90 1 0.832128 0.665356 0.832556
ITEM: TIMESTEP
60
ITEM: NUMBER OF ATOMS
97
ITEM: BOX BOUNDS xy xz yz pp pp pp
-6.4403077717034343e+00 1.2880619210125165e+01 -6.4403077717034343e+00
0.0000000000000000e+00 1.1154943116692573e+01 0.0000000000000000e+00
0.0000000000000000e+00 1.5046356078130312e+01 0.0000000000000000e+00
ITEM: ATOMS id type xs ys zs
2 1 0.0836301 0.187259 0.167977
8 1 0.0804651 0.422311 0.16708
97 2 0.119833 0.0599169 0.115511
26 1 0.318041 0.15902 0.167103
32 1 0.337268 0.419977 0.166416
56 1 0.579914 0.414407 0.166522
50 1 0.579914 0.165507 0.166522
80 1 0.830289 0.415144 0.166374
74 1 0.83134 0.166904 0.166464
14 1 0.0804651 0.658154 0.16708
20 1 0.08363 0.89637 0.167977
38 1 0.336181 0.66809 0.166488
44 1 0.337268 0.917291 0.166416
62 1 0.585467 0.668111 0.166566
68 1 0.585467 0.917356 0.166566
92 1 0.830712 0.915356 0.16814
1 1 0.00186233 0.000931196 0.00113025
86 1 0.83134 0.664436 0.166464
4 1 0.0825771 0.166599 0.500563
33 1 0.251125 0.254173 0.334894
34 1 0.33372 0.417786 0.500065
57 1 0.496388 0.248194 0.332089
51 1 0.501254 0.999043 0.3337
81 1 0.74731 0.249072 0.333356
87 1 0.74731 0.498238 0.333356
9 1 0.997388 0.251271 0.336182
15 1 0.996964 0.498482 0.335393
22 1 0.0825771 0.915978 0.500563
27 1 0.251125 0.996951 0.334894
39 1 0.249212 0.500359 0.333137
40 1 0.333887 0.666944 0.49957
45 1 0.249212 0.748853 0.333137
46 1 0.33372 0.915934 0.500065
63 1 0.501254 0.502211 0.3337
69 1 0.50055 0.750275 0.333361
75 1 0.751489 0.000350195 0.333776
93 1 0.751489 0.751139 0.333776
94 1 0.835528 0.917764 0.499306
3 1 0.00424658 0.00212331 0.333018
21 1 0.997388 0.746118 0.336182
10 1 0.0837619 0.417182 0.500746
11 1 0.999599 0.24991 0.666671
28 1 0.332369 0.166184 0.500304
35 1 0.250057 0.250661 0.666182
58 1 0.581693 0.415256 0.499558
59 1 0.499442 0.249721 0.66634
52 1 0.581693 0.166437 0.499558
53 1 0.500652 2.93248e-05 0.666257
82 1 0.831969 0.415984 0.500376
83 1 0.748762 0.249491 0.666511
89 1 0.748762 0.499271 0.666511
17 1 0.998964 0.499482 0.66636
76 1 0.831818 0.166827 0.500618
16 1 0.0837619 0.66658 0.500746
23 1 0.999599 0.749689 0.666671
29 1 0.250057 0.999397 0.666182
41 1 0.250124 0.500627 0.666303
47 1 0.250124 0.749497 0.666303
64 1 0.584166 0.667539 0.500001
65 1 0.500652 0.500622 0.666257
70 1 0.584166 0.916628 0.500001
71 1 0.499978 0.749989 0.666505
77 1 0.750648 0.999816 0.666195
95 1 0.750648 0.750833 0.666195
5 1 0.000908966 0.000454486 0.666593
88 1 0.831818 0.664991 0.500618
6 1 0.0832479 0.167267 0.833206
12 1 0.0838662 0.417608 0.832127
30 1 0.332302 0.166151 0.832343
31 1 0.2522 0.255043 0.997406
36 1 0.334393 0.418626 0.832202
55 1 0.494663 0.247332 0.00135404
60 1 0.581803 0.415269 0.833201
49 1 0.50131 0.998923 0.999037
54 1 0.581803 0.166534 0.833201
79 1 0.747037 0.249029 0.999513
84 1 0.832201 0.4161 0.832558
85 1 0.747037 0.498008 0.999513
7 1 0.998033 0.252567 0.998176
13 1 0.997367 0.498683 0.997952
78 1 0.832121 0.166785 0.832553
18 1 0.0838662 0.666258 0.832127
24 1 0.0832479 0.915981 0.833206
25 1 0.2522 0.997157 0.997406
37 1 0.249296 0.500138 0.999939
42 1 0.334145 0.667073 0.833344
43 1 0.249296 0.749157 0.999939
48 1 0.334393 0.915767 0.832202
61 1 0.50131 0.502387 0.999037
66 1 0.584807 0.667754 0.832916
67 1 0.500883 0.750441 0.999645
72 1 0.584807 0.917053 0.832916
73 1 0.75289 0.000452575 1.80929e-05
91 1 0.75289 0.752438 1.80932e-05
96 1 0.834379 0.91719 0.832459
19 1 0.998032 0.745465 0.998176
90 1 0.832121 0.665337 0.832553
ITEM: TIMESTEP
65
ITEM: NUMBER OF ATOMS
97
ITEM: BOX BOUNDS xy xz yz pp pp pp
-6.4403077717034343e+00 1.2880619210125165e+01 -6.4403077717034343e+00
0.0000000000000000e+00 1.1154943116692573e+01 0.0000000000000000e+00
0.0000000000000000e+00 1.5046356078130312e+01 0.0000000000000000e+00
ITEM: ATOMS id type xs ys zs
2 1 0.0836416 0.18728 0.167973
8 1 0.0804604 0.422314 0.167076
97 2 0.119821 0.0599103 0.115566
26 1 0.318039 0.15902 0.167106
32 1 0.337272 0.419986 0.166416
56 1 0.579907 0.414405 0.166522
50 1 0.579907 0.165502 0.166522
80 1 0.830278 0.415139 0.166372
74 1 0.83134 0.166907 0.166462
14 1 0.0804604 0.658147 0.167076
20 1 0.0836416 0.896362 0.167973
38 1 0.336185 0.668093 0.166486
44 1 0.337272 0.917286 0.166416
62 1 0.585476 0.668117 0.166565
68 1 0.585476 0.917358 0.166565
92 1 0.830727 0.915363 0.168139
1 1 0.00189285 0.000946422 0.00114188
86 1 0.83134 0.664434 0.166462
4 1 0.0825745 0.166602 0.500562
33 1 0.251133 0.254186 0.334898
34 1 0.333718 0.417792 0.500066
57 1 0.496386 0.248193 0.332091
51 1 0.501255 0.999037 0.333701
81 1 0.747302 0.249066 0.333355
87 1 0.747302 0.498236 0.333355
9 1 0.997388 0.251269 0.336179
15 1 0.996951 0.498475 0.33539
22 1 0.0825745 0.915973 0.500562
27 1 0.251133 0.996947 0.334898
39 1 0.249207 0.50036 0.333135
40 1 0.33389 0.666945 0.499568
45 1 0.249207 0.748847 0.333135
46 1 0.333718 0.915927 0.500066
63 1 0.501255 0.502218 0.333701
69 1 0.500552 0.750276 0.333361
75 1 0.751498 0.000351115 0.333774
93 1 0.751498 0.751147 0.333774
94 1 0.835537 0.917769 0.499303
3 1 0.00426437 0.00213218 0.333014
21 1 0.997388 0.746119 0.336179
10 1 0.0837562 0.417182 0.500744
11 1 0.999596 0.249911 0.66667
28 1 0.332358 0.166179 0.500306
35 1 0.250057 0.250665 0.666183
58 1 0.581681 0.415251 0.499558
59 1 0.499434 0.249717 0.66634
52 1 0.581681 0.16643 0.499558
53 1 0.500651 2.2919e-05 0.666257
82 1 0.831956 0.415978 0.500374
83 1 0.748751 0.249484 0.66651
89 1 0.748751 0.499267 0.66651
17 1 0.998951 0.499475 0.666358
76 1 0.831815 0.166829 0.500617
16 1 0.0837562 0.666574 0.500744
23 1 0.999596 0.749685 0.66667
29 1 0.250057 0.999392 0.666183
41 1 0.250117 0.500628 0.666302
47 1 0.250117 0.749489 0.666302
64 1 0.584173 0.667544 0.500001
65 1 0.500651 0.500628 0.666257
70 1 0.584173 0.916629 0.500001
71 1 0.499979 0.74999 0.666504
77 1 0.750656 0.999815 0.666196
95 1 0.750656 0.75084 0.666196
5 1 0.000917696 0.000458851 0.666593
88 1 0.831815 0.664986 0.500617
6 1 0.0832478 0.16727 0.833207
12 1 0.0838641 0.41761 0.832125
30 1 0.332293 0.166147 0.832344
31 1 0.252213 0.255059 0.997403
36 1 0.334393 0.418632 0.832201
55 1 0.494662 0.247331 0.0013553
60 1 0.581793 0.415264 0.833202
49 1 0.501314 0.998918 0.999037
54 1 0.581793 0.166529 0.833202
79 1 0.747031 0.249024 0.999512
84 1 0.83219 0.416095 0.832556
85 1 0.747031 0.498007 0.999512
7 1 0.998034 0.252565 0.998174
13 1 0.997355 0.498678 0.997949
78 1 0.832119 0.166788 0.832552
18 1 0.0838641 0.666254 0.832125
24 1 0.0832478 0.915978 0.833207
25 1 0.252213 0.997154 0.997403
37 1 0.249293 0.500141 0.999937
42 1 0.334151 0.667076 0.833343
43 1 0.249293 0.749152 0.999937
48 1 0.334393 0.915761 0.832201
61 1 0.501314 0.502396 0.999037
66 1 0.584817 0.667761 0.832916
67 1 0.500888 0.750444 0.999645
72 1 0.584817 0.917056 0.832916
73 1 0.752902 0.000455578 1.81674e-05
91 1 0.752902 0.752446 1.8167e-05
96 1 0.834397 0.917199 0.832465
19 1 0.998034 0.745469 0.998174
90 1 0.832119 0.665331 0.832552
ITEM: TIMESTEP
70
ITEM: NUMBER OF ATOMS
97
ITEM: BOX BOUNDS xy xz yz pp pp pp
-6.4403077717034343e+00 1.2880619210125165e+01 -6.4403077717034343e+00
0.0000000000000000e+00 1.1154943116692573e+01 0.0000000000000000e+00
0.0000000000000000e+00 1.5046356078130312e+01 0.0000000000000000e+00
ITEM: ATOMS id type xs ys zs
2 1 0.083734 0.187441 0.167945
8 1 0.0804356 0.422317 0.167083
97 2 0.120444 0.0602222 0.115388
1 1 0.00190541 0.000952731 0.00116559
26 1 0.317892 0.158946 0.167103
32 1 0.337278 0.41999 0.166416
56 1 0.579893 0.414403 0.166524
55 1 0.494619 0.24731 0.00137366
50 1 0.579893 0.165491 0.166524
80 1 0.830263 0.415132 0.166371
74 1 0.831337 0.166882 0.166464
73 1 0.752899 0.000455391 1.62273e-05
14 1 0.0804356 0.658118 0.167083
20 1 0.0837339 0.896292 0.167945
38 1 0.336183 0.668092 0.166487
44 1 0.337278 0.917287 0.166416
62 1 0.585477 0.668117 0.166567
68 1 0.585477 0.91736 0.166567
92 1 0.830651 0.915326 0.168166
91 1 0.752899 0.752444 1.62273e-05
86 1 0.831337 0.664455 0.166464
3 1 0.00421574 0.00210789 0.333088
33 1 0.25113 0.254197 0.334915
57 1 0.496359 0.248179 0.332085
58 1 0.581668 0.415242 0.499556
81 1 0.747292 0.24906 0.333351
87 1 0.747292 0.498232 0.333351
52 1 0.581668 0.166425 0.499556
9 1 0.997377 0.251252 0.336181
15 1 0.996934 0.498467 0.335393
75 1 0.751456 0.000347204 0.333798
27 1 0.25113 0.996933 0.334915
51 1 0.501247 0.999028 0.333703
39 1 0.249195 0.500357 0.333135
40 1 0.333887 0.666944 0.499568
45 1 0.249195 0.748839 0.333135
63 1 0.501247 0.502219 0.333703
69 1 0.500546 0.750273 0.333363
93 1 0.751456 0.751109 0.333798
94 1 0.835526 0.917763 0.499315
21 1 0.997377 0.746125 0.336181
4 1 0.0825688 0.166609 0.500577
10 1 0.0837482 0.417181 0.500744
5 1 0.000922722 0.000461364 0.6666
34 1 0.333714 0.417796 0.50007
28 1 0.33235 0.166175 0.500312
35 1 0.250054 0.250667 0.666184
59 1 0.499429 0.249714 0.66634
53 1 0.500649 1.95291e-05 0.666258
82 1 0.831941 0.415971 0.500374
83 1 0.748738 0.249478 0.666511
89 1 0.748738 0.499261 0.666511
11 1 0.99959 0.249911 0.666674
17 1 0.998935 0.499468 0.666357
76 1 0.831808 0.166831 0.50062
22 1 0.0825688 0.915959 0.500577
16 1 0.0837482 0.666567 0.500744
29 1 0.250054 0.999386 0.666184
46 1 0.333714 0.915918 0.50007
41 1 0.250109 0.500628 0.666301
47 1 0.250109 0.749481 0.666301
64 1 0.584168 0.66754 0.500008
65 1 0.500649 0.500629 0.666258
70 1 0.584168 0.916627 0.500008
71 1 0.499977 0.749989 0.666506
77 1 0.750659 0.999817 0.666199
95 1 0.750659 0.750842 0.666199
23 1 0.99959 0.749679 0.666674
88 1 0.831808 0.664976 0.50062
6 1 0.0832432 0.167271 0.833212
12 1 0.083859 0.417612 0.832125
30 1 0.332298 0.166149 0.832324