LAMMPS (29 Aug 2024)
Processor partition = 1
units metal
atom_style atomic
dimension 3
boundary p p p

atom_modify     map array
#atom_modify     map array sort 0 0.0

read_data hexag_Hf_octOint_DATA  # initial Oint in octahedral spot
Reading data file ...
  triclinic box = (0 0 0) to (12.880619 11.154943 15.046356) with tilt (-6.4403078 0 0)
WARNING: Triclinic box skew is large. LAMMPS will run inefficiently. (src/domain.cpp:221)
  1 by 1 by 1 MPI processor grid
  reading atoms ...
  97 atoms
  read_data CPU = 0.003 seconds

# neighbor parameters
neighbor 2.0 bin
neigh_modify every 1 delay 0 check no

# interatomic potential parameters
pair_style     pod
pair_coeff * * HfO2_param.pod HfO2_coefficients.pod Hf O
**************** Begin of POD Potentials ****************
species: Hf O 
periodic boundary conditions: 1 1 1
number of environment clusters: 1
number of principal compoments: 2
inner cut-off radius: 1.2
outer cut-off radius: 5.5
bessel polynomial degree: 4
inverse polynomial degree: 10
one-body potential: 1
two-body radial basis functions: 8
three-body radial basis functions: 8
three-body angular degree: 5
four-body radial basis functions: 6
four-body angular degree: 4
five-body radial basis functions: 5
five-body angular degree: 3
six-body radial basis functions: 4
six-body angular degree: 2
seven-body radial basis functions: 0
seven-body angular degree: 0
number of local descriptors per element for one-body potential: 1
number of local descriptors per element for two-body potential: 16
number of local descriptors per element for three-body potential: 144
number of local descriptors per element for four-body potential: 264
number of local descriptors per element for five-body potential: 468
number of local descriptors per element for six-body potential: 387
number of local descriptors per element for seven-body potential: 0
number of local descriptors per element for all potentials: 1280
number of global descriptors: 2560
**************** End of POD Potentials ****************

**************** Begin of Model Coefficients ****************
total number of coefficients for POD potential: 2560
total number of elements for PCA projection matrix: 0
total number of elements for PCA centroids: 0
**************** End of Model Coefficients ****************


variable        u uloop 20
variable i equal part

dump            1 all atom 10 dump.neb.$u
dump            1 all atom 10 dump.neb.2

timestep 0.01
fix             1 all neb 1.0 parallel ideal
min_style       quickmin

neb             0.0 0.01 1000 1000 10 final coords.initial.6
Neighbor list info ...
  update: every = 1 steps, delay = 0 steps, check = no
  max neighbors/atom: 2000, page size: 100000
  master list distance cutoff = 7.5
  ghost atom cutoff = 7.5
  binsize = 3.75, bins = 6 3 5
  1 neighbor lists, perpetual/occasional/extra = 1 0 0
  (1) pair pod, perpetual
      attributes: full, newton on
      pair build: full/bin/atomonly
      stencil: full/bin/3d
      bin: standard
Per MPI rank memory allocation (min/avg/max) = 2.588 | 2.588 | 2.588 Mbytes
   Step          Temp          E_pair         E_mol          TotEng         Press     
         0   0             -712.81717      0             -712.81717      4261.9424    
        65   7.9449702e-05 -713.05083      0             -713.05083      2920.5056    
Loop time of 1.38146 on 1 procs for 65 steps with 97 atoms

92.0% CPU use with 1 MPI tasks x no OpenMP threads

Minimization stats:
  Stopping criterion = force tolerance
  Energy initial, next-to-last, final = 
     -712.817171556344  -713.050881450773  -713.050826815892
  Force two-norm initial, final = 2.2316887 0.0039919231
  Force max component initial, final = 1.105751 0.0012375003
  Final line search alpha, max atom move = 0 0
  Iterations, force evaluations = 65 65

MPI task timing breakdown:
Section |  min time  |  avg time  |  max time  |%varavg| %total
---------------------------------------------------------------
Pair    | 0.9778     | 0.9778     | 0.9778     |   0.0 | 70.78
Neigh   | 0.023938   | 0.023938   | 0.023938   |   0.0 |  1.73
Comm    | 0.0015177  | 0.0015177  | 0.0015177  |   0.0 |  0.11
Output  | 0.00062363 | 0.00062363 | 0.00062363 |   0.0 |  0.05
Modify  | 0.35354    | 0.35354    | 0.35354    |   0.0 | 25.59
Other   |            | 0.02404    |            |       |  1.74

Nlocal:             97 ave          97 max          97 min
Histogram: 1 0 0 0 0 0 0 0 0 0
Nghost:            893 ave         893 max         893 min
Histogram: 1 0 0 0 0 0 0 0 0 0
Neighs:              0 ave           0 max           0 min
Histogram: 1 0 0 0 0 0 0 0 0 0
FullNghs:         7296 ave        7296 max        7296 min
Histogram: 1 0 0 0 0 0 0 0 0 0

Total # of neighbors = 7296
Ave neighs/atom = 75.216495
Neighbor list builds = 66
Dangerous builds not checked
Per MPI rank memory allocation (min/avg/max) = 3.592 | 3.592 | 3.592 Mbytes
   Step          Temp          E_pair         E_mol          TotEng         Press     
        65   0             -713.05083      0             -713.05083      2920.5051    
       104   0.00015434491 -713.10124      0             -713.10123      2866.3046    
Loop time of 0.842365 on 1 procs for 39 steps with 97 atoms

91.4% CPU use with 1 MPI tasks x no OpenMP threads

Minimization stats:
  Stopping criterion = force tolerance
  Energy initial, next-to-last, final = 
     -713.050826815893  -713.100993824551    -713.1012356045
  Force two-norm initial, final = 0.0038093325 0.0050786381
  Force max component initial, final = 0.0012055708 0.0028304385
  Final line search alpha, max atom move = 0 0
  Iterations, force evaluations = 39 39

MPI task timing breakdown:
Section |  min time  |  avg time  |  max time  |%varavg| %total
---------------------------------------------------------------
Pair    | 0.64458    | 0.64458    | 0.64458    |   0.0 | 76.52
Neigh   | 0.014282   | 0.014282   | 0.014282   |   0.0 |  1.70
Comm    | 0.00089929 | 0.00089929 | 0.00089929 |   0.0 |  0.11
Output  | 0.00041675 | 0.00041675 | 0.00041675 |   0.0 |  0.05
Modify  | 0.17852    | 0.17852    | 0.17852    |   0.0 | 21.19
Other   |            | 0.003669   |            |       |  0.44

Nlocal:             97 ave          97 max          97 min
Histogram: 1 0 0 0 0 0 0 0 0 0
Nghost:            893 ave         893 max         893 min
Histogram: 1 0 0 0 0 0 0 0 0 0
Neighs:              0 ave           0 max           0 min
Histogram: 1 0 0 0 0 0 0 0 0 0
FullNghs:         7292 ave        7292 max        7292 min
Histogram: 1 0 0 0 0 0 0 0 0 0

Total # of neighbors = 7292
Ave neighs/atom = 75.175258
Neighbor list builds = 40
Dangerous builds not checked

CITE-CITE-CITE-CITE-CITE-CITE-CITE-CITE-CITE-CITE-CITE-CITE-CITE

Your simulation uses code contributions which should be cited:

- Type Label Framework: https://doi.org/10.1021/acs.jpcb.3c08419

@Article{Gissinger24,
 author = {Jacob R. Gissinger, Ilia Nikiforov, Yaser Afshar, Brendon Waters, Moon-ki Choi, Daniel S. Karls, Alexander Stukowski, Wonpil Im, Hendrik Heinz, Axel Kohlmeyer, and Ellad B. Tadmor},
 title = {Type Label Framework for Bonded Force Fields in LAMMPS},
 journal = {J. Phys. Chem. B},
 year =    2024,
 volume =  128,
 number =  13,
 pages =   {3282–-3297}
}

CITE-CITE-CITE-CITE-CITE-CITE-CITE-CITE-CITE-CITE-CITE-CITE-CITE

Total wall time: 0:00:02
