LAMMPS (29 Aug 2024)
Processor partition = 2
units metal
atom_style atomic
dimension 3
boundary p p p

atom_modify     map array
#atom_modify     map array sort 0 0.0

read_data hexag_Hf_octOint_DATA  # initial Oint in octahedral spot
Reading data file ...
  triclinic box = (0 0 0) to (12.880619 11.154943 15.046356) with tilt (-6.4403078 0 0)
WARNING: Triclinic box skew is large. LAMMPS will run inefficiently. (src/domain.cpp:221)
  1 by 1 by 1 MPI processor grid
  reading atoms ...
  97 atoms
  read_data CPU = 0.003 seconds

# neighbor parameters
neighbor 2.0 bin
neigh_modify every 1 delay 0 check no

# interatomic potential parameters
pair_style     pod
pair_coeff * * HfO2_param.pod HfO2_coefficients.pod Hf O
**************** Begin of POD Potentials ****************
species: Hf O 
periodic boundary conditions: 1 1 1
number of environment clusters: 1
number of principal compoments: 2
inner cut-off radius: 1.2
outer cut-off radius: 5.5
bessel polynomial degree: 4
inverse polynomial degree: 10
one-body potential: 1
two-body radial basis functions: 8
three-body radial basis functions: 8
three-body angular degree: 5
four-body radial basis functions: 6
four-body angular degree: 4
five-body radial basis functions: 5
five-body angular degree: 3
six-body radial basis functions: 4
six-body angular degree: 2
seven-body radial basis functions: 0
seven-body angular degree: 0
number of local descriptors per element for one-body potential: 1
number of local descriptors per element for two-body potential: 16
number of local descriptors per element for three-body potential: 144
number of local descriptors per element for four-body potential: 264
number of local descriptors per element for five-body potential: 468
number of local descriptors per element for six-body potential: 387
number of local descriptors per element for seven-body potential: 0
number of local descriptors per element for all potentials: 1280
number of global descriptors: 2560
**************** End of POD Potentials ****************

**************** Begin of Model Coefficients ****************
total number of coefficients for POD potential: 2560
total number of elements for PCA projection matrix: 0
total number of elements for PCA centroids: 0
**************** End of Model Coefficients ****************


variable        u uloop 20
variable i equal part

dump            1 all atom 10 dump.neb.$u
dump            1 all atom 10 dump.neb.3

timestep 0.01
fix             1 all neb 1.0 parallel ideal
min_style       quickmin

neb             0.0 0.01 1000 1000 10 final coords.initial.6
Neighbor list info ...
  update: every = 1 steps, delay = 0 steps, check = no
  max neighbors/atom: 2000, page size: 100000
  master list distance cutoff = 7.5
  ghost atom cutoff = 7.5
  binsize = 3.75, bins = 6 3 5
  1 neighbor lists, perpetual/occasional/extra = 1 0 0
  (1) pair pod, perpetual
      attributes: full, newton on
      pair build: full/bin/atomonly
      stencil: full/bin/3d
      bin: standard
Per MPI rank memory allocation (min/avg/max) = 2.588 | 2.588 | 2.588 Mbytes
   Step          Temp          E_pair         E_mol          TotEng         Press     
         0   0             -711.38987      0             -711.38987      7414.8421    
        65   0.00014556625 -711.94053      0             -711.94052      4659.6112    
Loop time of 1.38143 on 1 procs for 65 steps with 97 atoms

94.1% CPU use with 1 MPI tasks x no OpenMP threads

Minimization stats:
  Stopping criterion = force tolerance
  Energy initial, next-to-last, final = 
     -711.389866226578  -711.940680155398  -711.940525716201
  Force two-norm initial, final = 4.6557425 0.0054908673
  Force max component initial, final = 2.5787829 0.0033482237
  Final line search alpha, max atom move = 0 0
  Iterations, force evaluations = 65 65

MPI task timing breakdown:
Section |  min time  |  avg time  |  max time  |%varavg| %total
---------------------------------------------------------------
Pair    | 0.97318    | 0.97318    | 0.97318    |   0.0 | 70.45
Neigh   | 0.021653   | 0.021653   | 0.021653   |   0.0 |  1.57
Comm    | 0.0015282  | 0.0015282  | 0.0015282  |   0.0 |  0.11
Output  | 0.00070508 | 0.00070508 | 0.00070508 |   0.0 |  0.05
Modify  | 0.34834    | 0.34834    | 0.34834    |   0.0 | 25.22
Other   |            | 0.03603    |            |       |  2.61

Nlocal:             97 ave          97 max          97 min
Histogram: 1 0 0 0 0 0 0 0 0 0
Nghost:            893 ave         893 max         893 min
Histogram: 1 0 0 0 0 0 0 0 0 0
Neighs:              0 ave           0 max           0 min
Histogram: 1 0 0 0 0 0 0 0 0 0
FullNghs:         7290 ave        7290 max        7290 min
Histogram: 1 0 0 0 0 0 0 0 0 0

Total # of neighbors = 7290
Ave neighs/atom = 75.154639
Neighbor list builds = 66
Dangerous builds not checked
Per MPI rank memory allocation (min/avg/max) = 3.592 | 3.592 | 3.592 Mbytes
   Step          Temp          E_pair         E_mol          TotEng         Press     
        65   0             -711.94053      0             -711.94053      4659.6103    
       104   0.00039044365 -712.04861      0             -712.0486       4450.128     
Loop time of 0.842365 on 1 procs for 39 steps with 97 atoms

93.5% CPU use with 1 MPI tasks x no OpenMP threads

Minimization stats:
  Stopping criterion = force tolerance
  Energy initial, next-to-last, final = 
     -711.940525716201  -712.048124005056  -712.048605973444
  Force two-norm initial, final = 0.0042972423 0.0083323394
  Force max component initial, final = 0.0014958131 0.0053498006
  Final line search alpha, max atom move = 0 0
  Iterations, force evaluations = 39 39

MPI task timing breakdown:
Section |  min time  |  avg time  |  max time  |%varavg| %total
---------------------------------------------------------------
Pair    | 0.59564    | 0.59564    | 0.59564    |   0.0 | 70.71
Neigh   | 0.018618   | 0.018618   | 0.018618   |   0.0 |  2.21
Comm    | 0.00098816 | 0.00098816 | 0.00098816 |   0.0 |  0.12
Output  | 0.00053429 | 0.00053429 | 0.00053429 |   0.0 |  0.06
Modify  | 0.22224    | 0.22224    | 0.22224    |   0.0 | 26.38
Other   |            | 0.004348   |            |       |  0.52

Nlocal:             97 ave          97 max          97 min
Histogram: 1 0 0 0 0 0 0 0 0 0
Nghost:            893 ave         893 max         893 min
Histogram: 1 0 0 0 0 0 0 0 0 0
Neighs:              0 ave           0 max           0 min
Histogram: 1 0 0 0 0 0 0 0 0 0
FullNghs:         7296 ave        7296 max        7296 min
Histogram: 1 0 0 0 0 0 0 0 0 0

Total # of neighbors = 7296
Ave neighs/atom = 75.216495
Neighbor list builds = 40
Dangerous builds not checked

CITE-CITE-CITE-CITE-CITE-CITE-CITE-CITE-CITE-CITE-CITE-CITE-CITE

Your simulation uses code contributions which should be cited:

- Type Label Framework: https://doi.org/10.1021/acs.jpcb.3c08419

@Article{Gissinger24,
 author = {Jacob R. Gissinger, Ilia Nikiforov, Yaser Afshar, Brendon Waters, Moon-ki Choi, Daniel S. Karls, Alexander Stukowski, Wonpil Im, Hendrik Heinz, Axel Kohlmeyer, and Ellad B. Tadmor},
 title = {Type Label Framework for Bonded Force Fields in LAMMPS},
 journal = {J. Phys. Chem. B},
 year =    2024,
 volume =  128,
 number =  13,
 pages =   {3282–-3297}
}

CITE-CITE-CITE-CITE-CITE-CITE-CITE-CITE-CITE-CITE-CITE-CITE-CITE

Total wall time: 0:00:02
