LAMMPS (29 Aug 2024)
Running on 7 partitions of processors
Reading NEB coordinate file(s) ...
Setting up regular NEB ...
    Step     MaxReplicaForce  MaxAtomForce      GradV0         GradV1         GradVc          EBF            EBR            RDT            RD1            PE1            RD2            PE2            RD3            PE3            RD4            PE4            RD5            PE5            RD6            PE6            RD7            PE7       
         0   5.2789434        9.0613667      3.4407571e-05  3.3180293e-05  5.2791103      2.8074783      2.0496122      2.294919       0              -713.49497     0.16666667     -712.81717     0.33333333     -711.38987     0.5            -710.68749     0.66666667     -711.22314     0.83333333     -712.19164     1              -712.7371      
        10   0.28111364       0.011762887    3.1015313e-06  2.503551e-06   0.28931471     2.0458836      1.2880175      2.5578596      0              -713.49497     0.16615533     -713.06656     0.33023238     -711.99639     0.49173072     -711.44908     0.65147589     -711.90402     0.82475325     -712.52061     1              -712.7371      
        20   0.13286581       0.0053481573   5.5701561e-07  3.2295215e-07  0.2725813      2.0146848      1.2568187      2.6546707      0              -713.49497     0.16409655     -713.07068     0.32799873     -711.99305     0.49067137     -711.48028     0.65241022     -711.98241     0.82531187     -712.55314     1              -712.7371      
        30   0.067770151      0.00094498718  8.4555455e-08  3.4778542e-08  0.40117528     2.0003136      1.2424475      2.724293       0              -713.49497     0.16506613     -713.06038     0.32948873     -711.96715     0.49382131     -711.49465     0.65800498     -712.03922     0.82807055     -712.57302     1              -712.7371      
        40   0.040710659      0.00039959629  3.4294688e-08  1.0476301e-08  0.46074833     1.9956068      1.2377407      2.7418359      0              -713.49497     0.16564461     -713.05563     0.33070435     -711.95409     0.49583395     -711.49936     0.66106337     -712.05902     0.82979536     -712.57968     1              -712.7371      
        50   0.023326326      0.00021104829  2.1067837e-08  4.933562e-09   0.48766765     1.9934618      1.2355957      2.747727       0              -713.49497     0.16590885     -713.05349     0.33133867     -711.94807     0.49686177     -711.5015      0.662543       -712.06748     0.8306795      -712.58252     1              -712.7371      
        60   0.017614916      0.00010355086  1.1884495e-08  1.833397e-09   0.51282726     1.9914007      1.2335346      2.7520329      0              -713.49497     0.1661577      -713.05148     0.33197805     -711.94237     0.49789054     -711.50356     0.6639656      -712.07509     0.83156574     -712.58511     1              -712.7371      
        65   0.0082265445     3.3021691e-05  9.4341458e-09  1.2050538e-09  0.52087438     1.9907266      1.2328605      2.7531327      0              -713.49497     0.166238       -713.05083     0.33219338     -711.94053     0.4982351      -711.50424     0.66443006     -712.07747     0.83186224     -712.58592     1              -712.7371      
Setting up climbing ...
Climbing replica = 4
    Step     MaxReplicaForce  MaxAtomForce      GradV0         GradV1         GradVc          EBF            EBR            RDT            RD1            PE1            RD2            PE2            RD3            PE3            RD4            PE4            RD5            PE5            RD6            PE6            RD7            PE7       
        65   0.52087438       0.11938987     9.4341426e-09  1.2050613e-09  0.52087438     1.9907266      1.2328605      2.7531327      0              -713.49497     0.166238       -713.05083     0.33219338     -711.94053     0.4982351      -711.50424     0.66443006     -712.07747     0.83186224     -712.58592     1              -712.7371      
        75   0.035165209      0.0007315978   4.7999376e-09  3.2723656e-10  0.010221294    2.0117173      1.2538512      2.7524746      0              -713.49497     0.16282904     -713.0752      0.32544086     -711.99309     0.47145678     -711.48325     0.65807918     -712.04613     0.82862269     -712.57839     1              -712.7371      
        85   0.03401279       0.000679593    3.1760566e-09  1.4864266e-10  0.005184261    2.0116944      1.2538283      2.7535516      0              -713.49497     0.1610696      -713.08725     0.32162478     -712.01939     0.47182417     -711.48327     0.65437007     -712.03049     0.82699382     -712.57458     1              -712.7371      
        95   0.049260251      0.0008221966   1.5719196e-09  4.0997268e-11  0.0021949433   2.0116853      1.2538192      2.7549905      0              -713.49497     0.15924739     -713.09925     0.31794702     -712.04462     0.47201501     -711.48328     0.65086242     -712.01605     0.82538549     -712.57096     1              -712.7371      
       104   0.0083323394     3.1172604e-05  1.3080844e-09  2.9856848e-11  0.0017834176   2.0116845      1.2538184      2.7552277      0              -713.49497     0.15893961     -713.10124     0.31736789     -712.04861     0.47203975     -711.48328     0.65033148     -712.0139      0.82513284     -712.57039     1              -712.7371      
