LAMMPS (29 Aug 2024)
Processor partition = 3
Reading data file ...
  triclinic box = (0 0 0) to (12.880619 11.154943 15.046356) with tilt (-6.4403078 0 0)
WARNING: Triclinic box skew is large. LAMMPS will run inefficiently. (src/domain.cpp:221)
  1 by 1 by 1 MPI processor grid
  reading atoms ...
  97 atoms
  read_data CPU = 0.003 seconds
**************** Begin of POD Potentials ****************
species: Hf O 
periodic boundary conditions: 1 1 1
number of environment clusters: 1
number of principal compoments: 2
inner cut-off radius: 1.2
outer cut-off radius: 5.5
bessel polynomial degree: 4
inverse polynomial degree: 10
one-body potential: 1
two-body radial basis functions: 8
three-body radial basis functions: 8
three-body angular degree: 5
four-body radial basis functions: 6
four-body angular degree: 4
five-body radial basis functions: 5
five-body angular degree: 3
six-body radial basis functions: 4
six-body angular degree: 2
seven-body radial basis functions: 0
seven-body angular degree: 0
number of local descriptors per element for one-body potential: 1
number of local descriptors per element for two-body potential: 16
number of local descriptors per element for three-body potential: 144
number of local descriptors per element for four-body potential: 264
number of local descriptors per element for five-body potential: 468
number of local descriptors per element for six-body potential: 387
number of local descriptors per element for seven-body potential: 0
number of local descriptors per element for all potentials: 1280
number of global descriptors: 2560
**************** End of POD Potentials ****************

**************** Begin of Model Coefficients ****************
total number of coefficients for POD potential: 2560
total number of elements for PCA projection matrix: 0
total number of elements for PCA centroids: 0
**************** End of Model Coefficients ****************

Neighbor list info ...
  update: every = 1 steps, delay = 0 steps, check = no
  max neighbors/atom: 2000, page size: 100000
  master list distance cutoff = 7.5
  ghost atom cutoff = 7.5
  binsize = 3.75, bins = 6 3 5
  1 neighbor lists, perpetual/occasional/extra = 1 0 0
  (1) pair pod, perpetual
      attributes: full, newton on
      pair build: full/bin/atomonly
      stencil: full/bin/3d
      bin: standard
Setting up quickmin style minimization ...
  Unit style    : metal
  Current step  : 0
Per MPI rank memory allocation (min/avg/max) = 2.588 | 2.588 | 2.588 Mbytes
   Step          Temp          E_pair         E_mol          TotEng         Press     
         0   0             -710.68749      0             -710.68749      9053.3193    
        65   0.00026685205 -711.50424      0             -711.50424      5329.7159    
Loop time of 1.38149 on 1 procs for 65 steps with 97 atoms

94.4% CPU use with 1 MPI tasks x no OpenMP threads

Minimization stats:
  Stopping criterion = force tolerance
  Energy initial, next-to-last, final = 
     -710.687487264862  -711.504182308436  -711.504238994926
  Force two-norm initial, final = 5.2789434 0.0075126077
  Force max component initial, final = 3.0102104 0.0057464503
  Final line search alpha, max atom move = 0 0
  Iterations, force evaluations = 65 65

MPI task timing breakdown:
Section |  min time  |  avg time  |  max time  |%varavg| %total
---------------------------------------------------------------
Pair    | 0.98775    | 0.98775    | 0.98775    |   0.0 | 71.50
Neigh   | 0.02119    | 0.02119    | 0.02119    |   0.0 |  1.53
Comm    | 0.0017352  | 0.0017352  | 0.0017352  |   0.0 |  0.13
Output  | 0.00085662 | 0.00085662 | 0.00085662 |   0.0 |  0.06
Modify  | 0.33606    | 0.33606    | 0.33606    |   0.0 | 24.33
Other   |            | 0.0339     |            |       |  2.45

Nlocal:             97 ave          97 max          97 min
Histogram: 1 0 0 0 0 0 0 0 0 0
Nghost:            893 ave         893 max         893 min
Histogram: 1 0 0 0 0 0 0 0 0 0
Neighs:              0 ave           0 max           0 min
Histogram: 1 0 0 0 0 0 0 0 0 0
FullNghs:         7292 ave        7292 max        7292 min
Histogram: 1 0 0 0 0 0 0 0 0 0

Total # of neighbors = 7292
Ave neighs/atom = 75.175258
Neighbor list builds = 66
Dangerous builds not checked
Setting up quickmin style minimization ...
  Unit style    : metal
  Current step  : 65
Per MPI rank memory allocation (min/avg/max) = 3.592 | 3.592 | 3.592 Mbytes
   Step          Temp          E_pair         E_mol          TotEng         Press     
        65   0             -711.50424      0             -711.50424      5329.7143    
       104   2.222906e-05  -711.48328      0             -711.48328      5426.9448    
Loop time of 0.842363 on 1 procs for 39 steps with 97 atoms

94.2% CPU use with 1 MPI tasks x no OpenMP threads

Minimization stats:
  Stopping criterion = force tolerance
  Energy initial, next-to-last, final = 
     -711.504238994926  -711.483280966249  -711.483281048181
  Force two-norm initial, final = 0.52087438 0.0017834176
  Force max component initial, final = 0.3455284 0.00038341376
  Final line search alpha, max atom move = 0 0
  Iterations, force evaluations = 39 39

MPI task timing breakdown:
Section |  min time  |  avg time  |  max time  |%varavg| %total
---------------------------------------------------------------
Pair    | 0.59875    | 0.59875    | 0.59875    |   0.0 | 71.08
Neigh   | 0.012793   | 0.012793   | 0.012793   |   0.0 |  1.52
Comm    | 0.00087021 | 0.00087021 | 0.00087021 |   0.0 |  0.10
Output  | 0.00040533 | 0.00040533 | 0.00040533 |   0.0 |  0.05
Modify  | 0.22509    | 0.22509    | 0.22509    |   0.0 | 26.72
Other   |            | 0.004453   |            |       |  0.53

Nlocal:             97 ave          97 max          97 min
Histogram: 1 0 0 0 0 0 0 0 0 0
Nghost:            893 ave         893 max         893 min
Histogram: 1 0 0 0 0 0 0 0 0 0
Neighs:              0 ave           0 max           0 min
Histogram: 1 0 0 0 0 0 0 0 0 0
FullNghs:         7288 ave        7288 max        7288 min
Histogram: 1 0 0 0 0 0 0 0 0 0

Total # of neighbors = 7288
Ave neighs/atom = 75.134021
Neighbor list builds = 40
Dangerous builds not checked

CITE-CITE-CITE-CITE-CITE-CITE-CITE-CITE-CITE-CITE-CITE-CITE-CITE

Your simulation uses code contributions which should be cited:
- Type Label Framework: https://doi.org/10.1021/acs.jpcb.3c08419
The log file lists these citations in BibTeX format.

CITE-CITE-CITE-CITE-CITE-CITE-CITE-CITE-CITE-CITE-CITE-CITE-CITE

Total wall time: 0:00:02
