LAMMPS (29 Aug 2024)
Processor partition = 4
Reading data file ...
  triclinic box = (0 0 0) to (12.880619 11.154943 15.046356) with tilt (-6.4403078 0 0)
WARNING: Triclinic box skew is large. LAMMPS will run inefficiently. (src/domain.cpp:221)
  1 by 1 by 1 MPI processor grid
  reading atoms ...
  97 atoms
  read_data CPU = 0.003 seconds
**************** Begin of POD Potentials ****************
species: Hf O 
periodic boundary conditions: 1 1 1
number of environment clusters: 1
number of principal compoments: 2
inner cut-off radius: 1.2
outer cut-off radius: 5.5
bessel polynomial degree: 4
inverse polynomial degree: 10
one-body potential: 1
two-body radial basis functions: 8
three-body radial basis functions: 8
three-body angular degree: 5
four-body radial basis functions: 6
four-body angular degree: 4
five-body radial basis functions: 5
five-body angular degree: 3
six-body radial basis functions: 4
six-body angular degree: 2
seven-body radial basis functions: 0
seven-body angular degree: 0
number of local descriptors per element for one-body potential: 1
number of local descriptors per element for two-body potential: 16
number of local descriptors per element for three-body potential: 144
number of local descriptors per element for four-body potential: 264
number of local descriptors per element for five-body potential: 468
number of local descriptors per element for six-body potential: 387
number of local descriptors per element for seven-body potential: 0
number of local descriptors per element for all potentials: 1280
number of global descriptors: 2560
**************** End of POD Potentials ****************

**************** Begin of Model Coefficients ****************
total number of coefficients for POD potential: 2560
total number of elements for PCA projection matrix: 0
total number of elements for PCA centroids: 0
**************** End of Model Coefficients ****************

Neighbor list info ...
  update: every = 1 steps, delay = 0 steps, check = no
  max neighbors/atom: 2000, page size: 100000
  master list distance cutoff = 7.5
  ghost atom cutoff = 7.5
  binsize = 3.75, bins = 6 3 5
  1 neighbor lists, perpetual/occasional/extra = 1 0 0
  (1) pair pod, perpetual
      attributes: full, newton on
      pair build: full/bin/atomonly
      stencil: full/bin/3d
      bin: standard
Setting up quickmin style minimization ...
  Unit style    : metal
  Current step  : 0
Per MPI rank memory allocation (min/avg/max) = 2.588 | 2.588 | 2.588 Mbytes
   Step          Temp          E_pair         E_mol          TotEng         Press     
         0   0             -711.22314      0             -711.22314      8368.2907    
        65   0.00070301239 -712.07747      0             -712.07746      4901.051     
Loop time of 1.38146 on 1 procs for 65 steps with 97 atoms

94.2% CPU use with 1 MPI tasks x no OpenMP threads

Minimization stats:
  Stopping criterion = force tolerance
  Energy initial, next-to-last, final = 
     -711.223141632151  -712.077271106803  -712.077469576418
  Force two-norm initial, final = 4.3592267 0.0082265445
  Force max component initial, final = 2.4642687 0.004633017
  Final line search alpha, max atom move = 0 0
  Iterations, force evaluations = 65 65

MPI task timing breakdown:
Section |  min time  |  avg time  |  max time  |%varavg| %total
---------------------------------------------------------------
Pair    | 0.98385    | 0.98385    | 0.98385    |   0.0 | 71.22
Neigh   | 0.024291   | 0.024291   | 0.024291   |   0.0 |  1.76
Comm    | 0.0015447  | 0.0015447  | 0.0015447  |   0.0 |  0.11
Output  | 0.00062883 | 0.00062883 | 0.00062883 |   0.0 |  0.05
Modify  | 0.33755    | 0.33755    | 0.33755    |   0.0 | 24.43
Other   |            | 0.0336     |            |       |  2.43

Nlocal:             97 ave          97 max          97 min
Histogram: 1 0 0 0 0 0 0 0 0 0
Nghost:            893 ave         893 max         893 min
Histogram: 1 0 0 0 0 0 0 0 0 0
Neighs:              0 ave           0 max           0 min
Histogram: 1 0 0 0 0 0 0 0 0 0
FullNghs:         7318 ave        7318 max        7318 min
Histogram: 1 0 0 0 0 0 0 0 0 0

Total # of neighbors = 7318
Ave neighs/atom = 75.443299
Neighbor list builds = 66
Dangerous builds not checked
Setting up quickmin style minimization ...
  Unit style    : metal
  Current step  : 65
Per MPI rank memory allocation (min/avg/max) = 3.592 | 3.592 | 3.592 Mbytes
   Step          Temp          E_pair         E_mol          TotEng         Press     
        65   0             -712.07747      0             -712.07747      4901.0467    
       104   0.00078752551 -712.0139       0             -712.01389      4888.2153    
Loop time of 0.842367 on 1 procs for 39 steps with 97 atoms

92.9% CPU use with 1 MPI tasks x no OpenMP threads

Minimization stats:
  Stopping criterion = force tolerance
  Energy initial, next-to-last, final = 
     -712.077469576417  -712.014159929536  -712.013898244348
  Force two-norm initial, final = 0.0057242406 0.0075703878
  Force max component initial, final = 0.0028701426 0.0055832431
  Final line search alpha, max atom move = 0 0
  Iterations, force evaluations = 39 39

MPI task timing breakdown:
Section |  min time  |  avg time  |  max time  |%varavg| %total
---------------------------------------------------------------
Pair    | 0.60332    | 0.60332    | 0.60332    |   0.0 | 71.62
Neigh   | 0.015437   | 0.015437   | 0.015437   |   0.0 |  1.83
Comm    | 0.0010412  | 0.0010412  | 0.0010412  |   0.0 |  0.12
Output  | 0.00047463 | 0.00047463 | 0.00047463 |   0.0 |  0.06
Modify  | 0.21889    | 0.21889    | 0.21889    |   0.0 | 25.98
Other   |            | 0.003203   |            |       |  0.38

Nlocal:             97 ave          97 max          97 min
Histogram: 1 0 0 0 0 0 0 0 0 0
Nghost:            893 ave         893 max         893 min
Histogram: 1 0 0 0 0 0 0 0 0 0
Neighs:              0 ave           0 max           0 min
Histogram: 1 0 0 0 0 0 0 0 0 0
FullNghs:         7316 ave        7316 max        7316 min
Histogram: 1 0 0 0 0 0 0 0 0 0

Total # of neighbors = 7316
Ave neighs/atom = 75.42268
Neighbor list builds = 40
Dangerous builds not checked

CITE-CITE-CITE-CITE-CITE-CITE-CITE-CITE-CITE-CITE-CITE-CITE-CITE

Your simulation uses code contributions which should be cited:
- Type Label Framework: https://doi.org/10.1021/acs.jpcb.3c08419
The log file lists these citations in BibTeX format.

CITE-CITE-CITE-CITE-CITE-CITE-CITE-CITE-CITE-CITE-CITE-CITE-CITE

Total wall time: 0:00:02
