LAMMPS (27 Jun 2024)
Reading data file ...
  orthogonal box = (0 0 0) to (48.302314 50.197237 45.139088)
  2 by 2 by 1 MPI processor grid
  reading atoms ...
  4861 atoms
  read_data CPU = 0.012 seconds
**************** Begin of POD Potentials ****************
species: Hf O 
periodic boundary conditions: 1 1 1
number of environment clusters: 1
number of principal compoments: 2
inner cut-off radius: 1.2
outer cut-off radius: 5.5
bessel polynomial degree: 4
inverse polynomial degree: 10
one-body potential: 1
two-body radial basis functions: 8
three-body radial basis functions: 8
three-body angular degree: 5
four-body radial basis functions: 6
four-body angular degree: 4
five-body radial basis functions: 5
five-body angular degree: 3
six-body radial basis functions: 4
six-body angular degree: 2
seven-body radial basis functions: 0
seven-body angular degree: 0
number of local descriptors per element for one-body potential: 1
number of local descriptors per element for two-body potential: 16
number of local descriptors per element for three-body potential: 144
number of local descriptors per element for four-body potential: 264
number of local descriptors per element for five-body potential: 468
number of local descriptors per element for six-body potential: 387
number of local descriptors per element for seven-body potential: 0
number of local descriptors per element for all potentials: 1280
number of global descriptors: 2560
**************** End of POD Potentials ****************

**************** Begin of Model Coefficients ****************
total number of coefficients for POD potential: 2560
total number of elements for PCA projection matrix: 0
total number of elements for PCA centroids: 0
**************** End of Model Coefficients ****************


CITE-CITE-CITE-CITE-CITE-CITE-CITE-CITE-CITE-CITE-CITE-CITE-CITE

Your simulation uses code contributions which should be cited:
- Type Label Framework: https://doi.org/10.1021/acs.jpcb.3c08419
The log file lists these citations in BibTeX format.

CITE-CITE-CITE-CITE-CITE-CITE-CITE-CITE-CITE-CITE-CITE-CITE-CITE

Neighbor list info ...
  update: every = 1 steps, delay = 0 steps, check = no
  max neighbors/atom: 2000, page size: 100000
  master list distance cutoff = 7.5
  ghost atom cutoff = 7.5
  binsize = 3.75, bins = 13 14 13
  1 neighbor lists, perpetual/occasional/extra = 1 0 0
  (1) pair pod, perpetual
      attributes: full, newton on
      pair build: full/bin/atomonly
      stencil: full/bin/3d
      bin: standard
Setting up Verlet run ...
  Unit style    : metal
  Current step  : 0
  Time step     : 0.001
Per MPI rank memory allocation (min/avg/max) = 2.689 | 2.689 | 2.689 Mbytes
   Step          Temp          TotEng         PotEng         KinEng         Press          Volume    
         0   1500          -34666.329     -35608.636      942.30646      9249.0517      109446.16    
       100   506.30211     -34628.771     -34946.832      318.06117      20262.565      109446.16    
       200   824.46407     -34522.189     -35040.121      517.93188      22094.279      109446.16    
       300   931.35322     -34389.138     -34974.218      585.0801       23646.103      109446.16    
       400   1032.4089     -34247.314     -34895.877      648.56372      25584.291      109446.16    
       500   1261.185      -34095.372     -34887.653      792.28187      27608.506      109446.16    
       600   1310.2056     -33945.886     -34768.962      823.07678      30843.249      109446.16    
       700   1382.5152     -33803.538     -34672.04       868.50199      34094.395      109446.16    
       800   1501.1479     -33686.294     -34629.321      943.02759      35929.06       109446.16    
       900   1525.8397     -33618.375     -34576.914      958.53907      37254.328      109446.16    
      1000   1566.3963     -33602.837     -34586.854      984.01692      37013.024      109446.16    
      1100   1524.9582     -33645.331     -34603.316      957.98529      36467.233      109446.16    
      1200   1486.7397     -33703.214     -34637.191      933.97629      35662.403      109446.16    
      1300   1447.6408     -33741.721     -34651.135      909.41421      35009.638      109446.16    
      1400   1468.1961     -33731.552     -34653.879      922.3271       35072.677      109446.16    
      1500   1505.5135     -33688.984     -34634.754      945.77004      35504.425      109446.16    
      1600   1519.5912     -33648.575     -34603.189      954.61371      36701.225      109446.16    
      1700   1546.4615     -33634.558     -34606.052      971.49378      36799.952      109446.16    
      1800   1513.4908     -33659.95      -34610.731      950.78141      36329.055      109446.16    
      1900   1506.5011     -33694.388     -34640.778      946.39048      35889.122      109446.16    
      2000   1456.1436     -33730.584     -34645.34       914.7557       35306.517      109446.16    
      2100   1475.4246     -33728.829     -34655.697      926.86807      35187.855      109446.16    
      2200   1462.7115     -33699.272     -34618.153      918.88167      35928.155      109446.16    
      2300   1539.2646     -33648.123     -34615.095      966.97264      36099.711      109446.16    
      2400   1544.9453     -33629.276     -34599.817      970.5413       36828.95       109446.16    
      2500   1490.3082     -33656.222     -34592.44       936.21802      36470.603      109446.16    
      2600   1490.1516     -33688.498     -34624.618      936.11964      35865.167      109446.16    
      2700   1474.7102     -33713.83      -34640.25       926.4193       35550.631      109446.16    
      2800   1481.8242     -33714.853     -34645.741      930.88837      35193.964      109446.16    
      2900   1480.2186     -33695.585     -34625.465      929.87969      35705.972      109446.16    
      3000   1530.089      -33662.202     -34623.41       961.20851      35981.074      109446.16    
      3100   1540.6292     -33651.077     -34618.907      967.82989      36374.804      109446.16    
      3200   1497.7176     -33669.381     -34610.254      940.87263      36302.173      109446.16    
      3300   1503.3995     -33686.831     -34631.273      944.44203      35838.195      109446.16    
      3400   1473.3773     -33705.005     -34630.587      925.58196      35974.729      109446.16    
      3500   1473.7848     -33708.648     -34634.486      925.83794      35606.408      109446.16    
      3600   1482.3688     -33692.904     -34624.135      931.23047      36006.24       109446.16    
      3700   1540.211      -33664.117     -34631.684      967.5672       36155.958      109446.16    
      3800   1511.4088     -33662.553     -34612.027      949.47354      36295.973      109446.16    
      3900   1479.8914     -33674.875     -34604.549      929.67414      36761.16       109446.16    
      4000   1505.9531     -33678.957     -34625.003      946.0462       35669.649      109446.16    
      4100   1505.7793     -33680.861     -34626.798      945.93707      35897.415      109446.16    
      4200   1515.6422     -33683.092     -34635.225      952.13294      35574.729      109446.16    
      4300   1499.247      -33687.402     -34629.235      941.83339      35826.019      109446.16    
      4400   1503.1511     -33692.3       -34636.586      944.28597      35579.092      109446.16    
      4500   1487.398      -33694.377     -34628.767      934.38984      35751.861      109446.16    
      4600   1504.0054     -33681.769     -34626.592      944.82264      35950.056      109446.16    
      4700   1506.8871     -33669.243     -34615.876      946.63295      36300.038      109446.16    
      4800   1519.3136     -33664.696     -34619.136      954.43933      36263.08       109446.16    
      4900   1501.6445     -33681.239     -34624.579      943.33954      35679.166      109446.16    
      5000   1495.305      -33694.517     -34633.874      939.35705      35657.485      109446.16    
      5100   1501.4524     -33696.461     -34639.68       943.21885      35809.737      109446.16    
      5200   1475.8417     -33695.708     -34622.838      927.13009      35908.381      109446.16    
      5300   1481.737      -33685.383     -34616.216      930.83353      36099.896      109446.16    
      5400   1519.7185     -33667.399     -34622.092      954.69369      36239.452      109446.16    
      5500   1512.1176     -33663.377     -34613.296      949.91879      36340.392      109446.16    
      5600   1513.6198     -33670.863     -34621.725      950.86247      36019.018      109446.16    
      5700   1496.9977     -33687.363     -34627.783      940.42042      35841.02       109446.16    
      5800   1461.1417     -33704.639     -34622.535      917.89552      35796.705      109446.16    
      5900   1487.6447     -33700.134     -34634.679      934.54478      35620.353      109446.16    
      6000   1497.8966     -33678.903     -34619.888      940.98508      36144.59       109446.16    
      6100   1531.513      -33656.352     -34618.455      962.10308      36468.2        109446.16    
      6200   1504.7051     -33659.301     -34604.563      945.2622       36561.608      109446.16    
      6300   1519.1936     -33670.107     -34624.471      954.36396      36367.799      109446.16    
      6400   1510.8478     -33689.794     -34638.915      949.12109      35782.253      109446.16    
      6500   1488.2289     -33708.983     -34643.894      934.91178      35464.093      109446.16    
      6600   1480.6772     -33706.952     -34637.12       930.16778      35662.37       109446.16    
      6700   1492.5211     -33685.079     -34622.687      937.60815      36030.784      109446.16    
      6800   1529.5035     -33664.048     -34624.888      960.84069      36302.16       109446.16    
      6900   1499.9444     -33663.829     -34606.101      942.27154      36048.92       109446.16    
      7000   1506.3835     -33667.566     -34613.882      946.31657      36366.27       109446.16    
      7100   1493.8692     -33681.911     -34620.366      938.45508      36032.372      109446.16    
      7200   1504.6953     -33698.656     -34643.912      945.25605      35604.601      109446.16    
      7300   1455.6595     -33711.732     -34626.183      914.45158      35462.717      109446.16    
      7400   1508.4978     -33689.571     -34637.216      947.64479      35594.427      109446.16    
      7500   1497.9767     -33664.18      -34605.215      941.03539      36309.442      109446.16    
      7600   1523.3638     -33649.219     -34606.203      956.98369      36481.25       109446.16    
      7700   1513.8195     -33669.741     -34620.729      950.98795      36226.235      109446.16    
      7800   1488.8389     -33694.022     -34629.317      935.29503      35540.922      109446.16    
      7900   1492.1897     -33699.454     -34636.854      937.39996      35532.031      109446.16    
      8000   1486.7708     -33690.006     -34624.002      933.99579      36132.29       109446.16    
      8100   1497.9455     -33678.055     -34619.071      941.0158       36051.425      109446.16    
      8200   1463.1278     -33676.386     -34595.529      919.14319      36562.489      109446.16    
      8300   1525.3224     -33662.391     -34620.605      958.21412      36188.556      109446.16    
      8400   1492.611      -33676.622     -34614.287      937.66467      35917.426      109446.16    
      8500   1516.305      -33690.051     -34642.6        952.5493       35666.601      109446.16    
      8600   1462.0546     -33710.675     -34629.144      918.46899      35560.627      109446.16    
      8700   1492.0599     -33707.918     -34645.237      937.31845      35264.321      109446.16    
      8800   1507.9936     -33675.387     -34622.715      947.32809      36192.867      109446.16    
      8900   1497.865      -33667.393     -34608.358      940.96527      36321.204      109446.16    
      9000   1536.1745     -33659.769     -34624.8        965.03142      36213.83       109446.16    
      9100   1471.3029     -33681.483     -34605.762      924.2788       35930.166      109446.16    
      9200   1487.6306     -33690.279     -34624.815      934.53595      35772.149      109446.16    
      9300   1498.9466     -33687.13      -34628.775      941.6447       35750.09       109446.16    
      9400   1509.2342     -33686.507     -34634.615      948.10744      35751.411      109446.16    
      9500   1483.332      -33708.574     -34640.41       931.83558      35387.679      109446.16    
      9600   1485.5703     -33714.765     -34648.007      933.24163      35315.004      109446.16    
      9700   1485.2845     -33698.365     -34631.427      933.0621       35963.877      109446.16    
      9800   1484.7899     -33680.333     -34613.084      932.75139      36032.23       109446.16    
      9900   1520.9089     -33667.96      -34623.402      955.44152      36089.424      109446.16    
     10000   1509.9413     -33672.46      -34621.011      948.5516       36163.8        109446.16    
     10100   1485.3296     -33682.028     -34615.118      933.09045      35934.74       109446.16    
     10200   1508.8142     -33677.31      -34625.154      947.84357      35861.506      109446.16    
     10300   1487.6963     -33680.168     -34614.745      934.57725      36040.34       109446.16    
     10400   1525.2663     -33676.4       -34634.579      958.17884      35841.324      109446.16    
     10500   1507.1636     -33685.04      -34631.846      946.80663      35796.67       109446.16    
     10600   1458.2063     -33704.201     -34620.253      916.05149      35754.276      109446.16    
     10700   1481.4306     -33698.856     -34629.497      930.64111      35692.081      109446.16    
     10800   1506.5685     -33671.572     -34618.005      946.43282      36183.121      109446.16    
     10900   1522.3701     -33659.046     -34615.406      956.35948      36248.554      109446.16    
     11000   1493.9976     -33663.868     -34602.404      938.53571      36489.085      109446.16    
     11100   1510.2709     -33674.019     -34622.778      948.75871      35887.864      109446.16    
     11200   1511.6286     -33691.689     -34641.3        949.6116       35590.099      109446.16    
     11300   1486.176      -33698.217     -34631.839      933.62215      35253.144      109446.16    
     11400   1504.1393     -33684.586     -34629.493      944.90679      35687.316      109446.16    
     11500   1515.5552     -33678.471     -34630.549      952.07833      35845.637      109446.16    
     11600   1472.959      -33689.482     -34614.801      925.31921      36271.215      109446.16    
     11700   1492.5736     -33692.752     -34630.393      937.64116      35662.873      109446.16    
     11800   1517.3069     -33692.767     -34645.945      953.1787       35353.653      109446.16    
     11900   1493.8897     -33689.21      -34627.678      938.46797      35661.288      109446.16    
     12000   1496.6494     -33672.046     -34612.247      940.20161      35969.845      109446.16    
     12100   1544.0375     -33653.482     -34623.453      969.97103      36324.513      109446.16    
     12200   1494.5268     -33665.719     -34604.587      938.86818      36480.779      109446.16    
     12300   1514.5536     -33676.401     -34627.85       951.44909      36043.586      109446.16    
     12400   1503.9471     -33689.762     -34634.548      944.78607      35688.944      109446.16    
     12500   1463.4987     -33690.948     -34610.324      919.37621      35996.106      109446.16    
     12600   1489.0729     -33681.662     -34617.104      935.44202      36114.4        109446.16    
     12700   1481.4733     -33677.704     -34608.372      930.66793      36178.091      109446.16    
     12800   1509.686      -33665.68      -34614.072      948.39123      36423.508      109446.16    
     12900   1538.228      -33652.482     -34618.804      966.32144      36288.867      109446.16    
     13000   1521.4298     -33659.868     -34615.637      955.76872      36022.881      109446.16    
     13100   1484.3736     -33685.5       -34617.99       932.48988      35949.757      109446.16    
     13200   1499.3357     -33690.029     -34631.918      941.88911      35560.26       109446.16    
     13300   1490.2352     -33689.057     -34625.23       936.17215      35819.375      109446.16    
     13400   1525.583      -33669.04      -34627.417      958.37782      36209.234      109446.16    
     13500   1513.5496     -33650.991     -34601.809      950.81838      36765.786      109446.16    
     13600   1548.4174     -33637.501     -34610.223      972.72248      36863.179      109446.16    
     13700   1498.6905     -33669.137     -34610.621      941.48383      36303.844      109446.16    
     13800   1495.8435     -33686.693     -34626.388      939.69532      35913.431      109446.16    
     13900   1476.9746     -33698.756     -34626.598      927.84183      35680.037      109446.16    
     14000   1488.0454     -33691.992     -34626.788      934.79651      35615.721      109446.16    
     14100   1518.3659     -33668.911     -34622.755      953.84398      36122.862      109446.16    
     14200   1512.9069     -33662.861     -34613.276      950.41463      36390.61       109446.16    
     14300   1523.1492     -33662.874     -34619.723      956.8489       36232.336      109446.16    
     14400   1503.4254     -33675.002     -34619.461      944.45834      36088.014      109446.16    
     14500   1509.4924     -33683.832     -34632.101      948.2696       35700.604      109446.16    
     14600   1498.5689     -33690.809     -34632.217      941.40745      35778.721      109446.16    
     14700   1477.1021     -33691.864     -34619.785      927.9219       36131.155      109446.16    
     14800   1560.1602     -33667.143     -34647.242      980.09936      35697.553      109446.16    
     14900   1518.0475     -33665.414     -34619.058      953.64398      36074.548      109446.16    
     15000   1498.0116     -33671.378     -34612.435      941.05737      36515.946      109446.16    
     15100   1525.7091     -33678.921     -34637.378      958.457        36080.49       109446.16    
     15200   1477.1588     -33690.75      -34618.707      927.95752      35712.63       109446.16    
     15300   1489.7906     -33685.427     -34621.32       935.89289      36116.818      109446.16    
     15400   1502.6071     -33672.408     -34616.353      943.94422      36211.188      109446.16    
     15500   1527.7485     -33645.319     -34605.057      959.73817      36606.171      109446.16    
     15600   1511.1952     -33651.844     -34601.183      949.33934      36814.756      109446.16    
     15700   1498.1842     -33676.76      -34617.926      941.16575      35879.397      109446.16    
     15800   1509.5875     -33687.83      -34636.159      948.32935      35552.641      109446.16    
     15900   1487.6346     -33690.453     -34624.992      934.53846      35665.053      109446.16    
     16000   1505.0415     -33677.317     -34622.79       945.47354      36125.4        109446.16    
     16100   1534.3685     -33660.586     -34624.483      963.89693      36256.48       109446.16    
     16200   1499.3434     -33660.835     -34602.729      941.894        36385.245      109446.16    
     16300   1502.9295     -33685.15      -34629.297      944.14679      36036.729      109446.16    
     16400   1481.8262     -33701.502     -34632.391      930.88958      35333.37       109446.16    
     16500   1526.253      -33688.484     -34647.283      958.79869      35657.261      109446.16    
     16600   1498.6666     -33684.767     -34626.235      941.46879      36222.75       109446.16    
     16700   1488.2036     -33684.472     -34619.368      934.89593      35957.207      109446.16    
     16800   1512.5878     -33665.49      -34615.704      950.21416      36245.478      109446.16    
     16900   1517.2881     -33656.341     -34609.508      953.16693      36454.701      109446.16    
     17000   1487.4572     -33676.347     -34610.774      934.42699      36325.707      109446.16    
     17100   1516.2636     -33685.268     -34637.791      952.52331      35595.241      109446.16    
     17200   1492.6656     -33689.885     -34627.584      937.69893      35865.964      109446.16    
     17300   1483.4708     -33688.728     -34620.651      931.92275      35949.73       109446.16    
     17400   1514.5266     -33663.391     -34614.823      951.43213      36295.926      109446.16    
     17500   1534.3369     -33643.935     -34607.812      963.87704      36428.032      109446.16    
     17600   1501.3329     -33662.849     -34605.992      943.14381      36692          109446.16    
     17700   1481.0804     -33678.578     -34608.999      930.42109      36367.48       109446.16    
     17800   1501.3878     -33686.118     -34629.296      943.17829      36067.073      109446.16    
     17900   1504.9088     -33697.847     -34643.238      945.39021      35599.732      109446.16    
     18000   1482.4099     -33706.114     -34637.37       931.25629      35925.091      109446.16    
     18100   1515.4791     -33683.409     -34635.44       952.03048      36027.757      109446.16    
     18200   1502.3475     -33666.863     -34610.644      943.78118      36685.704      109446.16    
     18300   1512.9529     -33657.678     -34608.121      950.44354      36714.289      109446.16    
     18400   1519.612      -33670.63      -34625.256      954.62682      36170.358      109446.16    
     18500   1473.3954     -33694.407     -34620          925.59336      36173.251      109446.16    
     18600   1504.176      -33692.6       -34637.53       944.92984      36006.502      109446.16    
     18700   1499.1437     -33690.089     -34631.858      941.76851      35950.234      109446.16    
     18800   1511.6697     -33673.009     -34622.647      949.63744      36190.761      109446.16    
     18900   1525.8056     -33654.727     -34613.245      958.51766      36689.294      109446.16    
     19000   1503.6924     -33658.992     -34603.618      944.62605      36607.738      109446.16    
     19100   1487.6544     -33686.625     -34621.176      934.5509       35732.901      109446.16    
     19200   1505.5231     -33697.348     -34643.124      945.7761       35514.231      109446.16    
     19300   1488.9252     -33697.391     -34632.74       935.34923      35646.723      109446.16    
     19400   1507.8195     -33673.297     -34620.515      947.21871      36198.285      109446.16    
     19500   1509.1839     -33662.564     -34610.64       948.0758       36662.708      109446.16    
     19600   1509.5431     -33668.624     -34616.925      948.30146      36304.412      109446.16    
     19700   1506.0865     -33676.637     -34622.767      946.12999      36103.216      109446.16    
     19800   1482.9812     -33691.951     -34623.566      931.61519      36068.806      109446.16    
     19900   1469.807      -33702.619     -34625.958      923.33905      35860.123      109446.16    
     20000   1518.7234     -33674.887     -34628.956      954.06859      36139.047      109446.16    
     20100   1540.7095     -33657.413     -34625.294      967.88034      36245.4        109446.16    
     20200   1496.4176     -33673.464     -34613.52       940.05601      36198.049      109446.16    
     20300   1508.2744     -33684.197     -34631.702      947.50446      35732.087      109446.16    
     20400   1492.3043     -33698.034     -34635.506      937.47198      35570.557      109446.16    
     20500   1477.3066     -33715.895     -34643.945      928.05035      35547.194      109446.16    
     20600   1482.4798     -33731.799     -34663.099      931.30022      34826.649      109446.16    
     20700   1483.9896     -33715.986     -34648.235      932.24865      35535.954      109446.16    
     20800   1484.836      -33691.103     -34623.883      932.78036      35723.712      109446.16    
     20900   1493.9269     -33672.136     -34610.628      938.49132      36208.51       109446.16    
     21000   1508.4289     -33665.993     -34613.595      947.60152      36236.309      109446.16    
     21100   1517.7125     -33678.495     -34631.929      953.43355      36019.324      109446.16    
     21200   1478.9247     -33704.04      -34633.107      929.06685      35439.321      109446.16    
     21300   1495.3985     -33697.256     -34636.672      939.4158       35662.547      109446.16    
     21400   1485.7279     -33686.988     -34620.328      933.34064      36018.603      109446.16    
     21500   1509.5688     -33672.193     -34620.51       948.3176       36172.243      109446.16    
     21600   1522.3751     -33665.197     -34621.56       956.36259      35921.654      109446.16    
     21700   1487.0095     -33688.766     -34622.912      934.14575      35979.325      109446.16    
     21800   1487.4814     -33708.441     -34642.883      934.44224      35452.618      109446.16    
     21900   1491.1495     -33703.878     -34640.624      936.74652      35474.389      109446.16    
     22000   1489.0292     -33685.95      -34621.365      935.41454      35917.271      109446.16    
     22100   1496.0266     -33671.037     -34610.847      939.81033      36365.044      109446.16    
     22200   1512.8183     -33670.925     -34621.284      950.35899      35775.905      109446.16    
     22300   1507.0272     -33677.809     -34624.53       946.72098      35876.461      109446.16    
     22400   1497.197      -33682.665     -34623.211      940.54562      36021.126      109446.16    
     22500   1489.8481     -33686.948     -34622.877      935.92901      36190.872      109446.16    
     22600   1508.1708     -33698.288     -34645.728      947.43937      35823.168      109446.16    
     22700   1476.3022     -33710.011     -34637.43       927.41939      35501.788      109446.16    
     22800   1491.0686     -33695.514     -34632.21       936.6957       35784.072      109446.16    
     22900   1513.7856     -33673.36      -34624.327      950.96664      36075          109446.16    
     23000   1488.8281     -33672.878     -34608.166      935.28824      36427.145      109446.16    
     23100   1528.0101     -33672.956     -34632.859      959.90255      36154.706      109446.16    
     23200   1486.9812     -33697.191     -34631.319      934.12796      35532.123      109446.16    
     23300   1475.7732     -33712.87      -34639.957      927.08706      35590.103      109446.16    
     23400   1485.7401     -33707.231     -34640.58       933.34833      35514.344      109446.16    
     23500   1499.6293     -33671.467     -34613.541      942.07358      36232.609      109446.16    
     23600   1511.6993     -33652.696     -34602.352      949.65599      36539.818      109446.16    
     23700   1525.1916     -33656.465     -34614.597      958.13192      36524.786      109446.16    
     23800   1500.0607     -33683.759     -34626.103      942.34456      36102.792      109446.16    
     23900   1482.0235     -33699.304     -34630.318      931.01357      35968.618      109446.16    
     24000   1510.2566     -33697.495     -34646.245      948.74969      35352.813      109446.16    
     24100   1491.5615     -33684.861     -34621.866      937.00535      36104.955      109446.16    
     24200   1534.9752     -33659.339     -34623.617      964.278        36176.842      109446.16    
     24300   1524.6611     -33664.359     -34622.158      957.79866      36023.035      109446.16    
     24400   1493.1825     -33675.547     -34613.57       938.02366      36066.976      109446.16    
     24500   1507.7212     -33685.437     -34632.594      947.15698      35958.081      109446.16    
     24600   1464.7547     -33713.712     -34633.877      920.1652       35503.181      109446.16    
     24700   1495.4629     -33709.129     -34648.585      939.45623      35430.641      109446.16    
     24800   1475.7961     -33700.682     -34627.783      927.10147      35535.385      109446.16    
     24900   1506.8172     -33683.473     -34630.062      946.58905      35821.123      109446.16    
     25000   1490.6456     -33679.807     -34616.237      936.43001      36021.366      109446.16    
     25100   1532.8169     -33672.965     -34635.887      962.92219      35900.274      109446.16    
     25200   1485.7386     -33686.717     -34620.065      933.34741      36025.718      109446.16    
     25300   1482.4172     -33705.834     -34637.095      931.26089      35673.852      109446.16    
     25400   1487.8115     -33715.242     -34649.892      934.64958      35103.576      109446.16    
     25500   1480.709      -33706.966     -34637.154      930.18776      35625.243      109446.16    
     25600   1495.6895     -33680.431     -34620.029      939.59861      36412.552      109446.16    
     25700   1500.729      -33666.973     -34609.737      942.76442      36269.057      109446.16    
     25800   1536.5697     -33661.397     -34626.677      965.2797       36153.487      109446.16    
     25900   1496.5343     -33684.686     -34624.816      940.12931      35894.373      109446.16    
     26000   1476.1633     -33695.96      -34623.292      927.33214      35909.204      109446.16    
     26100   1508.8519     -33690.09      -34637.957      947.86725      35811.267      109446.16    
     26200   1479.1055     -33690.635     -34619.816      929.18045      36036.969      109446.16    
     26300   1495.5027     -33680.234     -34619.715      939.48121      36627.749      109446.16    
     26400   1535.1794     -33653.173     -34617.579      964.40631      36315.811      109446.16    
     26500   1528.1639     -33650.103     -34610.102      959.99916      36604.54       109446.16    
     26600   1509.0833     -33668.345     -34616.358      948.01263      36170.979      109446.16    
     26700   1504.3804     -33678.725     -34623.784      945.05824      36010.861      109446.16    
     26800   1498.4549     -33684.947     -34626.283      941.33584      36207.215      109446.16    
     26900   1504.5896     -33687.598     -34632.788      945.18968      35708.273      109446.16    
     27000   1468.3263     -33688.661     -34611.07       922.4089       36269.281      109446.16    
     27100   1488.6354     -33675.805     -34610.972      935.16718      36274.628      109446.16    
     27200   1497.581      -33664.131     -34604.918      940.78681      36543.433      109446.16    
     27300   1513.6748     -33652.452     -34603.349      950.89704      36741.517      109446.16    
     27400   1498.5854     -33675.269     -34616.687      941.41778      36188.064      109446.16    
     27500   1489.6125     -33693.53      -34629.311      935.78098      36085.289      109446.16    
     27600   1496.4406     -33693.252     -34633.323      940.07045      35888.91       109446.16    
     27700   1510.6685     -33687.772     -34636.78       949.00844      35546.767      109446.16    
     27800   1507.7005     -33669.506     -34616.649      947.14393      36423.821      109446.16    
     27900   1515.9107     -33660.812     -34613.113      952.3016       36447.47       109446.16    
     28000   1527.3585     -33671.721     -34631.214      959.49321      35909.008      109446.16    
     28100   1478.5437     -33690.153     -34618.98       928.82752      36060.404      109446.16    
     28200   1500.4388     -33692.83      -34635.413      942.58209      35702.696      109446.16    
     28300   1483.0859     -33689.756     -34621.437      931.68096      35779.352      109446.16    
     28400   1494.6885     -33680.021     -34618.991      938.96977      36159.75       109446.16    
     28500   1495.8998     -33677.1       -34616.831      939.7307       36079.342      109446.16    
     28600   1519.4519     -33676.608     -34631.134      954.52621      35787.863      109446.16    
     28700   1466.6313     -33706.677     -34628.021      921.34412      35833.359      109446.16    
     28800   1473.2646     -33722.963     -34648.475      925.51119      35366.071      109446.16    
     28900   1484.5073     -33708.452     -34641.026      932.57387      35358.381      109446.16    
     29000   1514.4247     -33686.407     -34637.775      951.36812      35559.12       109446.16    
     29100   1504.5199     -33678.269     -34623.415      945.14591      36136.745      109446.16    
     29200   1480.9517     -33675.946     -34606.286      930.34025      36616.077      109446.16    
     29300   1512.6482     -33661.92      -34612.172      950.25213      36336.293      109446.16    
     29400   1529.7683     -33641.434     -34602.441      961.00701      36664.617      109446.16    
     29500   1507.4012     -33663.398     -34610.354      946.95592      36364.017      109446.16    
     29600   1526.9787     -33680.028     -34639.282      959.25458      35594.597      109446.16    
     29700   1464.4289     -33694.449     -34614.41       919.96056      35664.24       109446.16    
     29800   1509.5363     -33685.083     -34633.38       948.29721      35868.438      109446.16    
     29900   1510.1798     -33674.095     -34622.796      948.70145      35979.101      109446.16    
     30000   1539.2529     -33651.488     -34618.453      966.96527      36370.981      109446.16    
     30100   1513.1254     -33653.865     -34604.417      950.5519       36686.797      109446.16    
     30200   1485.0452     -33681.536     -34614.447      932.91179      36074.441      109446.16    
     30300   1523.5456     -33688.844     -34645.942      957.0979       35736.662      109446.16    
     30400   1485.0053     -33695.624     -34628.511      932.88674      35528.233      109446.16    
     30500   1492.7384     -33680.067     -34617.812      937.74467      36302.314      109446.16    
     30600   1503.8064     -33665.16      -34609.857      944.69767      36623.644      109446.16    
     30700   1487.7607     -33671.165     -34605.783      934.61767      36360.556      109446.16    
     30800   1529.6023     -33672.635     -34633.538      960.90275      36066.59       109446.16    
     30900   1488.5617     -33686.145     -34621.266      935.12088      35834.729      109446.16    
     31000   1498.3889     -33683.437     -34624.731      941.29437      35700.857      109446.16    
     31100   1517.4215     -33677.092     -34630.343      953.25071      36103.634      109446.16    
     31200   1476.9728     -33694.51      -34622.351      927.84065      35983.996      109446.16    
     31300   1496.4989     -33708.336     -34648.443      940.10705      35570.137      109446.16    
     31400   1485.4273     -33709.913     -34643.065      933.15185      35451.733      109446.16    
     31500   1491.8561     -33687.352     -34624.542      937.19045      36198.587      109446.16    
     31600   1501.1093     -33669.979     -34612.983      943.00331      36517.997      109446.16    
     31700   1516.7745     -33666.887     -34619.731      952.84428      36135.742      109446.16    
     31800   1515.2722     -33676.081     -34627.982      951.90053      36181.866      109446.16    
     31900   1478.7992     -33699.8       -34628.788      928.98805      35789.144      109446.16    
     32000   1482.6627     -33709.07      -34640.485      931.41509      35636.459      109446.16    
     32100   1490.328      -33698.988     -34635.218      936.23044      35741.058      109446.16    
     32200   1502.8043     -33674.702     -34618.77       944.06811      36476.812      109446.16    
     32300   1478.3906     -33660.34      -34589.071      928.73133      36748.654      109446.16    
     32400   1529.6785     -33649.786     -34610.736      960.95064      36578.395      109446.16    
     32500   1495.035      -33672.877     -34612.064      939.18744      36261.656      109446.16    
     32600   1509.4022     -33684.434     -34632.647      948.21298      35813.471      109446.16    
     32700   1485.9269     -33686.46      -34619.926      933.46568      35913.428      109446.16    
     32800   1520.6056     -33680.22      -34635.471      955.25099      35817.043      109446.16    
     32900   1451.8178     -33704.374     -34616.412      912.03818      35746.548      109446.16    
     33000   1493.5228     -33702.283     -34640.52       938.23745      35331.553      109446.16    
     33100   1513.7347     -33665.231     -34616.166      950.93468      36374.67       109446.16    
     33200   1529.5894     -33664.509     -34625.404      960.89465      36107.084      109446.16    
     33300   1503.4712     -33680.333     -34624.82       944.48706      36157.589      109446.16    
     33400   1482.0132     -33695.948     -34626.955      931.00709      35945.229      109446.16    
     33500   1485.3216     -33699.944     -34633.029      933.08542      35449.731      109446.16    
     33600   1534.5929     -33672.257     -34636.295      964.03786      35784.702      109446.16    
     33700   1510.2278     -33663.5       -34612.232      948.7316       36290.726      109446.16    
     33800   1518.6516     -33667.794     -34621.817      954.02345      36195.229      109446.16    
     33900   1488.2418     -33688.475     -34623.395      934.91992      35950.254      109446.16    
     34000   1485.127      -33702.373     -34635.337      932.96315      35321.314      109446.16    
     34100   1485.5288     -33699.227     -34632.443      933.21556      35577.378      109446.16    
     34200   1481.315      -33691.65      -34622.219      930.56849      36050.449      109446.16    
     34300   1509.5105     -33683.233     -34631.514      948.28099      35683.039      109446.16    
     34400   1493.1478     -33684.349     -34622.351      938.00185      35963.352      109446.16    
     34500   1517.6605     -33673.377     -34626.778      953.40089      35873.056      109446.16    
     34600   1503.7339     -33653.731     -34598.383      944.65208      36626.44       109446.16    
     34700   1536.896      -33645.62      -34611.105      965.48469      36820.891      109446.16    
     34800   1515.6892     -33670.434     -34622.597      952.16245      36072.802      109446.16    
     34900   1517.1674     -33678.811     -34631.902      953.0911       35869.776      109446.16    
     35000   1500.9596     -33685.497     -34628.406      942.9093       36426.517      109446.16    
     35100   1486.0028     -33692.45      -34625.963      933.51335      35966.329      109446.16    
     35200   1505.2302     -33692.488     -34638.08       945.59211      35645.051      109446.16    
     35300   1503.9245     -33684.365     -34629.137      944.77187      35833.675      109446.16    
     35400   1513.8428     -33665.124     -34616.127      951.00258      36195.516      109446.16    
     35500   1500.139      -33658.093     -34600.487      942.39378      36377.934      109446.16    
     35600   1500.6391     -33674.104     -34616.812      942.70792      36373.693      109446.16    
     35700   1482.5236     -33698.086     -34629.414      931.32772      35600.019      109446.16    
     35800   1488.6839     -33695.405     -34630.603      935.19763      35593.077      109446.16    
     35900   1498.0932     -33680.563     -34621.672      941.10859      36205.395      109446.16    
     36000   1513.5772     -33669.657     -34620.493      950.83573      36406.098      109446.16    
     36100   1469.7384     -33680.344     -34603.64       923.29601      36224.627      109446.16    
     36200   1482.1099     -33707.706     -34638.774      931.06781      35506.882      109446.16    
     36300   1487.5402     -33713.266     -34647.745      934.47918      34989.081      109446.16    
     36400   1487.1583     -33694.254     -34628.493      934.23925      35755.364      109446.16    
     36500   1502.1945     -33678.327     -34622.012      943.68506      36199.474      109446.16    
     36600   1498.6444     -33675.817     -34617.271      941.45486      36241.624      109446.16    
     36700   1504.9304     -33675.374     -34620.778      945.40377      36318.44       109446.16    
     36800   1497.4563     -33688.72      -34629.429      940.70849      35785.352      109446.16    
     36900   1481.9668     -33711.796     -34642.774      930.97792      35281.235      109446.16    
     37000   1494.4322     -33707.444     -34646.252      938.80873      35453.139      109446.16    
     37100   1496.7718     -33683.638     -34623.916      940.2785       35936.841      109446.16    
     37200   1484.2264     -33673.492     -34605.889      932.3974       36294.328      109446.16    
     37300   1513.4007     -33665.962     -34616.687      950.72484      35775.28       109446.16    
     37400   1498.4879     -33665.156     -34606.513      941.35654      36240.788      109446.16    
     37500   1515.6235     -33667.357     -34619.478      952.12122      36066.443      109446.16    
     37600   1476.217      -33693.693     -34621.059      927.36587      36018.606      109446.16    
     37700   1492.0898     -33699.284     -34636.621      937.33724      35554.028      109446.16    
     37800   1498.5136     -33693.442     -34634.815      941.37269      35441.684      109446.16    
     37900   1519.7337     -33674.019     -34628.722      954.70323      35801.713      109446.16    
     38000   1538.6611     -33651.075     -34617.669      966.59351      36230.736      109446.16    
     38100   1508.5644     -33655.25      -34602.937      947.68663      36288.665      109446.16    
     38200   1503.4135     -33669.504     -34613.954      944.45081      36333.542      109446.16    
     38300   1504.2141     -33676.285     -34621.239      944.95377      35885.923      109446.16    
     38400   1503.011      -33679.514     -34623.712      944.19798      35850.526      109446.16    
     38500   1500.4907     -33694.377     -34636.992      942.61471      35838.501      109446.16    
     38600   1462.5542     -33714.082     -34632.865      918.78283      35267.958      109446.16    
     38700   1483.3757     -33702.126     -34633.989      931.86298      35749.927      109446.16    
     38800   1496.9141     -33687.665     -34628.033      940.36789      35862.88       109446.16    
     38900   1503.7829     -33685.945     -34630.628      944.68286      36034.779      109446.16    
     39000   1477.7433     -33690.627     -34618.952      928.3247       36021.39       109446.16    
     39100   1528.2122     -33676.527     -34636.557      960.02946      36085.4        109446.16    
     39200   1516.4054     -33665.175     -34617.787      952.61241      36145.661      109446.16    
     39300   1509.4327     -33653.329     -34601.561      948.23212      36515.317      109446.16    
     39400   1537.4103     -33650.341     -34616.148      965.80775      36417.826      109446.16    
     39500   1479.3657     -33674.239     -34603.583      929.34389      36247.084      109446.16    
     39600   1526.0398     -33678.306     -34636.971      958.66478      35833.428      109446.16    
     39700   1504.7025     -33693.06      -34638.32       945.26062      35599.025      109446.16    
     39800   1493.6888     -33697.303     -34635.644      938.34175      35846.912      109446.16    
     39900   1488.0371     -33693.367     -34628.159      934.79131      35738.917      109446.16    
     40000   1496.3967     -33685.562     -34625.605      940.04285      35994.773      109446.16    
     40100   1488.6548     -33680.262     -34615.442      935.17934      35924.929      109446.16    
     40200   1515.1967     -33672.401     -34624.254      951.85307      36183.658      109446.16    
     40300   1504.6684     -33674.543     -34619.782      945.23918      36009.839      109446.16    
     40400   1484.1066     -33690.405     -34622.727      932.32218      35936.913      109446.16    
     40500   1510.2628     -33698.082     -34646.836      948.7536       35438.328      109446.16    
     40600   1463.081      -33704.265     -34623.378      919.11376      35868.473      109446.16    
     40700   1498.1843     -33682.201     -34623.367      941.1658       35964.185      109446.16    
     40800   1500.3861     -33662.808     -34605.357      942.54898      36468.564      109446.16    
     40900   1500.3218     -33666.817     -34609.326      942.50863      36392.106      109446.16    
     41000   1508.2633     -33669.359     -34616.856      947.49752      36016.001      109446.16    
     41100   1540.0746     -33674.288     -34641.77       967.48151      35683.516      109446.16    
     41200   1478.0909     -33694.341     -34622.884      928.54306      35789.686      109446.16    
     41300   1520.3939     -33692.762     -34647.88       955.11802      35499.524      109446.16    
     41400   1476.6281     -33695.186     -34622.81       927.62416      35697.006      109446.16    
     41500   1494.7079     -33682.745     -34621.727      938.98194      36092.359      109446.16    
     41600   1507.1208     -33679.454     -34626.234      946.77975      35907.564      109446.16    
     41700   1511.5489     -33679.731     -34629.293      949.5615       36037.038      109446.16    
     41800   1486.7044     -33685.85      -34619.804      933.95411      35810.504      109446.16    
     41900   1514.6539     -33684.924     -34636.437      951.51211      35562.715      109446.16    
     42000   1524.7092     -33666.77      -34624.599      957.8289       36132.06       109446.16    
     42100   1482.1005     -33661.156     -34592.218      931.06194      36465.086      109446.16    
     42200   1529.94       -33655.161     -34616.276      961.11487      36121.246      109446.16    
     42300   1500.6883     -33683.127     -34625.866      942.73888      35830.761      109446.16    
     42400   1486.5461     -33690.445     -34624.3        933.85469      35713.869      109446.16    
     42500   1519.121      -33684.679     -34638.998      954.31833      35764.437      109446.16    
     42600   1473.6814     -33692.912     -34618.685      925.77302      35763.778      109446.16    
     42700   1491.7924     -33684.006     -34621.156      937.15043      35826.634      109446.16    
     42800   1517.8525     -33662.376     -34615.898      953.52148      36501.851      109446.16    
     42900   1515.9221     -33662.329     -34614.638      952.30876      36489.817      109446.16    
     43000   1494.7911     -33679.866     -34618.9        939.0342       36204.571      109446.16    
     43100   1473.2687     -33707.847     -34633.36       925.51375      35599.078      109446.16    
     43200   1480.0216     -33707.998     -34637.754      929.75591      35663.177      109446.16    
     43300   1495.0061     -33692.905     -34632.074      939.16928      35635.718      109446.16    
     43400   1506.6741     -33676.751     -34623.25       946.49915      36029.887      109446.16    
     43500   1500.8843     -33672.621     -34615.483      942.86195      36263.956      109446.16    
     43600   1505.5681     -33674.039     -34619.843      945.80434      36125.695      109446.16    
     43700   1507.0752     -33681.994     -34628.745      946.75111      35707.564      109446.16    
     43800   1485.3703     -33705.664     -34638.78       933.11605      35325.621      109446.16    
     43900   1488.1495     -33729.827     -34664.689      934.86192      34862.755      109446.16    
     44000   1467.2515     -33718.37      -34640.103      921.73371      35418.32       109446.16    
     44100   1482.029      -33695.831     -34626.848      931.01702      35810.162      109446.16    
     44200   1507.4472     -33682.041     -34629.026      946.98483      35775.027      109446.16    
     44300   1506.325      -33674.316     -34620.596      946.27982      35667.571      109446.16    
     44400   1506.2566     -33657.952     -34604.189      946.23686      36465.146      109446.16    
     44500   1533.8074     -33649.241     -34612.786      963.54444      36340.898      109446.16    
     44600   1503.3115     -33676.5       -34620.887      944.38676      36109.598      109446.16    
     44700   1493.8323     -33685.232     -34623.664      938.43186      36066.601      109446.16    
     44800   1492.6763     -33693.207     -34630.912      937.70569      35750.138      109446.16    
     44900   1489.4517     -33699.948     -34635.628      935.67994      35616.726      109446.16    
     45000   1498.0094     -33684.857     -34625.913      941.05594      36052.365      109446.16    
     45100   1497.6392     -33662.323     -34603.147      940.82337      36481.549      109446.16    
     45200   1513.3185     -33664.206     -34614.879      950.67322      36672.429      109446.16    
     45300   1465.0308     -33682.468     -34602.807      920.33863      36495.847      109446.16    
     45400   1499.5959     -33681.254     -34623.307      942.0526       36264.132      109446.16    
     45500   1521.8712     -33679.995     -34636.041      956.04607      35852.153      109446.16    
     45600   1500.8626     -33689.494     -34632.342      942.84833      35760.418      109446.16    
     45700   1484.3849     -33692.227     -34624.724      932.49698      35934.166      109446.16    
     45800   1505.5633     -33658.701     -34604.502      945.80137      36579.634      109446.16    
     45900   1512.2481     -33650.719     -34600.72       950.00074      36523.112      109446.16    
     46000   1525.4801     -33668.05      -34626.363      958.31317      36211.284      109446.16    
     46100   1505.9741     -33686.059     -34632.118      946.05942      35513.962      109446.16    
     46200   1510.9318     -33687.247     -34636.421      949.17389      35692.589      109446.16    
     46300   1495.1537     -33687.872     -34627.134      939.26198      35890.482      109446.16    
     46400   1508.0206     -33675.385     -34622.73       947.34502      35889.132      109446.16    
     46500   1527.3167     -33652.883     -34612.349      959.46693      36429.869      109446.16    
     46600   1498.792      -33659.37      -34600.918      941.54756      36611.154      109446.16    
     46700   1509.5477     -33675.13      -34623.435      948.30438      36035.345      109446.16    
     46800   1505.0449     -33698.102     -34643.577      945.47569      35628.376      109446.16    
     46900   1477.6275     -33704.027     -34632.279      928.25198      35589.131      109446.16    
     47000   1495.8987     -33687.748     -34627.478      939.73003      36003.91       109446.16    
     47100   1500.7277     -33672.851     -34615.615      942.76362      36403.737      109446.16    
     47200   1540.284      -33667.202     -34634.815      967.61301      35818.951      109446.16    
     47300   1490.7766     -33686.486     -34622.998      936.51225      36133.376      109446.16    
     47400   1468.6911     -33705.305     -34627.943      922.63805      35698.876      109446.16    
     47500   1491.9114     -33704.126     -34641.351      937.22518      35640.758      109446.16    
     47600   1515.3361     -33674.061     -34626.002      951.94067      36517.137      109446.16    
     47700   1498.4398     -33663.699     -34605.025      941.32634      36553.317      109446.16    
     47800   1537.2298     -33661.266     -34626.961      965.69437      36312.101      109446.16    
     47900   1485.6927     -33687.303     -34620.622      933.31852      36084.407      109446.16    
     48000   1490.107      -33692.251     -34628.342      936.09164      35973.655      109446.16    
     48100   1489.1101     -33689.802     -34625.268      935.4654       35937.04       109446.16    
     48200   1509.3516     -33675.905     -34624.087      948.18119      35856.732      109446.16    
     48300   1528.1501     -33650.384     -34610.374      959.99045      36351.027      109446.16    
     48400   1530.2501     -33635.616     -34596.926      961.30968      36672.7        109446.16    
     48500   1497.0312     -33659.914     -34600.355      940.44142      36410.612      109446.16    
     48600   1516.6809     -33687.244     -34640.03       952.78546      35887.477      109446.16    
     48700   1468.8438     -33706.472     -34629.206      922.734        35627.226      109446.16    
     48800   1481.8358     -33690.807     -34621.702      930.89565      35926.538      109446.16    
     48900   1522.6524     -33674.616     -34631.153      956.53679      35768.133      109446.16    
     49000   1497.1043     -33678.973     -34619.461      940.48736      36047.246      109446.16    
     49100   1511.3914     -33673.262     -34622.725      949.46257      36019.315      109446.16    
     49200   1514.7862     -33660.194     -34611.789      951.59523      36557.806      109446.16    
     49300   1515.5461     -33660.873     -34612.946      952.07256      36366.512      109446.16    
     49400   1481.5651     -33689.542     -34620.267      930.72555      35917.763      109446.16    
     49500   1508.059      -33694.432     -34641.802      947.36917      35801.481      109446.16    
     49600   1472.4707     -33694.94      -34619.953      925.01244      35891.235      109446.16    
     49700   1528.4762     -33671.6       -34631.795      960.19533      36185.037      109446.16    
     49800   1527.2274     -33662.883     -34622.294      959.4108       36227.667      109446.16    
     49900   1491.8633     -33681.813     -34619.008      937.19495      35980.784      109446.16    
     50000   1475.0339     -33709.897     -34636.52       926.62261      35396.154      109446.16    
     50100   1485.4636     -33701.968     -34635.143      933.1746       35751.625      109446.16    
     50200   1499.3759     -33682.804     -34624.718      941.91437      35799.884      109446.16    
     50300   1481.9364     -33672.401     -34603.36       930.9588       36450.424      109446.16    
     50400   1518.8356     -33664.264     -34618.403      954.13907      36500.71       109446.16    
     50500   1488.309      -33678.905     -34613.867      934.96212      36154.087      109446.16    
     50600   1462.4489     -33711.73      -34630.447      918.71668      35869.164      109446.16    
     50700   1494.1452     -33705.592     -34644.221      938.62844      35595.9        109446.16    
     50800   1481.1985     -33690.652     -34621.147      930.4953       36368.111      109446.16    
     50900   1490.3634     -33678.84      -34615.093      936.25269      36325.11       109446.16    
     51000   1513.993      -33671.691     -34622.788      951.09691      36141.606      109446.16    
     51100   1507.7741     -33679.757     -34626.948      947.19021      35947.048      109446.16    
     51200   1492.6962     -33710.377     -34648.096      937.71817      35256.519      109446.16    
     51300   1475.4933     -33708.147     -34635.058      926.91126      35589.417      109446.16    
     51400   1508.0576     -33685.575     -34632.944      947.36825      36005.338      109446.16    
     51500   1501.4477     -33674.822     -34618.038      943.21594      36017.268      109446.16    
     51600   1505.6608     -33673.75      -34619.613      945.8626       36169.607      109446.16    
     51700   1503.2534     -33679.9       -34624.25       944.35027      36120.905      109446.16    
     51800   1473.5399     -33706.812     -34632.496      925.68409      35992.958      109446.16    
     51900   1496.8509     -33710.291     -34650.619      940.3282       35343.035      109446.16    
     52000   1496.1458     -33694.083     -34633.969      939.8852       35828.186      109446.16    
     52100   1492.4567     -33681.891     -34619.458      937.56769      36123.241      109446.16    
     52200   1496.5248     -33674.286     -34614.41       940.1233       36540.926      109446.16    
     52300   1508.1946     -33674.895     -34622.35       947.45431      35912.491      109446.16    
     52400   1522.8959     -33677.9       -34634.589      956.68974      35911.179      109446.16    
     52500   1504.7496     -33680.917     -34626.207      945.29019      35761.036      109446.16    
     52600   1490.5535     -33687.476     -34623.848      936.37215      35842.164      109446.16    
     52700   1496.6465     -33693.523     -34633.723      940.19977      35707.805      109446.16    
     52800   1472.0081     -33704.418     -34629.14       924.72182      35671.077      109446.16    
     52900   1488.5961     -33706.065     -34641.208      935.14248      35419.3        109446.16    
     53000   1477.8144     -33693.648     -34622.018      928.36934      35795.06       109446.16    
     53100   1512.5517     -33669.688     -34619.879      950.19151      36224.766      109446.16    
     53200   1502.4058     -33667.167     -34610.985      943.81781      36355.564      109446.16    
     53300   1495.9848     -33675.383     -34615.167      939.78408      36144.155      109446.16    
     53400   1487.2105     -33702.072     -34636.344      934.27203      35201.528      109446.16    
     53500   1485.9439     -33710.837     -34644.314      933.47636      35644.695      109446.16    
     53600   1475.6671     -33703.502     -34630.522      927.02041      35437.71       109446.16    
     53700   1483.9646     -33686.468     -34618.701      932.23296      36018.425      109446.16    
     53800   1502.9413     -33675.74      -34619.894      944.15418      36143.296      109446.16    
     53900   1497.9629     -33674.391     -34615.418      941.02671      36168.987      109446.16    
     54000   1517.6053     -33674.704     -34628.07       953.36616      36234.134      109446.16    
     54100   1484.5886     -33703.099     -34635.724      932.62495      35757.114      109446.16    
     54200   1467.6681     -33710.723     -34632.718      921.99543      35496.425      109446.16    
     54300   1494.9881     -33692.816     -34631.974      939.15797      35830.602      109446.16    
     54400   1508.7657     -33678.157     -34625.97       947.81314      35822.742      109446.16    
     54500   1511.2597     -33672.872     -34622.252      949.37986      36009.538      109446.16    
     54600   1513.9342     -33670.21      -34621.27       951.06001      36045.076      109446.16    
     54700   1489.2232     -33674.691     -34610.227      935.53644      36344.821      109446.16    
     54800   1479.1123     -33692.901     -34622.086      929.18474      35714.214      109446.16    
     54900   1513.0187     -33692.562     -34643.047      950.48484      35565.409      109446.16    
     55000   1496.6224     -33689.181     -34629.365      940.18465      35768.295      109446.16    
     55100   1507.6223     -33673.566     -34620.661      947.0948       36215.729      109446.16    
     55200   1521.5987     -33658.04      -34613.915      955.87483      36343.385      109446.16    
     55300   1531.2565     -33658.493     -34620.435      961.94195      36184.893      109446.16    
     55400   1499.6994     -33687.515     -34629.633      942.1176       35889.556      109446.16    
     55500   1491.1067     -33696.626     -34633.345      936.71963      35599.325      109446.16    
     55600   1530.5968     -33685.737     -34647.265      961.52748      35560.269      109446.16    
     55700   1483.7119     -33687.764     -34619.838      932.07422      36041.745      109446.16    
     55800   1495.4115     -33682.076     -34621.5        939.42392      36092.499      109446.16    
     55900   1521.8333     -33651.115     -34607.137      956.02222      36527.569      109446.16    
     56000   1548.9581     -33652.403     -34625.466      973.06215      36293.71       109446.16    
     56100   1495.8585     -33678.381     -34618.085      939.70478      36042.554      109446.16    
     56200   1510.7685     -33684.346     -34633.417      949.0713       35928.401      109446.16    
     56300   1477.2766     -33695.825     -34623.856      928.03155      35890.074      109446.16    
     56400   1484.2906     -33696.702     -34629.14       932.43773      35542.52       109446.16    
     56500   1528.0323     -33672.279     -34632.196      959.91647      36047.382      109446.16    
     56600   1492.1478     -33661.695     -34599.069      937.37364      36349.3        109446.16    
     56700   1527.6881     -33652.882     -34612.582      959.70023      36364.541      109446.16    
     56800   1491.4895     -33681.868     -34618.828      936.96011      35937.97       109446.16    
     56900   1510.2522     -33694.325     -34643.072      948.74694      35541.083      109446.16    
     57000   1459.0294     -33704.548     -34621.116      916.56856      35836.664      109446.16    
     57100   1517.7846     -33688.508     -34641.986      953.47884      35707.014      109446.16    
     57200   1506.8948     -33674.358     -34620.996      946.63778      35760.612      109446.16    
     57300   1501.6704     -33665.038     -34608.394      943.35583      36429.894      109446.16    
     57400   1512.9872     -33660.897     -34611.362      950.46505      36669.864      109446.16    
     57500   1501.8794     -33689.536     -34633.024      943.48712      36100.874      109446.16    
     57600   1460.559      -33711.083     -34628.612      917.52945      35499.793      109446.16    
     57700   1480.7314     -33694.268     -34624.47       930.20187      35697.286      109446.16    
     57800   1507.1723     -33676.753     -34623.566      946.81215      36255.821      109446.16    
     57900   1515.3332     -33672.632     -34624.571      951.93886      36030.398      109446.16    
     58000   1513.6704     -33674.037     -34624.931      950.89425      35987.328      109446.16    
     58100   1476.0874     -33698.292     -34625.577      927.28447      36008.133      109446.16    
     58200   1469.3722     -33708.076     -34631.142      923.06595      35420.979      109446.16    
     58300   1501.2661     -33689.293     -34632.395      943.1018       35823.53       109446.16    
     58400   1498.4773     -33681.673     -34623.023      941.34991      35968.392      109446.16    
     58500   1501.902      -33677.367     -34620.869      943.50132      35813.801      109446.16    
     58600   1517.653      -33670.753     -34624.149      953.39612      36074.346      109446.16    
     58700   1512.7742     -33680.056     -34630.387      950.33127      35740.327      109446.16    
     58800   1476.2569     -33701.686     -34629.076      927.39096      35506.888      109446.16    
     58900   1498.2456     -33699.799     -34641.003      941.20434      35535.339      109446.16    
     59000   1483.3073     -33696.045     -34627.865      931.82004      35606.146      109446.16    
     59100   1499.5556     -33669.067     -34611.094      942.02731      36311.555      109446.16    
     59200   1516.6861     -33655.997     -34608.785      952.78876      36323.978      109446.16    
     59300   1521.0453     -33667.819     -34623.346      955.52721      36076.84       109446.16    
     59400   1483.0701     -33685.145     -34616.816      931.67102      36031.588      109446.16    
     59500   1515.5042     -33681.199     -34633.245      952.04629      35709.896      109446.16    
     59600   1492.1539     -33681.871     -34619.249      937.37753      35689.377      109446.16    
     59700   1512.3906     -33677.083     -34627.173      950.09027      35963.974      109446.16    
     59800   1494.2508     -33676.078     -34614.773      938.69477      36024.123      109446.16    
     59900   1492.9447     -33670.209     -34608.084      937.87431      36399.497      109446.16    
     60000   1500.4367     -33668.168     -34610.749      942.58078      36318.328      109446.16    
     60100   1523.1338     -33679.167     -34636.006      956.83923      35861.927      109446.16    
     60200   1503.9089     -33702.396     -34647.158      944.76203      35319.81       109446.16    
     60300   1472.7061     -33704.026     -34629.187      925.16029      35656.805      109446.16    
     60400   1492.366      -33686.089     -34623.6        937.51073      36067.122      109446.16    
     60500   1515.104      -33674.225     -34626.02       951.79484      36056.215      109446.16    
     60600   1505.407      -33671.442     -34617.145      945.70316      36464.807      109446.16    
     60700   1505.0831     -33680.69      -34626.19       945.49969      36195.268      109446.16    
     60800   1501.6987     -33695.182     -34638.556      943.37356      35795.345      109446.16    
     60900   1486.1109     -33698.001     -34631.583      933.58129      35765.622      109446.16    
     61000   1521.9827     -33685.204     -34641.32       956.11606      35590.861      109446.16    
     61100   1482.9607     -33685.91      -34617.512      931.60229      36018.322      109446.16    
     61200   1501.819      -33679.114     -34622.563      943.44917      35940.233      109446.16    
     61300   1519.5414     -33661.79      -34616.373      954.58247      36389.002      109446.16    
     61400   1515.0234     -33650.076     -34601.82       951.74425      36585.465      109446.16    
     61500   1498.4275     -33677.628     -34618.947      941.31861      36024.009      109446.16    
     61600   1491.5797     -33695.563     -34632.58       937.01681      35789.093      109446.16    
     61700   1493.2112     -33694.669     -34632.711      938.0417       35793.309      109446.16    
     61800   1489.4201     -33682.592     -34618.253      935.66011      36026.009      109446.16    
     61900   1513.7222     -33663.129     -34614.056      950.92679      36400.291      109446.16    
     62000   1498.9256     -33663.259     -34604.891      941.63151      36610.837      109446.16    
     62100   1479.1639     -33688.947     -34618.164      929.21715      36143.203      109446.16    
     62200   1475.5377     -33705.754     -34632.693      926.93912      35848.247      109446.16    
     62300   1492.6359     -33701.292     -34638.973      937.68029      35786.921      109446.16    
     62400   1493.6354     -33687.206     -34625.514      938.3082       36123.305      109446.16    
     62500   1511.591      -33668.628     -34618.216      949.58796      36292.505      109446.16    
     62600   1503.3231     -33667.725     -34612.119      944.39406      36274.567      109446.16    
     62700   1507.8911     -33672.258     -34619.522      947.26369      36396.371      109446.16    
     62800   1495.8505     -33685.609     -34625.309      939.6997       35958.71       109446.16    
     62900   1510.9247     -33691.901     -34641.071      949.1694       35722.751      109446.16    
     63000   1495.81       -33689.242     -34628.916      939.67428      35789.713      109446.16    
     63100   1517.4256     -33676.831     -34630.084      953.25329      35972.147      109446.16    
     63200   1480.1767     -33679.674     -34609.528      929.85335      36548.04       109446.16    
     63300   1475.9157     -33690.317     -34617.494      927.17658      36263.161      109446.16    
     63400   1470.8499     -33717.25      -34641.244      923.99421      35361.605      109446.16    
     63500   1495.1718     -33721.283     -34660.556      939.27335      35382.868      109446.16    
     63600   1474.2211     -33699.917     -34626.029      926.11206      35710.054      109446.16    
     63700   1502.2032     -33671.693     -34615.384      943.6905       36413.355      109446.16    
     63800   1509.623      -33663.145     -34611.497      948.35164      36142.756      109446.16    
     63900   1519.8045     -33665.194     -34619.942      954.74776      36136.186      109446.16    
     64000   1492.31       -33685.577     -34623.052      937.47556      35951.807      109446.16    
     64100   1488.3225     -33696.611     -34631.582      934.97061      35803.227      109446.16    
     64200   1521.7011     -33688.002     -34643.941      955.93921      35809.782      109446.16    
     64300   1527.8474     -33662.606     -34622.406      959.80034      36470.259      109446.16    
     64400   1508.5228     -33644.093     -34591.754      947.66054      36748.206      109446.16    
     64500   1539.0848     -33637.4       -34604.26       966.85969      36969.827      109446.16    
     64600   1480.6829     -33675.262     -34605.434      930.1714       36334.341      109446.16    
     64700   1514.1403     -33681.094     -34632.284      951.18945      35756.729      109446.16    
     64800   1518.8006     -33689.69      -34643.807      954.11706      35566.881      109446.16    
     64900   1468.2275     -33700.805     -34623.152      922.34685      35779.248      109446.16    
     65000   1490.1152     -33689.193     -34625.29       936.09679      35930.41       109446.16    
     65100   1526.6825     -33667.508     -34626.577      959.06851      36121.263      109446.16    
     65200   1537.4283     -33663.295     -34629.114      965.81909      36174.773      109446.16    
     65300   1462.2011     -33691.821     -34610.382      918.56099      36419.933      109446.16    
     65400   1483.9507     -33698.993     -34631.218      932.22423      35783.801      109446.16    
     65500   1495.9305     -33694.458     -34634.208      939.74997      35829.629      109446.16    
     65600   1495.0992     -33681.989     -34621.217      939.22775      36046.825      109446.16    
     65700   1505.0615     -33663.531     -34609.017      945.48612      36588.671      109446.16    
     65800   1501.8368     -33663.634     -34607.095      943.46037      36582.067      109446.16    
     65900   1502.398      -33670.121     -34613.934      943.81287      36416.814      109446.16    
     66000   1517.7067     -33676.444     -34629.874      953.42986      35966.972      109446.16    
     66100   1512.1808     -33686.27      -34636.228      949.95847      35724.429      109446.16    
     66200   1479.6246     -33700.023     -34629.53       929.50657      35610.455      109446.16    
     66300   1460.2261     -33716.871     -34634.191      917.32032      35825.264      109446.16    
     66400   1454.732      -33720.847     -34634.716      913.86893      35345.148      109446.16    
     66500   1503.287      -33689.778     -34634.149      944.37138      35863.691      109446.16    
     66600   1501.7377     -33673.703     -34617.101      943.39807      36510.747      109446.16    
     66700   1481.2236     -33672.715     -34603.226      930.51104      36382.073      109446.16    
     66800   1513.8946     -33672.312     -34623.347      951.03508      35829.836      109446.16    
     66900   1502.8854     -33686.753     -34630.872      944.11905      36145.685      109446.16    
     67000   1495.6388     -33709.132     -34648.699      939.56673      35362.538      109446.16    
     67100   1489.037      -33705.969     -34641.388      935.41946      35510.872      109446.16    
     67200   1505.5619     -33687.499     -34633.299      945.80044      35901.475      109446.16    
     67300   1498.4141     -33679.028     -34620.338      941.31019      35956.966      109446.16    
     67400   1521.1152     -33676.108     -34631.679      955.57111      36019.746      109446.16    
     67500   1509.2073     -33682.426     -34630.516      948.0905       35682.98       109446.16    
     67600   1485.6709     -33691.042     -34624.347      933.30484      35977.224      109446.16    
     67700   1509.9844     -33691.003     -34639.582      948.57868      35526.175      109446.16    
     67800   1497.5738     -33685.246     -34626.028      940.78233      35542.604      109446.16    
     67900   1517.4029     -33665.634     -34618.873      953.23904      36360.732      109446.16    
     68000   1509.8631     -33669.618     -34618.12       948.50247      36046.871      109446.16    
     68100   1490.9674     -33688.278     -34624.91       936.63214      35855.464      109446.16    
     68200   1496.6653     -33695.148     -34635.36       940.21161      35865.305      109446.16    
     68300   1480.2985     -33694.385     -34624.315      929.92992      35784.112      109446.16    
     68400   1503.192      -33685.018     -34629.33       944.31169      35753.226      109446.16    
     68500   1499.9048     -33680.038     -34622.285      942.24663      35975.964      109446.16    
     68600   1500.9487     -33672.698     -34615.601      942.90245      36104.402      109446.16    
     68700   1531.7861     -33653.466     -34615.74       962.27461      36238.027      109446.16    
     68800   1550.3999     -33636.383     -34610.351      973.9679       36450.05       109446.16    
     68900   1496.9578     -33660.825     -34601.22       940.39534      36302.309      109446.16    
     69000   1508.2619     -33676.599     -34624.096      947.4966       35938.364      109446.16    
     69100   1501.9379     -33687.598     -34631.121      943.52386      35891.357      109446.16    
     69200   1501.1616     -33694.034     -34637.07       943.03617      35605.476      109446.16    
     69300   1502.2035     -33693.65      -34637.34       943.69072      35663.004      109446.16    
     69400   1539.345      -33667.591     -34634.615      967.02315      35930.307      109446.16    
     69500   1504.921      -33665.886     -34611.284      945.39786      36212.469      109446.16    
     69600   1502.9711     -33681.621     -34625.794      944.1729       35863.998      109446.16    
     69700   1487.4192     -33697.061     -34631.464      934.40317      35733.098      109446.16    
     69800   1507.7956     -33692.982     -34640.186      947.20369      35467.732      109446.16    
     69900   1498.604      -33673.25      -34614.679      941.42948      36052.157      109446.16    
     70000   1537.717      -33649.305     -34615.305      966.00044      36169.349      109446.16    
     70100   1508.2322     -33659.658     -34607.136      947.47797      36446.638      109446.16    
     70200   1492.6221     -33678.391     -34616.063      937.67164      36153.136      109446.16    
     70300   1499.1554     -33690.296     -34632.072      941.7759       35674.338      109446.16    
     70400   1477.9948     -33692.61      -34621.093      928.48271      35785.767      109446.16    
     70500   1530.9384     -33673.034     -34634.776      961.74211      35951.853      109446.16    
     70600   1508.537      -33655.653     -34603.322      947.66941      36550.913      109446.16    
     70700   1528.2583     -33625.615     -34585.674      960.05845      37178.848      109446.16    
     70800   1523.5128     -33640.806     -34597.883      957.0773       37001.555      109446.16    
     70900   1502.0789     -33661.074     -34604.686      943.6124       36422.222      109446.16    
     71000   1508.6238     -33675.19      -34622.914      947.72398      35980.899      109446.16    
     71100   1500.7873     -33690.263     -34633.064      942.80102      35964.068      109446.16    
     71200   1487.8955     -33697.007     -34631.709      934.70237      35339.247      109446.16    
     71300   1506.3333     -33685.26      -34631.545      946.28504      35849.779      109446.16    
     71400   1507.9155     -33656.256     -34603.535      947.27899      36576.551      109446.16    
     71500   1517.2623     -33654.161     -34607.311      953.15072      36396.485      109446.16    
     71600   1535.3071     -33667.948     -34632.435      964.48655      36087.695      109446.16    
     71700   1493.4755     -33689.4       -34627.607      938.20774      36043.889      109446.16    
     71800   1498.9042     -33689.725     -34631.343      941.61809      35795.104      109446.16    
     71900   1508.4415     -33677.326     -34624.936      947.60943      35976.635      109446.16    
     72000   1520.7573     -33668.085     -34623.431      955.34628      36177.728      109446.16    
     72100   1489.9097     -33686.971     -34622.938      935.96769      35851.592      109446.16    
     72200   1479.0262     -33707.618     -34636.749      929.13061      35535.648      109446.16    
     72300   1493.5873     -33700.136     -34638.414      938.27797      35715.199      109446.16    
     72400   1490.6039     -33694.081     -34630.484      936.40377      35798.666      109446.16    
     72500   1499.1339     -33685.496     -34627.259      941.76238      36042.49       109446.16    
     72600   1507.6881     -33674.827     -34621.963      947.13616      36180.987      109446.16    
     72700   1508.0364     -33660.803     -34608.158      947.35497      36581.266      109446.16    
     72800   1556.6337     -33642.946     -34620.83       977.88396      36169.818      109446.16    
     72900   1509.3872     -33663.313     -34611.517      948.20356      36340.12       109446.16    
     73000   1505.711      -33681.815     -34627.709      945.89415      36452.982      109446.16    
     73100   1466.0379     -33696.121     -34617.092      920.97135      35797.179      109446.16    
     73200   1503.7666     -33690.506     -34635.179      944.67267      35772.05       109446.16    
     73300   1511.3306     -33678.874     -34628.298      949.42439      36017.221      109446.16    
     73400   1529.8188     -33661.845     -34622.884      961.03877      36344.407      109446.16    
     73500   1524.7122     -33640.039     -34597.87       957.83074      37100.278      109446.16    
     73600   1536.3868     -33629.784     -34594.948      965.16477      37034.9        109446.16    
     73700   1511.7281     -33658.127     -34607.801      949.6741       36434.674      109446.16    
     73800   1506.4115     -33676.414     -34622.748      946.33417      36089.11       109446.16    
     73900   1513.1778     -33686.953     -34637.538      950.58479      35918.28       109446.16    
     74000   1489.2162     -33695.33      -34630.862      935.53206      35698.456      109446.16    
     74100   1487.2845     -33691.01      -34625.328      934.31855      36094.437      109446.16    
     74200   1514.0604     -33666.365     -34617.504      951.13927      36059.463      109446.16    
     74300   1530.4496     -33656.053     -34617.488      961.43503      36602.883      109446.16    
     74400   1468.1874     -33673.93      -34596.251      922.32162      36717.54       109446.16    
     74500   1502.0471     -33684.654     -34628.246      943.59244      35968.942      109446.16    
     74600   1501.3307     -33685.946     -34629.088      943.14241      35932.861      109446.16    
     74700   1499.8443     -33683.595     -34625.804      942.20868      36069.491      109446.16    
     74800   1482.2192     -33680.192     -34611.328      931.13648      36513.239      109446.16    
     74900   1527.8937     -33656.55      -34616.379      959.82942      36364.4        109446.16    
     75000   1514.3828     -33654.259     -34605.601      951.34177      36875.736      109446.16    
     75100   1470.2729     -33685.622     -34609.254      923.63174      36207.174      109446.16    
     75200   1506.1178     -33688.861     -34635.011      946.14971      36054.561      109446.16    
     75300   1489.0825     -33691.733     -34627.181      935.44805      36110.225      109446.16    
     75400   1492.6932     -33688.264     -34625.98       937.71632      35943.184      109446.16    
     75500   1514.01       -33677.089     -34628.197      951.10763      36013.512      109446.16    
     75600   1488.8294     -33671.154     -34606.443      935.28902      36640.989      109446.16    
[...]
     81800   1508.9283     -33676.296     -34624.211      947.91524      36224.611      109446.16    
     81900   1503.607      -33685.487     -34630.06       944.57242      35860.106      109446.16    
     82000   1465.2228     -33683.784     -34604.243      920.45925      36073.467      109446.16    
     82100   1524.7996     -33670.054     -34627.94       957.88568      35976.924      109446.16    
     82200   1481.5551     -33683.897     -34614.616      930.7193       36262.034      109446.16    
     82300   1501.7952     -33684.076     -34627.51       943.43422      35883.748      109446.16    
     82400   1519.4141     -33683.571     -34638.074      954.50249      35720.82       109446.16    
     82500   1509.9055     -33685.758     -34634.288      948.52915      35867.58       109446.16    
     82600   1464.7455     -33685.126     -34605.286      920.15945      35953.358      109446.16    
     82700   1518.2938     -33667.267     -34621.066      953.79871      36246.684      109446.16    
     82800   1472.7432     -33669.874     -34595.058      925.18363      36543.55       109446.16    
     82900   1527.2235     -33664.502     -34623.911      959.40838      36301.033      109446.16    
     83000   1490.0811     -33681.113     -34617.189      936.07533      36157.936      109446.16    
     83100   1488.6975     -33697.377     -34632.583      935.2062       35699.031      109446.16    
     83200   1485.7013     -33699.416     -34632.74       933.32393      35763.75       109446.16    
     83300   1515.4849     -33679.277     -34631.312      952.03417      35806.307      109446.16    
     83400   1503.1551     -33660.823     -34605.112      944.28848      36363.701      109446.16    
     83500   1510.778      -33658.832     -34607.909      949.07726      36346.965      109446.16    
     83600   1518.1386     -33667.551     -34621.252      953.70119      36304.768      109446.16    
     83700   1491.3536     -33680.966     -34617.841      936.87475      36262.059      109446.16    
     83800   1518.3758     -33686.483     -34640.333      953.85024      35460.088      109446.16    
     83900   1495.2729     -33685.636     -34624.973      939.33688      35795.42       109446.16    
     84000   1514.3492     -33666.242     -34617.563      951.32067      36486.111      109446.16    
     84100   1508.1862     -33660.554     -34608.003      947.44904      36422.356      109446.16    
     84200   1511.1664     -33676.279     -34625.6        949.32121      36235.521      109446.16    
     84300   1490.1382     -33694.582     -34630.693      936.11126      35782.435      109446.16    
     84400   1478.6638     -33697.476     -34626.379      928.90298      35969.987      109446.16    
     84500   1487.1982     -33682.488     -34616.753      934.2643       35873.316      109446.16    
     84600   1535.0881     -33661.754     -34626.103      964.34894      36334.471      109446.16    
     84700   1491.9701     -33667.711     -34604.973      937.26205      36495.947      109446.16    
     84800   1509.5576     -33677.188     -34625.499      948.31057      36089.706      109446.16    
     84900   1477.7417     -33687.559     -34615.883      928.32367      36195.554      109446.16    
     85000   1500.3079     -33685.263     -34627.763      942.49989      35866.879      109446.16    
     85100   1497.6051     -33687.301     -34628.103      940.80195      36150.315      109446.16    
     85200   1490.9268     -33686.263     -34622.869      936.60662      36032.768      109446.16    
     85300   1528.3891     -33672.497     -34632.638      960.14064      36161.998      109446.16    
     85400   1514.3102     -33665.958     -34617.254      951.29616      36027.866      109446.16    
     85500   1479.1397     -33659.259     -34588.461      929.20192      36785.504      109446.16    
     85600   1530.7044     -33657.075     -34618.67       961.5951       36220.605      109446.16    
     85700   1490.1951     -33683.912     -34620.059      936.14695      36157.514      109446.16    
     85800   1479.9018     -33697.316     -34626.997      929.68068      35904.287      109446.16    
     85900   1483.9828     -33693.761     -34626.006      932.24437      36010.261      109446.16    
     86000   1524.9916     -33676.911     -34634.917      958.00626      35853.83       109446.16    
     86100   1515.957      -33674.399     -34626.729      952.33069      36088.396      109446.16    
     86200   1488.1671     -33675.66      -34610.533      934.873        36458.682      109446.16    
     86300   1506.2131     -33677.898     -34624.108      946.20953      36052.949      109446.16    
     86400   1512.6481     -33688.15      -34638.402      950.25204      35354.283      109446.16    
     86500   1500.6695     -33695.476     -34638.203      942.72702      35619.991      109446.16    
     86600   1487.0835     -33688.532     -34622.725      934.19225      35934.137      109446.16    
     86700   1480.6004     -33665.328     -34595.447      930.11955      36713.083      109446.16    
     86800   1556.6526     -33649.68      -34627.575      977.89589      36272.152      109446.16    
     86900   1515.6955     -33661.374     -34613.541      952.16646      36222.719      109446.16    
     87000   1488.2046     -33675.352     -34610.249      934.89654      36390.404      109446.16    
     87100   1511.7379     -33682.407     -34632.088      949.68024      36258.845      109446.16    
     87200   1471.9652     -33696.537     -34621.232      924.69487      36096.458      109446.16    
     87300   1490.2261     -33692.193     -34628.36       936.16645      35874.643      109446.16    
     87400   1513.398      -33680.069     -34630.792      950.72316      36094.225      109446.16    
     87500   1497.1521     -33683.723     -34624.24       940.51737      35845.455      109446.16    
     87600   1494.2398     -33686.844     -34625.531      938.68785      35990.849      109446.16    
     87700   1487.7791     -33687.4       -34622.03       934.6292       36182.367      109446.16    
     87800   1517.8231     -33678.404     -34631.907      953.50301      35800.258      109446.16    
     87900   1510.8073     -33665.528     -34614.624      949.09565      36449.094      109446.16    
     88000   1529.7855     -33659.477     -34620.495      961.01785      36370.575      109446.16    
     88100   1494.6041     -33678.573     -34617.49       938.91675      36111.812      109446.16    
     88200   1500.9371     -33697.993     -34640.888      942.89514      35504.511      109446.16    
     88300   1468.6089     -33701.356     -34623.943      922.58645      35959.489      109446.16    
     88400   1487.0033     -33686.66      -34620.801      934.14187      35934.363      109446.16    
     88500   1496.698      -33674.055     -34614.287      940.23211      36165.8        109446.16    
     88600   1503.8867     -33673.307     -34618.055      944.7481       36232.426      109446.16    
     88700   1506.4434     -33677.439     -34623.793      946.35423      36059.113      109446.16    
     88800   1462.2175     -33695.861     -34614.432      918.57131      35852.426      109446.16    
     88900   1492.1241     -33695.64      -34632.998      937.35877      35826.678      109446.16    
     89000   1516.9236     -33675.594     -34628.532      952.93795      35914.601      109446.16    
     89100   1510.9953     -33642.317     -34591.531      949.21375      37016.632      109446.16    
     89200   1512.5388     -33643.99      -34594.174      950.1834       36905.374      109446.16    
     89300   1527.9647     -33661.97      -34621.844      959.87402      35994.296      109446.16    
     89400   1521.6371     -33680.673     -34636.572      955.89897      35581.969      109446.16    
     89500   1497.4823     -33687.544     -34628.269      940.72484      35871.727      109446.16    
     89600   1485.0518     -33686.413     -34619.328      932.91593      35942.413      109446.16    
     89700   1520.6093     -33672.544     -34627.797      955.25333      36145.698      109446.16    
     89800   1530.3147     -33654.376     -34615.726      961.35027      36449.247      109446.16    
     89900   1509.3445     -33657.987     -34606.164      948.1767       36346.229      109446.16    
     90000   1519.1945     -33684.446     -34638.811      954.36455      35660.229      109446.16    
     90100   1479.0199     -33703.966     -34633.093      929.12666      35877.315      109446.16    
     90200   1466.9486     -33698.3       -34619.844      921.54341      36061.619      109446.16    
     90300   1497.3834     -33676.962     -34617.625      940.66272      35935.403      109446.16    
     90400   1524.348      -33667.231     -34624.833      957.60196      36096.635      109446.16    
     90500   1514.8838     -33677.58      -34629.237      951.65654      36097.527      109446.16    
     90600   1467.8244     -33687.859     -34609.952      922.09358      36046.35       109446.16    
     90700   1500.92       -33682.776     -34625.66       942.8844       35967.162      109446.16    
     90800   1482.4258     -33689.633     -34620.899      931.26628      35986.034      109446.16    
     90900   1496.8439     -33685.953     -34626.277      940.32377      35740.264      109446.16    
     91000   1551.4522     -33659.198     -34633.827      974.62893      36131.418      109446.16    
     91100   1477.847      -33653.344     -34581.734      928.38982      36815.174      109446.16    
     91200   1548.3287     -33631.46      -34604.127      972.66678      36952.629      109446.16    
     91300   1531.7994     -33642.362     -34604.645      962.28297      36709.956      109446.16    
     91400   1499.7299     -33670.215     -34612.351      942.13675      36305.077      109446.16    
     91500   1499.4672     -33683.731     -34625.703      941.97173      35840.562      109446.16    
     91600   1492.765      -33692.667     -34630.428      937.7614       35675.008      109446.16    
     91700   1490.5303     -33693.364     -34629.721      936.35755      35723.298      109446.16    
     91800   1509.0003     -33675.072     -34623.033      947.96045      36340.518      109446.16    
     91900   1521.0499     -33657.079     -34612.609      955.53009      36186.445      109446.16    
     92000   1506.6924     -33666.32      -34612.83       946.51066      36102.474      109446.16    
     92100   1504.0856     -33682.45      -34627.323      944.87307      35787.795      109446.16    
     92200   1493.6912     -33687.987     -34626.33       938.34323      35876.806      109446.16    
     92300   1474.746      -33687.18      -34613.622      926.4418       36355.201      109446.16    
     92400   1513.3319     -33681.453     -34632.135      950.68161      35821.866      109446.16    
     92500   1488.7286     -33681.772     -34616.997      935.22572      36091.635      109446.16    
     92600   1499.3375     -33674.217     -34616.108      941.89026      36139.892      109446.16    
     92700   1511.1447     -33674.751     -34624.059      949.30758      35746.946      109446.16    
     92800   1491.2449     -33671.584     -34608.391      936.80644      36495.517      109446.16    
     92900   1536.2279     -33664.162     -34629.227      965.06499      36588.271      109446.16    
     93000   1486.1243     -33690.734     -34624.323      933.58967      35507.192      109446.16    
     93100   1485.1276     -33689.701     -34622.665      932.96355      35907.305      109446.16    
     93200   1494.0462     -33677.29      -34615.856      938.56625      36068.175      109446.16    
     93300   1513.2695     -33674.95      -34625.593      950.64243      36069.197      109446.16    
     93400   1506.7151     -33691.958     -34638.483      946.5249       35458.177      109446.16    
     93500   1484.5809     -33721.403     -34654.024      932.6201       35146.563      109446.16    
     93600   1465.6232     -33713         -34633.711      920.71083      35106.64       109446.16    
     93700   1503.1007     -33691.009     -34635.263      944.25434      35685.467      109446.16    
     93800   1507.7657     -33679.5       -34626.685      947.18489      35870.425      109446.16    
     93900   1498.7709     -33673.477     -34615.012      941.5343       36083.822      109446.16    
     94000   1488.5139     -33671.064     -34606.155      935.09082      36316.019      109446.16    
     94100   1515.1242     -33666.879     -34618.686      951.80754      36251.083      109446.16    
     94200   1498.0219     -33676.884     -34617.947      941.06381      36025.726      109446.16    
     94300   1493.7289     -33689.497     -34627.863      938.36691      35761.032      109446.16    
     94400   1503.8322     -33703.237     -34647.95       944.71389      35232.517      109446.16    
     94500   1467.0214     -33713.804     -34635.393      921.58917      35632.612      109446.16    
     94600   1493.9543     -33683.942     -34622.45       938.5085       35802.081      109446.16    
     94700   1475.2755     -33672.642     -34599.416      926.7744       36486.739      109446.16    
     94800   1534.3455     -33659.87      -34623.752      963.88245      36022.897      109446.16    
     94900   1498.7619     -33675.217     -34616.746      941.52868      36108.504      109446.16    
     95000   1502.5504     -33688.787     -34632.695      943.90864      35792.864      109446.16    
     95100   1491.676      -33687.842     -34624.919      937.07729      35902.16       109446.16    
     95200   1486.7575     -33679.231     -34613.218      933.98746      36337.894      109446.16    
     95300   1514.5099     -33674.541     -34625.963      951.42166      36036.176      109446.16    
     95400   1466.1261     -33682.928     -34603.955      921.02671      36295.594      109446.16    
     95500   1499.2149     -33676.793     -34618.606      941.81323      35903.963      109446.16    
     95600   1519.554      -33675.452     -34630.042      954.59037      35951.956      109446.16    
     95700   1510.2858     -33682.352     -34631.12       948.76805      35851.487      109446.16    
     95800   1487.9131     -33702.04      -34636.753      934.71339      35588.793      109446.16    
     95900   1468.2525     -33723.085     -34645.447      922.36253      35296.424      109446.16    
     96000   1492.9847     -33708.95      -34646.85       937.89943      35070.81       109446.16    
     96100   1469.1879     -33695.065     -34618.015      922.95019      36120.254      109446.16    
     96200   1492.4552     -33680.951     -34618.518      937.56678      36020.518      109446.16    
     96300   1499.9286     -33672.005     -34614.267      942.2616       35838.697      109446.16    
     96400   1529.8492     -33662.526     -34623.584      961.05784      36301.815      109446.16    
     96500   1476.8688     -33674.251     -34602.026      927.77534      36146.37       109446.16    
     96600   1510.7302     -33693.227     -34642.274      949.04724      35668.405      109446.16    
     96700   1468.8702     -33709.219     -34631.969      922.75056      35437.403      109446.16    
     96800   1493.9689     -33695.402     -34633.919      938.51772      35633.277      109446.16    
     96900   1508.8034     -33682.123     -34629.96       947.83682      35996.477      109446.16    
     97000   1500.6898     -33683.885     -34626.624      942.73976      35750.949      109446.16    
     97100   1496.0598     -33684.778     -34624.609      939.83121      35854.629      109446.16    
     97200   1494.6059     -33681.582     -34620.5        938.91785      35861.308      109446.16    
     97300   1506.3362     -33668.842     -34615.129      946.2869       36201.047      109446.16    
     97400   1496.5268     -33656.685     -34596.81       940.1246       36163.119      109446.16    
     97500   1523.3054     -33654.318     -34611.265      956.94702      36455.891      109446.16    
     97600   1504.8591     -33683.329     -34628.688      945.35896      35825.141      109446.16    
     97700   1498.4442     -33696.989     -34638.318      941.32909      35806.237      109446.16    
     97800   1480.3353     -33695.297     -34625.25       929.95304      35853.942      109446.16    
     97900   1480.6683     -33681.105     -34611.267      930.16218      36250.821      109446.16    
     98000   1512.8649     -33658.02      -34608.409      950.38823      36604.518      109446.16    
     98100   1526.8227     -33654.456     -34613.612      959.1566       36233.302      109446.16    
     98200   1512.7289     -33666.329     -34616.632      950.30281      35891.371      109446.16    
     98300   1499.8053     -33672.401     -34614.585      942.18412      35920.403      109446.16    
     98400   1460.0726     -33686.731     -34603.955      917.22392      35954.279      109446.16    
     98500   1516.6321     -33684.149     -34636.904      952.75478      35706.592      109446.16    
     98600   1487.067      -33687.499     -34621.681      934.18191      35705.564      109446.16    
     98700   1506.4543     -33687.014     -34633.375      946.3611       35558.066      109446.16    
     98800   1491.0609     -33684.337     -34621.028      936.6909       35798.811      109446.16    
     98900   1507.3482     -33674.439     -34621.362      946.92262      35976.86       109446.16    
     99000   1511.0957     -33666.527     -34615.804      949.27679      36270.528      109446.16    
     99100   1518.723      -33667.998     -34622.067      954.06832      36048.657      109446.16    
     99200   1503.595      -33688.287     -34632.852      944.56486      35917.682      109446.16    
     99300   1497.9956     -33702.585     -34643.633      941.04729      35737.779      109446.16    
     99400   1452.9572     -33705.631     -34618.385      912.75399      36030.247      109446.16    
     99500   1515.5947     -33672.165     -34624.268      952.10313      35931.791      109446.16    
     99600   1520.9634     -33665.569     -34621.045      955.47578      36056.149      109446.16    
     99700   1521.8478     -33670.955     -34626.986      956.03132      35845.955      109446.16    
     99800   1483.8705     -33689.615     -34621.789      932.17385      36148.253      109446.16    
     99900   1493.9898     -33700.036     -34638.566      938.53082      35847.275      109446.16    
    100000   1471.9997     -33726.181     -34650.897      924.71654      34979.857      109446.16    
Loop time of 20352.8 on 4 procs for 100000 steps with 4861 atoms

Performance: 0.425 ns/day, 56.536 hours/ns, 4.913 timesteps/s, 23.884 katom-step/s
97.1% CPU use with 4 MPI tasks x no OpenMP threads

MPI task timing breakdown:
Section |  min time  |  avg time  |  max time  |%varavg| %total
---------------------------------------------------------------
Pair    | 19650      | 19660      | 19667      |   5.2 | 96.59
Neigh   | 352.48     | 353.23     | 354.35     |   4.2 |  1.74
Comm    | 326.06     | 333.03     | 342        |  38.0 |  1.64
Output  | 3.0822     | 3.1565     | 3.2196     |   2.9 |  0.02
Modify  | 2.9421     | 2.9793     | 3.0214     |   1.9 |  0.01
Other   |            | 0.6898     |            |       |  0.00

Nlocal:        1215.25 ave        1216 max        1214 min
Histogram: 1 0 0 0 0 1 0 0 0 2
Nghost:           2985 ave        2993 max        2977 min
Histogram: 1 0 0 1 0 0 1 0 0 1
Neighs:              0 ave           0 max           0 min
Histogram: 4 0 0 0 0 0 0 0 0 0
FullNghs:      89899.5 ave       90024 max       89789 min
Histogram: 2 0 0 0 0 0 0 0 1 1

Total # of neighbors = 359598
Ave neighs/atom = 73.976137
Neighbor list builds = 100000
Dangerous builds not checked
Total wall time: 5:39:13
