LAMMPS (27 Jun 2024)
OMP_NUM_THREADS environment is not set. Defaulting to 1 thread. (src/comm.cpp:98)
  using 1 OpenMP thread(s) per MPI task
Reading data file ...
  orthogonal box = (0 0 0) to (67.266653 66.57672 40.643788)
  5 by 2 by 2 MPI processor grid
  reading atoms ...
  8064 atoms
  read_data CPU = 0.045 seconds
**************** Begin of POD Potentials ****************
species: Hf 
periodic boundary conditions: 1 1 1
number of environment clusters: 8
number of principal compoments: 2
inner cut-off radius: 1
outer cut-off radius: 5
cut-off function type: 1
gaussian_exponents: 
polynomial_degrees: 
bessel polynomial degree: 4
inverse polynomial degree: 10
one-body potential: 1
two-body radial basis functions: 8
three-body radial basis functions: 8
three-body angular degree: 6
four-body radial basis functions: 7
four-body angular degree: 5
five-body radial basis functions: 0
five-body angular degree: 0
six-body radial basis functions: 0
six-body angular degree: 0
seven-body radial basis functions: 0
seven-body angular degree: 0
number of local descriptors per element for one-body potential: 1
number of local descriptors per element for two-body potential: 8
number of local descriptors per element for three-body potential: 56
number of local descriptors per element for four-body potential: 112
number of local descriptors per element for five-body potential: 0
number of local descriptors per element for six-body potential: 0
number of local descriptors per element for seven-body potential: 0
number of local descriptors per element for all potentials: 177
number of global descriptors: 1409
**************** End of POD Potentials ****************

**************** Begin of Model Coefficients ****************
total number of coefficients for POD potential: 1409
total number of elements for PCA projection matrix: 352
total number of elements for PCA centroids: 16
**************** End of Model Coefficients ****************


CITE-CITE-CITE-CITE-CITE-CITE-CITE-CITE-CITE-CITE-CITE-CITE-CITE

Your simulation uses code contributions which should be cited:
- Type Label Framework: https://doi.org/10.1021/acs.jpcb.3c08419
The log file lists these citations in BibTeX format.

CITE-CITE-CITE-CITE-CITE-CITE-CITE-CITE-CITE-CITE-CITE-CITE-CITE

Neighbor list info ...
  update: every = 1 steps, delay = 0 steps, check = no
  max neighbors/atom: 2000, page size: 100000
  master list distance cutoff = 7
  ghost atom cutoff = 7
  binsize = 3.5, bins = 20 20 12
  1 neighbor lists, perpetual/occasional/extra = 1 0 0
  (1) pair pod, perpetual
      attributes: full, newton on
      pair build: full/bin/atomonly
      stencil: full/bin/3d
      bin: standard
Setting up Verlet run ...
  Unit style    : metal
  Current step  : 0
  Time step     : 0.001
Per MPI rank memory allocation (min/avg/max) = 2.639 | 2.64 | 2.64 Mbytes
   Step          Temp          TotEng         PotEng         KinEng         Press          Volume    
         0   300           -58170.713     -58483.381      312.66736      27705.687      182018.86    
       100   317.00368     -58216.478     -58546.867      330.38902      9796.812       182018.86    
       200   239.90908     -58231.324     -58481.363      250.03913      10683.955      182018.86    
       300   337.54107     -58216.32      -58568.114      351.79359      9415.0046      182018.86    
       400   347.26757     -58256.984     -58618.915      361.93078      9306.4532      182018.86    
       500   339.91565     -58293.354     -58647.623      354.26844      8436.1982      182018.86    
       600   294.29574     -58313.539     -58620.261      306.72224      8398.8051      182018.86    
       700   288.24817     -58319.275     -58619.695      300.41932      9083.4556      182018.86    
       800   299.36645     -58321.446     -58633.453      312.00707      8623.4899      182018.86    
       900   292.6313      -58322.15      -58627.137      304.98752      8472.393       182018.86    
      1000   313.28272     -58313.594     -58640.105      326.51094      8394.838       182018.86    
      1100   296.12762     -58309.393     -58618.025      308.63147      8801.6763      182018.86    
      1200   307.05295     -58307.939     -58627.957      320.01812      8738.8558      182018.86    
      1300   292.48416     -58315.933     -58620.767      304.83418      8377.9299      182018.86    
      1400   300.7532      -58319.822     -58633.275      313.45236      8546.9331      182018.86    
      1500   293.20952     -58322.979     -58628.569      305.59016      8566.3174      182018.86    
      1600   311.13532     -58314.89      -58639.163      324.27287      8422.7942      182018.86    
      1700   294.93163     -58312.912     -58620.297      307.38499      8705.4694      182018.86    
      1800   303.47611     -58308.677     -58624.968      316.29025      8788.1292      182018.86    
      1900   299.102       -58315.475     -58627.206      311.73145      8829.4851      182018.86    
      2000   295.76479     -58321.842     -58630.095      308.25332      8407.4447      182018.86    
      2100   311.52784     -58319.903     -58644.585      324.68196      8416.5773      182018.86    
      2200   285.61867     -58322.31      -58619.989      297.67879      8514.6602      182018.86    
      2300   307.42739     -58311.282     -58631.691      320.40838      8650.3138      182018.86    
      2400   291.39533     -58312.615     -58616.314      303.69936      8876.8437      182018.86    
      2500   307.23217     -58309.591     -58629.796      320.20491      8734.3145      182018.86    
      2600   302.50136     -58314.148     -58629.422      315.27435      8654.4856      182018.86    
      2700   300.31748     -58319.773     -58632.772      312.99825      8597.1843      182018.86    
      2800   295.52548     -58321.352     -58629.356      308.00391      8671.5472      182018.86    
      2900   302.90502     -58319.37      -58635.065      315.69505      8577.5682      182018.86    
      3000   296.15915     -58317.144     -58625.809      308.66434      8609.217       182018.86    
      3100   304.31042     -58310.829     -58627.989      317.15979      8800.7209      182018.86    
      3200   299.84902     -58311.476     -58623.986      312.51001      8738.3914      182018.86    
      3300   304.69389     -58312.659     -58630.218      317.55945      8724.438       182018.86    
      3400   298.91258     -58317.659     -58629.193      311.53403      8598.5006      182018.86    
      3500   299.2521      -58321.004     -58632.891      311.88788      8564.1082      182018.86    
      3600   294.65893     -58321.903     -58629.004      307.10077      8536.9466      182018.86    
      3700   301.67896     -58314.363     -58628.78       314.41722      8767.0578      182018.86    
      3800   303.74704     -58309.985     -58626.558      316.57262      8624.4272      182018.86    
      3900   304.16045     -58312.358     -58629.362      317.00348      8670.22        182018.86    
      4000   293.91276     -58318.165     -58624.488      306.32309      8788.399       182018.86    
      4100   302.17709     -58317.562     -58632.498      314.93639      8647.7972      182018.86    
      4200   297.27359     -58319.07      -58628.896      309.82583      8531.7856      182018.86    
      4300   298.48972     -58319.107     -58630.201      311.09331      8806.7096      182018.86    
      4400   302.9556      -58314.003     -58629.75       315.74777      8862.0809      182018.86    
      4500   300.95774     -58313.462     -58627.127      313.66555      8637.6403      182018.86    
      4600   297.56882     -58315.982     -58626.116      310.13353      8662.6998      182018.86    
      4700   304.6717      -58314.801     -58632.337      317.53632      8907.0669      182018.86    
      4800   296.16731     -58318.487     -58627.16       308.67284      8673.469       182018.86    
      4900   301.33094     -58318.643     -58632.697      314.05451      8537.3189      182018.86    
      5000   299.13303     -58315.891     -58627.655      311.76378      8821.9351      182018.86    
      5100   300.83436     -58312.599     -58626.136      313.53696      8785.3292      182018.86    
      5200   299.81546     -58313.729     -58626.204      312.47503      8712.1782      182018.86    
      5300   298.3367      -58316.844     -58627.778      310.93384      8847.1259      182018.86    
      5400   301.116       -58324.162     -58637.992      313.83048      8489.1195      182018.86    
      5500   292.76192     -58325.074     -58630.198      305.12366      8638.3152      182018.86    
      5600   300.14239     -58318.643     -58631.459      312.81576      8803.9276      182018.86    
      5700   298.89375     -58318.654     -58630.168      311.5144       8552.7285      182018.86    
      5800   302.21494     -58316.918     -58631.894      314.97583      8718.0486      182018.86    
      5900   296.24871     -58313.985     -58622.743      308.75768      8746.2069      182018.86    
      6000   311.81225     -58308.04      -58633.019      324.97838      8843.7705      182018.86    
      6100   297.67015     -58311.919     -58622.158      310.23914      8720.2637      182018.86    
      6200   303.72257     -58312.637     -58629.184      316.54712      8830.9563      182018.86    
      6300   293.94609     -58317.074     -58623.432      306.35783      8958.574       182018.86    
      6400   303.19864     -58318.281     -58634.282      316.00106      8631.7375      182018.86    
      6500   296.41952     -58321.067     -58630.003      308.9357       8792.1716      182018.86    
      6600   306.31804     -58316.484     -58635.737      319.25218      8796.0487      182018.86    
      6700   293.69929     -58317.153     -58623.254      306.10061      8805.4119      182018.86    
      6800   303.02595     -58314.173     -58629.994      315.82108      8711.3502      182018.86    
      6900   298.30804     -58315.85      -58626.754      310.90396      8813.2989      182018.86    
      7000   298.15364     -58319.001     -58629.745      310.74305      8808.908       182018.86    
      7100   300.42405     -58319.753     -58632.862      313.10932      8742.2618      182018.86    
      7200   297.80522     -58316.82      -58627.2        310.37991      8830.1435      182018.86    
      7300   305.95057     -58310.279     -58629.148      318.8692       8812.2266      182018.86    
      7400   297.13746     -58312.865     -58622.549      309.68395      8909.0929      182018.86    
      7500   302.20628     -58314.87      -58629.836      314.96681      8943.8742      182018.86    
      7600   298.83217     -58320.172     -58631.622      311.45023      8777.7904      182018.86    
      7700   296.9953      -58321.575     -58631.11       309.53579      8663.9738      182018.86    
      7800   299.91177     -58319.585     -58632.16       312.57541      8788.501       182018.86    
      7900   300.26127     -58316.873     -58629.813      312.93966      8855.6894      182018.86    
      8000   299.91519     -58313.742     -58626.321      312.57897      8848.993       182018.86    
      8100   300.19782     -58311.648     -58624.522      312.87353      8768.1412      182018.86    
      8200   303.81806     -58312.776     -58629.423      316.64665      8864.6973      182018.86    
      8300   297.40519     -58319.215     -58629.178      309.96299      8746.4283      182018.86    
      8400   299.48116     -58320.118     -58632.245      312.12661      8707.091       182018.86    
      8500   297.5199      -58318.915     -58628.998      310.08254      8914.8222      182018.86    
      8600   301.31583     -58312.357     -58626.395      314.03875      8992.4048      182018.86    
      8700   305.02498     -58309.985     -58627.89       317.90453      8957.8284      182018.86    
      8800   299.31041     -58314.101     -58626.05       311.94865      8773.8317      182018.86    
      8900   299.63247     -58314.266     -58626.55       312.28431      8826.7963      182018.86    
      9000   302.26898     -58315.513     -58630.545      315.03215      8921.9556      182018.86    
      9100   297.23492     -58318.829     -58628.614      309.78553      8881.8222      182018.86    
      9200   300.15486     -58318.165     -58630.993      312.82876      8788.2048      182018.86    
      9300   298.12267     -58317.797     -58628.508      310.71077      8876.9645      182018.86    
      9400   302.45817     -58314.261     -58629.49       315.22933      8833.0197      182018.86    
      9500   299.73882     -58311.814     -58624.21       312.39516      8862.8305      182018.86    
      9600   305.12347     -58309.367     -58627.374      318.00718      8918.9141      182018.86    
      9700   300.87716     -58315.4       -58628.981      313.58156      8888.2487      182018.86    
      9800   298.29646     -58319.154     -58630.046      310.89189      8773.146       182018.86    
      9900   300.27472     -58317.956     -58630.909      312.95368      8842.1346      182018.86    
     10000   300.17385     -58314.761     -58627.609      312.84855      8866.4492      182018.86    
     10100   302.08834     -58310.525     -58625.368      314.84388      8886.7378      182018.86    
     10200   307.23609     -58307.258     -58627.467      320.20899      8856.5973      182018.86    
     10300   302.89275     -58308.668     -58624.35       315.68226      9009.1678      182018.86    
     10400   298.70135     -58316.188     -58627.502      311.31388      8890.4615      182018.86    
     10500   299.5492      -58317.918     -58630.115      312.19753      8897.934       182018.86    
     10600   302.50119     -58316.817     -58632.092      315.27417      8829.1203      182018.86    
     10700   298.06376     -58315.797     -58626.447      310.64937      8920.6286      182018.86    
     10800   302.06554     -58312.652     -58627.472      314.82012      8876.3729      182018.86    
     10900   302.31263     -58310.83      -58625.908      315.07765      8976.3158      182018.86    
     11000   301.53142     -58312.224     -58626.487      314.26344      8936.8276      182018.86    
     11100   300.36411     -58318.455     -58631.502      313.04685      8821.0481      182018.86    
     11200   300.60221     -58321.08      -58634.375      313.29501      8752.0461      182018.86    
     11300   296.84704     -58320.378     -58629.76       309.38127      8930.4599      182018.86    
     11400   297.99059     -58315.794     -58626.367      310.57311      8987.9229      182018.86    
     11500   304.41931     -58308.834     -58626.107      317.27328      8989.4006      182018.86    
     11600   303.74359     -58310.977     -58627.546      316.56903      8908.4483      182018.86    
     11700   300.93957     -58316.34      -58629.987      313.64661      8840.8145      182018.86    
     11800   298.14089     -58319.835     -58630.565      310.72975      8914.4917      182018.86    
     11900   297.01973     -58321.126     -58630.687      309.56126      8832.7988      182018.86    
     12000   300.06076     -58317.534     -58630.265      312.73069      8817.4038      182018.86    
     12100   300.84293     -58312.319     -58625.865      313.54588      8957.3771      182018.86    
     12200   303.08227     -58311.123     -58627.003      315.87979      8931.5991      182018.86    
     12300   302.20201     -58314.114     -58629.076      314.96236      8888.4259      182018.86    
     12400   301.12293     -58319.022     -58632.859      313.83771      8798.3151      182018.86    
     12500   298.44231     -58318.916     -58629.96       311.0439       8900.9979      182018.86    
     12600   297.77904     -58316.794     -58627.146      310.35263      8889.4381      182018.86    
     12700   304.91991     -58313.553     -58631.348      317.79501      8849.8339      182018.86    
     12800   298.471       -58312.671     -58623.745      311.0738       9088.997       182018.86    
     12900   306.31163     -58308.355     -58627.601      319.2455       9025.0708      182018.86    
     13000   299.49492     -58314.219     -58626.36       312.14096      8989.3262      182018.86    
     13100   300.77352     -58319.849     -58633.323      313.47355      8735.1913      182018.86    
     13200   298.05467     -58318.876     -58629.516      310.6399       8857.7083      182018.86    
     13300   301.98886     -58314.487     -58629.227      314.7402       8930.8359      182018.86    
     13400   303.14922     -58314.034     -58629.984      315.94956      8850.4051      182018.86    
     13500   294.11022     -58318.987     -58625.516      306.52889      8861.7749      182018.86    
     13600   300.42639     -58319.825     -58632.937      313.11176      8756.9277      182018.86    
     13700   296.24622     -58322.495     -58631.25       308.75508      8881.2513      182018.86    
     13800   299.37791     -58320.689     -58632.708      312.01901      8868.2699      182018.86    
     13900   301.97809     -58314.436     -58629.165      314.72898      8945.5325      182018.86    
     14000   300.39105     -58313.377     -58626.452      313.07493      8978.8488      182018.86    
     14100   304.21507     -58314.774     -58631.835      317.06042      8868.8596      182018.86    
     14200   290.10991     -58321.398     -58623.757      302.35967      8956.8761      182018.86    
     14300   301.90741     -58319.492     -58634.147      314.65532      8866.438       182018.86    
     14400   299.83728     -58317.734     -58630.232      312.49778      8856.5823      182018.86    
     14500   300.02849     -58316.261     -58628.958      312.69706      8947.4956      182018.86    
     14600   297.49395     -58317.448     -58627.503      310.05549      8911.4474      182018.86    
     14700   299.17181     -58316.227     -58628.031      311.80421      9041.6931      182018.86    
     14800   305.1842      -58307.97      -58626.041      318.07047      9015.3697      182018.86    
     14900   303.82401     -58309.053     -58625.706      316.65284      8958.5148      182018.86    
     15000   299.85837     -58315.628     -58628.148      312.51975      8991.002       182018.86    
     15100   298.02281     -58317.956     -58628.563      310.60669      8958.2913      182018.86    
     15200   302.29188     -58316.328     -58631.384      315.05601      8951.4974      182018.86    
     15300   300.54963     -58315         -58628.24       313.24021      8902.8653      182018.86    
     15400   299.15958     -58312.579     -58624.371      311.79146      8952.6611      182018.86    
     15500   302.93636     -58308.597     -58624.324      315.72771      9073.8979      182018.86    
     15600   302.97497     -58310.592     -58626.36       315.76795      8912.0678      182018.86    
     15700   303.30589     -58317.055     -58633.168      316.11284      8925.4116      182018.86    
     15800   295.10563     -58319.755     -58627.321      307.56633      8937.6262      182018.86    
     15900   299.90843     -58317.373     -58629.945      312.57193      8853.2118      182018.86    
     16000   299.05202     -58315.103     -58626.782      311.67935      8918.9024      182018.86    
     16100   304.76413     -58308.643     -58626.276      317.63266      9020.8645      182018.86    
     16200   304.36702     -58306.629     -58623.847      317.21878      9068.2874      182018.86    
     16300   299.39599     -58315.404     -58627.441      312.03785      8896.9605      182018.86    
     16400   301.89142     -58317.345     -58631.983      314.63865      8860.0509      182018.86    
     16500   295.80148     -58319.752     -58628.044      308.29157      8928.047       182018.86    
     16600   300.0397      -58318.448     -58631.157      312.70874      8846.6507      182018.86    
     16700   301.29836     -58314.658     -58628.679      314.02055      8972.7632      182018.86    
     16800   304.0597      -58310.202     -58627.101      316.89848      8994.1238      182018.86    
     16900   301.47178     -58308.87      -58623.071      314.20129      9052.3364      182018.86    
     17000   300.46448     -58315.045     -58628.196      313.15145      8882.8367      182018.86    
     17100   299.02369     -58320.598     -58632.248      311.64983      8910.3896      182018.86    
     17200   294.88055     -58321.534     -58628.866      307.33174      8938.3094      182018.86    
     17300   301.00183     -58317.567     -58631.279      313.7115       8879.5616      182018.86    
     17400   305.34789     -58312.652     -58630.893      318.24107      8857.3551      182018.86    
     17500   302.77894     -58309.313     -58624.877      315.56364      9004.6728      182018.86    
     17600   296.77797     -58313.243     -58622.553      309.30929      9004.6413      182018.86    
     17700   303.21921     -58320.961     -58636.984      316.0225       8830.1524      182018.86    
     17800   297.86473     -58320.483     -58630.924      310.44193      8866.6769      182018.86    
     17900   299.92769     -58315.493     -58628.085      312.592        8988.46        182018.86    
     18000   304.04267     -58311.501     -58628.381      316.88074      8948.7752      182018.86    
     18100   299.56681     -58312.91      -58625.126      312.21588      9001.4302      182018.86    
     18200   299.13778     -58318.943     -58630.712      311.76873      8904.7338      182018.86    
     18300   300.12146     -58321.156     -58633.95       312.79395      8771.1071      182018.86    
     18400   297.39326     -58319.475     -58629.426      309.95055      8888.8671      182018.86    
     18500   300.73686     -58316.092     -58629.527      313.43534      8916.1641      182018.86    
     18600   299.58023     -58315.212     -58627.442      312.22987      9018.6093      182018.86    
     18700   299.7059      -58315.629     -58627.99       312.36085      8976.9453      182018.86    
     18800   301.46885     -58315.727     -58629.925      314.19824      8882.1827      182018.86    
     18900   300.941       -58315.421     -58629.069      313.64809      9007.4034      182018.86    
     19000   299.00971     -58316.544     -58628.179      311.63526      8982.1048      182018.86    
     19100   298.85586     -58317.815     -58629.29       311.47492      8859.6991      182018.86    
     19200   300.76051     -58317.823     -58631.283      313.45998      8908.7391      182018.86    
     19300   297.28968     -58318.054     -58627.897      309.8426       8864.2404      182018.86    
     19400   304.92754     -58314.627     -58632.429      317.80297      8915.7704      182018.86    
     19500   301.85071     -58312.726     -58627.322      314.59622      8989.0274      182018.86    
     19600   298.51344     -58312.55      -58623.668      311.11803      8937.5743      182018.86    
     19700   298.93482     -58315.789     -58627.347      311.55721      8994.0103      182018.86    
     19800   300.58459     -58320.608     -58633.885      313.27664      8912.3382      182018.86    
     19900   300.41459     -58322.535     -58635.635      313.09946      8762.9648      182018.86    
     20000   295.73624     -58320.124     -58628.347      308.22357      8883.8303      182018.86    
     20100   301.95372     -58312.134     -58626.837      314.70358      8931.3763      182018.86    
     20200   300.90822     -58312.314     -58625.928      313.61393      8911.0757      182018.86    
     20300   298.38019     -58316.049     -58627.028      310.97916      8927.3385      182018.86    
     20400   300.32502     -58319.285     -58632.292      313.00611      8908.1705      182018.86    
     20500   301.72836     -58321.309     -58635.777      314.4687       8810.8247      182018.86    
     20600   291.94279     -58325.486     -58629.756      304.26995      8888.2232      182018.86    
     20700   298.99483     -58320.257     -58631.876      311.61975      8891.9564      182018.86    
     20800   299.61185     -58316.203     -58628.466      312.26282      8924.2911      182018.86    
     20900   303.99245     -58312.658     -58629.486      316.82839      8954.3073      182018.86    
     21000   300.80397     -58313.196     -58626.702      313.50528      8967.6476      182018.86    
     21100   298.59073     -58317.063     -58628.262      311.19859      8940.0876      182018.86    
     21200   299.28951     -58317.935     -58629.862      311.92688      8880.901       182018.86    
     21300   301.42071     -58317.426     -58631.575      314.14806      8888.7077      182018.86    
     21400   302.76097     -58315.663     -58631.208      315.54492      8939.4901      182018.86    
     21500   294.0113      -58316.24      -58622.666      306.4258       8937.959       182018.86    
     21600   302.1598      -58314.959     -58629.878      314.91836      8908.9219      182018.86    
     21700   300.77968     -58315.589     -58629.069      313.47997      8992.9667      182018.86    
     21800   299.23258     -58317.836     -58629.704      311.86754      8876.3401      182018.86    
     21900   299.27488     -58318.367     -58630.279      311.91163      8803.0381      182018.86    
     22000   297.8541      -58317.861     -58628.292      310.43086      8864.5769      182018.86    
     22100   302.77655     -58314.841     -58630.403      315.56116      8926.0438      182018.86    
     22200   296.11043     -58313.987     -58622.601      308.61356      8977.8235      182018.86    
     22300   304.38413     -58310.304     -58627.54       317.23661      8997.5134      182018.86    
     22400   301.45846     -58313.553     -58627.74       314.1874       8921.1926      182018.86    
     22500   299.50521     -58319.454     -58631.606      312.15169      8768.2398      182018.86    
     22600   298.8485      -58320.757     -58632.224      311.46724      8857.3428      182018.86    
     22700   295.94156     -58319.607     -58628.045      308.43756      8887.7928      182018.86    
     22800   299.00507     -58315.165     -58626.796      311.63043      8893.8046      182018.86    
     22900   308.14237     -58305.598     -58626.751      321.15355      8995.4995      182018.86    
     23000   304.00984     -58306.44      -58623.286      316.84652      9047.9642      182018.86    
     23100   302.93048     -58311.189     -58626.91       315.72158      8991.0195      182018.86    
     23200   298.29291     -58317.766     -58628.654      310.88819      8950.6039      182018.86    
     23300   298.64306     -58319.832     -58631.085      311.25313      8851.6664      182018.86    
     23400   301.90965     -58319.109     -58633.767      314.65765      8853.8811      182018.86    
     23500   299.16258     -58316.776     -58628.571      311.79458      8899.5187      182018.86    
     23600   301.48595     -58309.268     -58623.484      314.21605      9073.2981      182018.86    
     23700   301.11575     -58310.403     -58624.233      313.83023      9059.0178      182018.86    
     23800   301.03184     -58314.35      -58628.093      313.74277      8916.4943      182018.86    
     23900   304.2472      -58317.473     -58634.567      317.0939       8869.9454      182018.86    
     24000   298.19629     -58319.925     -58630.713      310.78749      8981.1074      182018.86    
     24100   298.38117     -58318.484     -58629.464      310.98018      8949.5856      182018.86    
     24200   297.83384     -58317.305     -58627.715      310.40974      8932.4323      182018.86    
     24300   305.14419     -58315.23      -58633.259      318.02876      8881.4855      182018.86    
     24400   297.92482     -58316.544     -58627.048      310.50457      8985.1925      182018.86    
     24500   298.8512      -58316.526     -58627.996      311.47006      9032.0655      182018.86    
     24600   299.03205     -58316.417     -58628.075      311.65855      8880.7176      182018.86    
     24700   305.43059     -58315.832     -58634.16       318.32726      8812.3513      182018.86    
     24800   297.97149     -58318.432     -58628.985      310.5532       8899.2118      182018.86    
     24900   297.83229     -58317.163     -58627.571      310.40812      8910.7549      182018.86    
     25000   303.37702     -58309.928     -58626.115      316.18698      9010.2108      182018.86    
     25100   303.42917     -58306.123     -58622.364      316.24133      9165.2088      182018.86    
     25200   301.63571     -58310.388     -58624.76       314.37214      9020.4603      182018.86    
     25300   301.0449      -58313.606     -58627.362      313.75638      8971.354       182018.86    
     25400   297.12171     -58317.012     -58626.68       309.66754      8974.8417      182018.86    
     25500   302.38745     -58318.408     -58633.563      315.15562      8940.3425      182018.86    
     25600   294.55495     -58321.018     -58628.01       306.9924       8918.2348      182018.86    
     25700   299.7073      -58318.327     -58630.69       312.36231      8869.4286      182018.86    
     25800   304.6805      -58311.714     -58629.259      317.5455       9015.6785      182018.86    
     25900   304.61734     -58309.513     -58626.993      317.47967      8961.5647      182018.86    
     26000   301.42773     -58313.312     -58627.468      314.15538      9001.9564      182018.86    
     26100   294.91428     -58318.456     -58625.822      307.36691      8964.7316      182018.86    
     26200   301.86313     -58317.078     -58631.687      314.60916      8878.7181      182018.86    
     26300   304.05933     -58315.725     -58632.623      316.8981       8880.1956      182018.86    
     26400   299.08716     -58316.109     -58627.825      311.71598      8952.5208      182018.86    
     26500   297.65451     -58315.233     -58625.456      310.22284      9012.92        182018.86    
     26600   302.43203     -58313.197     -58628.399      315.20209      9041.4769      182018.86    
     26700   301.28949     -58315.593     -58629.604      314.0113       8913.5227      182018.86    
     26800   300.08423     -58319.972     -58632.727      312.75515      8879.2749      182018.86    
     26900   295.24397     -58323.236     -58630.947      307.71051      8893.9992      182018.86    
     27000   300.6853      -58319.114     -58632.496      313.3816       8994.9663      182018.86    
     27100   300.17969     -58310.852     -58623.707      312.85464      9116.4488      182018.86    
     27200   304.65086     -58311.358     -58628.873      317.51461      8958.6262      182018.86    
     27300   300.27498     -58315.506     -58628.46       312.95396      8985.1244      182018.86    
     27400   299.78712     -58317.007     -58629.452      312.4455       9031.3776      182018.86    
     27500   295.59703     -58320.329     -58628.408      308.07848      8897.9597      182018.86    
     27600   297.02447     -58325.234     -58634.8        309.56619      8872.6924      182018.86    
     27700   298.95949     -58325.16      -58636.743      311.58292      8864.9079      182018.86    
     27800   297.01163     -58318.348     -58627.9        309.55282      8965.1951      182018.86    
     27900   301.42552     -58314.211     -58628.364      314.15308      8955.4678      182018.86    
     28000   299.50972     -58315.163     -58627.32       312.15639      8998.7339      182018.86    
     28100   301.77943     -58317.453     -58631.975      314.52193      8975.7603      182018.86    
     28200   295.22452     -58322.414     -58630.104      307.69024      8928.1293      182018.86    
     28300   298.31678     -58322.871     -58633.785      310.91307      8847.766       182018.86    
     28400   304.1349      -58314.073     -58631.05       316.97685      9029.3376      182018.86    
     28500   297.15053     -58314.189     -58623.887      309.69758      9015.6455      182018.86    
     28600   300.11348     -58315.335     -58628.121      312.78564      8983.4957      182018.86    
     28700   299.15931     -58318.395     -58630.186      311.79118      8897.4762      182018.86    
     28800   297.73469     -58321.859     -58632.165      310.3064       8839.6906      182018.86    
     28900   296.25454     -58323.559     -58632.322      308.76376      8889.4976      182018.86    
     29000   299.57107     -58317.71      -58629.93       312.22033      8965.8986      182018.86    
     29100   303.86248     -58313.304     -58629.997      316.69293      8931.4235      182018.86    
     29200   297.56168     -58314.303     -58624.429      310.12609      9013.6228      182018.86    
     29300   300.94882     -58314.7       -58628.357      313.65625      9029.9587      182018.86    
     29400   299.16356     -58321.162     -58632.958      311.79561      8885.2364      182018.86    
     29500   295.78167     -58322.804     -58631.075      308.27092      8915.3527      182018.86    
     29600   297.05255     -58319.929     -58629.524      309.59546      8978.9617      182018.86    
     29700   300.18202     -58317.15      -58630.007      312.85708      8918.3177      182018.86    
     29800   304.51795     -58316.107     -58633.483      317.37609      8867.9987      182018.86    
     29900   299.08974     -58316.866     -58628.585      311.71867      8977.1262      182018.86    
     30000   299.81085     -58315.87      -58628.34       312.47023      8971.2634      182018.86    
     30100   299.03703     -58316.348     -58628.011      311.66373      8951.1324      182018.86    
     30200   300.83846     -58316.817     -58630.358      313.54123      8991.0932      182018.86    
     30300   301.80187     -58317.009     -58631.555      314.54532      8900.306       182018.86    
     30400   297.35758     -58318.088     -58628.002      309.91337      8923.4616      182018.86    
     30500   301.90909     -58315.06      -58629.717      314.65706      8995.4189      182018.86    
     30600   299.56403     -58313.424     -58625.637      312.21299      8946.4404      182018.86    
     30700   306.21659     -58310.122     -58629.268      319.14645      9008.4239      182018.86    
     30800   299.19007     -58313.035     -58624.858      311.82324      9001.5186      182018.86    
     30900   297.38533     -58318.679     -58628.621      309.94229      8916.5986      182018.86    
     31000   300.72171     -58319.671     -58633.091      313.41955      8844.2485      182018.86    
     31100   298.85802     -58318.694     -58630.171      311.47717      8839.2759      182018.86    
     31200   305.07539     -58312.161     -58630.118      317.95706      8969.4488      182018.86    
     31300   302.00619     -58308.273     -58623.031      314.75826      9093.2645      182018.86    
     31400   299.08494     -58311.717     -58623.431      311.71367      9121.04        182018.86    
     31500   301.09148     -58315.082     -58628.887      313.80493      9032.7092      182018.86    
     31600   298.96437     -58316.653     -58628.241      311.58801      8961.1719      182018.86    
     31700   302.11938     -58316.214     -58631.09       314.87624      8990.5132      182018.86    
     31800   300.4388      -58317.124     -58630.248      313.12469      8953.9556      182018.86    
     31900   294.71957     -58319.239     -58626.403      307.16397      8946.2539      182018.86    
     32000   302.20552     -58316.557     -58631.523      314.96601      8938.2191      182018.86    
     32100   298.02249     -58313.506     -58624.112      310.60636      9020.8456      182018.86    
     32200   305.89697     -58308.171     -58626.984      318.81333      9082.7792      182018.86    
     32300   299.86979     -58311.354     -58623.885      312.53166      9095.2442      182018.86    
     32400   303.29144     -58315.931     -58632.029      316.09778      8933.2722      182018.86    
     32500   298.73155     -58319.138     -58630.483      311.34536      8941.3239      182018.86    
     32600   298.33692     -58318.081     -58629.015      310.93406      8894.1811      182018.86    
     32700   300.39102     -58314.958     -58628.033      313.07489      8960.6234      182018.86    
     32800   302.8966      -58312.245     -58627.931      315.68627      8915.6435      182018.86    
     32900   302.35943     -58312.08      -58627.206      315.12642      8998.7173      182018.86    
     33000   295.7864      -58317.57      -58625.846      308.27585      8979.7982      182018.86    
     33100   298.34099     -58321.484     -58632.422      310.9383       8891.0631      182018.86    
     33200   301.6538      -58321.418     -58635.809      314.391        8859.9143      182018.86    
     33300   302.78269     -58315.457     -58631.025      315.56755      8991.8616      182018.86    
     33400   300.43619     -58312.287     -58625.409      313.12197      8935.6224      182018.86    
     33500   301.41131     -58313.318     -58627.457      314.13827      8965.7665      182018.86    
     33600   299.73128     -58317.039     -58629.426      312.3873       8938.2368      182018.86    
     33700   297.41702     -58321.109     -58631.084      309.97532      8934.0798      182018.86    
     33800   302.33089     -58320.176     -58635.272      315.09667      8894.4587      182018.86    
     33900   299.2316      -58312.641     -58624.508      311.86652      9078.235       182018.86    
     34000   300.92496     -58310.094     -58623.725      313.63138      9083.5745      182018.86    
     34100   300.87871     -58313.457     -58627.04       313.58318      8987.0035      182018.86    
     34200   300.44231     -58317.918     -58631.046      313.12835      8964.0316      182018.86    
     34300   300.3958      -58318.636     -58631.716      313.07987      8972.4652      182018.86    
     34400   295.78499     -58319.733     -58628.007      308.27438      8916.5258      182018.86    
     34500   302.45254     -58316.874     -58632.098      315.22346      8995.7862      182018.86    
     34600   294.95294     -58317.758     -58625.166      307.4072       9005.307       182018.86    
     34700   300.74563     -58316.14      -58629.584      313.44448      8939.6318      182018.86    
     34800   300.34085     -58314.504     -58627.526      313.0226       8939.6994      182018.86    
     34900   304.39994     -58308.641     -58625.894      317.2531       9041.6684      182018.86    
     35000   302.15663     -58308.747     -58623.662      314.91505      9131.9513      182018.86    
     35100   299.82532     -58315.287     -58627.772      312.48531      8942.9904      182018.86    
     35200   300.4885      -58318.334     -58631.511      313.17649      8891.2452      182018.86    
     35300   300.40141     -58318.586     -58631.672      313.08572      8891.5252      182018.86    
     35400   299.5714      -58317.044     -58629.264      312.22067      8902.6974      182018.86    
     35500   301.48266     -58311.205     -58625.418      314.21262      9022.1699      182018.86    
     35600   304.66285     -58306.29      -58623.818      317.5271       9119.8635      182018.86    
     35700   302.51314     -58310.251     -58625.538      315.28662      9044.6152      182018.86    
     35800   302.74174     -58314.177     -58629.702      315.52487      8977.0929      182018.86    
     35900   302.4043      -58316.129     -58631.303      315.17319      8902.6727      182018.86    
     36000   297.63167     -58319.757     -58629.956      310.19903      9022.8135      182018.86    
     36100   296.68616     -58321.553     -58630.767      309.2136       8967.5974      182018.86    
     36200   300.75376     -58316.607     -58630.06       313.45295      8889.3881      182018.86    
     36300   302.5867      -58310.516     -58625.879      315.36328      8961.7887      182018.86    
     36400   300.49769     -58311.194     -58624.38       313.18607      9007.8766      182018.86    
     36500   300.97687     -58316.096     -58629.782      313.68549      9002.4357      182018.86    
     36600   298.95834     -58318.656     -58630.238      311.58172      8890.7584      182018.86    
     36700   297.28728     -58318.359     -58628.199      309.84011      8970.7452      182018.86    
     36800   302.18361     -58315.376     -58630.319      314.94318      8894.7649      182018.86    
     36900   304.18218     -58310.653     -58627.679      317.02614      8988.789       182018.86    
     37000   307.17556     -58306.738     -58626.884      320.14591      9054.4486      182018.86    
     37100   295.92265     -58314.731     -58623.149      308.41785      9053.0282      182018.86    
     37200   299.0905      -58319.437     -58631.157      311.71946      8843.0868      182018.86    
     37300   299.37506     -58319.652     -58631.668      312.01604      8887.9358      182018.86    
     37400   301.29505     -58315.854     -58629.871      314.0171       8906.0519      182018.86    
     37500   300.0797      -58311.697     -58624.448      312.75043      9030.7133      182018.86    
     37600   304.41581     -58309.15      -58626.42       317.26963      9032.9894      182018.86    
     37700   296.63835     -58317.411     -58626.574      309.16377      8919.7025      182018.86    
     37800   299.93173     -58319.285     -58631.881      312.59621      8994.0811      182018.86    
     37900   300.48508     -58318.988     -58632.161      313.17293      8880.9073      182018.86    
     38000   301.38961     -58315.874     -58629.99       314.11565      8941.1055      182018.86    
     38100   299.85184     -58312.695     -58625.208      312.51295      9054.117       182018.86    
     38200   299.83248     -58311.872     -58624.365      312.49277      8974.7328      182018.86    
     38300   300.56284     -58317.51      -58630.764      313.25397      8961.8218      182018.86    
     38400   298.70006     -58321.02      -58632.333      311.31254      8843.7924      182018.86    
     38500   298.61067     -58317.558     -58628.777      311.21937      9010.348       182018.86    
     38600   301.39132     -58313.727     -58627.845      314.11743      9026.5034      182018.86    
     38700   300.21776     -58314.369     -58627.263      312.89432      8901.5704      182018.86    
     38800   298.16897     -58320.524     -58631.283      310.75902      8927.1383      182018.86    
     38900   297.76146     -58323.347     -58633.681      310.33431      8866.7904      182018.86    
     39000   296.71399     -58319.703     -58628.946      309.24261      8860.0008      182018.86    
     39100   300.16145     -58315.259     -58628.094      312.83564      9036.6607      182018.86    
     39200   302.20914     -58315.288     -58630.258      314.96979      8931.2593      182018.86    
     39300   298.2183      -58317.585     -58628.395      310.81044      8899.4047      182018.86    
     39400   300.31455     -58316.468     -58629.463      312.99519      8994.2434      182018.86    
     39500   300.56872     -58312.594     -58625.854      313.2601       9081.3977      182018.86    
     39600   306.43578     -58309.595     -58628.97       319.3749       8979.9749      182018.86    
     39700   300.91115     -58313.068     -58626.685      313.61699      8981.8596      182018.86    
     39800   298.26418     -58318.764     -58629.622      310.85825      8949.0787      182018.86    
     39900   299.35864     -58320.425     -58632.424      311.99893      8883.1845      182018.86    
     40000   301.29966     -58318.921     -58632.943      314.02191      8923.7001      182018.86    
     40100   295.3144      -58318.108     -58625.892      307.78391      9005.563       182018.86    
     40200   301.01656     -58315.505     -58629.232      313.72685      8955.5278      182018.86    
     40300   303.20029     -58315.577     -58631.58       316.00279      8934.6713      182018.86    
     40400   294.68391     -58318.155     -58625.281      307.1268       8981.3526      182018.86    
     40500   300.61201     -58315.932     -58629.237      313.30522      8921.711       182018.86    
     40600   300.71969     -58313.386     -58626.803      313.41744      8998.896       182018.86    
     40700   305.27755     -58309.66      -58627.828      318.16776      9043.6292      182018.86    
     40800   299.75465     -58312.558     -58624.97       312.41165      9025.9461      182018.86    
     40900   300.62501     -58316.767     -58630.085      313.31876      8929.1932      182018.86    
     41000   300.23238     -58318.684     -58631.594      312.90956      8869.8001      182018.86    
     41100   298.61896     -58319.807     -58631.035      311.22801      9015.144       182018.86    
     41200   297.86986     -58317.882     -58628.329      310.44728      8886.0441      182018.86    
     41300   301.61674     -58311.908     -58626.261      314.35237      8941.1476      182018.86    
     41400   303.85136     -58310.509     -58627.191      316.68135      8969.8947      182018.86    
     41500   297.08111     -58316.232     -58625.858      309.62523      9000.5527      182018.86    
     41600   301.75317     -58318.599     -58633.093      314.49456      8916.2881      182018.86    
     41700   294.86203     -58320.167     -58627.48       307.31245      8915.3749      182018.86    
     41800   300.32627     -58315.919     -58628.926      313.00742      8956.9438      182018.86    
     41900   303.94496     -58311.904     -58628.683      316.7789       8916.3228      182018.86    
     42000   306.70562     -58303.69      -58623.346      319.65613      9083.3782      182018.86    
     42100   302.69065     -58305.111     -58620.582      315.47162      9105.7609      182018.86    
     42200   304.68283     -58312.805     -58630.352      317.54793      8922.6355      182018.86    
     42300   299.84116     -58317.031     -58629.533      312.50182      8893.0862      182018.86    
     42400   298.94179     -58318.788     -58630.352      311.56447      8890.3251      182018.86    
     42500   297.21552     -58320.522     -58630.287      309.76531      8865.6594      182018.86    
     42600   298.51452     -58317.954     -58629.073      311.11916      8917.4855      182018.86    
     42700   304.34803     -58311.611     -58628.81       317.19899      8997.3904      182018.86    
     42800   303.32816     -58312.102     -58628.238      316.13606      8901.4205      182018.86    
     42900   297.17801     -58317.112     -58626.839      309.72622      8961.0589      182018.86    
     43000   298.87518     -58318.817     -58630.312      311.49505      8936.6036      182018.86    
     43100   300.0544      -58317.959     -58630.683      312.72406      8973.7495      182018.86    
     43200   300.18964     -58316.555     -58629.42       312.86502      8958.8554      182018.86    
     43300   298.52847     -58315.91      -58627.044      311.1337       9019.0449      182018.86    
     43400   303.0836      -58313.414     -58629.295      315.88117      8943.8776      182018.86    
     43500   305.67675     -58310.294     -58628.878      318.58381      8975.5321      182018.86    
     43600   297.2151      -58314.474     -58624.239      309.76487      9057.4635      182018.86    
     43700   295.81449     -58318.006     -58626.312      308.30513      8994.2243      182018.86    
     43800   301.95587     -58318.997     -58633.703      314.70582      8914.5194      182018.86    
     43900   300.94665     -58322.162     -58635.816      313.65399      8788.3587      182018.86    
     44000   293.8699      -58324.334     -58630.612      306.27842      8859.2226      182018.86    
     44100   296.51905     -58319.711     -58628.75       309.03944      8954.3945      182018.86    
     44200   298.65883     -58314.736     -58626.005      311.26957      8991.5706      182018.86    
     44300   301.9228      -58313.461     -58628.132      314.67135      8928.7748      182018.86    
     44400   306.05231     -58312.731     -58631.706      318.97523      8854.8075      182018.86    
     44500   298.19766     -58316.01      -58626.799      310.78892      9008.4422      182018.86    
     44600   295.76569     -58322.297     -58630.552      308.25427      8998.8907      182018.86    
     44700   297.6615      -58321.997     -58632.228      310.23012      8856.9806      182018.86    
     44800   301.18014     -58318.199     -58632.097      313.89734      8887.4201      182018.86    
     44900   300.53565     -58316.191     -58629.417      313.22563      8903.2256      182018.86    
     45000   300.88693     -58315.389     -58628.981      313.59174      8911.5245      182018.86    
     45100   298.61297     -58316.17      -58627.392      311.22177      8986.2026      182018.86    
     45200   297.73753     -58317.393     -58627.702      310.30937      8903.8203      182018.86    
     45300   298.94795     -58319.249     -58630.82       311.57089      8879.8351      182018.86    
     45400   296.85652     -58321.47      -58630.861      309.39115      8949.1779      182018.86    
     45500   300.38529     -58318.17      -58631.239      313.06892      8856.3038      182018.86    
     45600   304.81535     -58312.575     -58630.261      317.68604      8965.802       182018.86    
     45700   302.78743     -58310.98      -58626.553      315.57249      8934.0873      182018.86    
     45800   294.87393     -58315.162     -58622.487      307.32484      9004.4461      182018.86    
     45900   302.54893     -58316.924     -58632.248      315.32392      8915.305       182018.86    
     46000   302.16369     -58317.686     -58632.609      314.92242      8869.4013      182018.86    
     46100   301.36104     -58316.929     -58631.015      314.08587      8943.341       182018.86    
     46200   298.8511      -58316.196     -58627.666      311.46995      8921.0349      182018.86    
     46300   298.93635     -58315.849     -58627.407      311.5588       9022.8516      182018.86    
     46400   302.30578     -58314.081     -58629.151      315.07051      8976.4117      182018.86    
     46500   304.03985     -58313.235     -58630.113      316.87779      8902.5763      182018.86    
     46600   299.63444     -58316.358     -58628.644      312.28637      8893.6228      182018.86    
     46700   298.3551      -58320.811     -58631.764      310.95301      8874.9682      182018.86    
     46800   297.70948     -58321.557     -58631.837      310.28013      8887.755       182018.86    
     46900   301.67959     -58314.725     -58629.143      314.41788      8962.1608      182018.86    
     47000   300.14087     -58310.109     -58622.923      312.81418      9095.9746      182018.86    
     47100   305.89755     -58310.693     -58629.507      318.81394      8965.3666      182018.86    
     47200   300.08632     -58314.729     -58627.486      312.75733      9014.194       182018.86    
     47300   299.38275     -58317.843     -58629.867      312.02405      8933.9753      182018.86    
     47400   299.14169     -58318.554     -58630.327      311.77281      8951.0324      182018.86    
     47500   299.28244     -58316.742     -58628.662      311.91951      8958.2962      182018.86    
     47600   301.60074     -58313.491     -58627.827      314.3357       8965.3304      182018.86    
     47700   305.3083      -58307.067     -58625.267      318.1998       9039.9996      182018.86    
     47800   306.37709     -58304.048     -58623.361      319.31372      9084.2813      182018.86    
     47900   301.94778     -58311.991     -58626.688      314.69739      8954.7325      182018.86    
     48000   298.48985     -58315.959     -58627.052      311.09345      8958.7848      182018.86    
     48100   298.23016     -58317.887     -58628.71       310.82279      8945.6301      182018.86    
     48200   301.60307     -58318.439     -58632.777      314.33812      8879.7795      182018.86    
     48300   297.9751      -58318.658     -58629.215      310.55697      8847.9089      182018.86    
     48400   300.86652     -58314.555     -58628.125      313.57048      8952.0046      182018.86    
     48500   301.13419     -58310.441     -58624.291      313.84944      9040.8434      182018.86    
     48600   303.48875     -58309.113     -58625.417      316.30342      9034.5631      182018.86    
     48700   300.25429     -58317.455     -58630.387      312.93239      8854.6355      182018.86    
     48800   298.78572     -58319.73      -58631.132      311.40181      8904.2598      182018.86    
     48900   299.97336     -58318.127     -58630.767      312.6396       8857.7585      182018.86    
     49000   300.54542     -58314.46      -58627.696      313.23581      8899.357       182018.86    
     49100   300.67917     -58310.366     -58623.741      313.37521      9020.8826      182018.86    
     49200   303.29214     -58307.831     -58623.93       316.09851      9025.399       182018.86    
     49300   304.07084     -58311.882     -58628.792      316.91009      8896.8523      182018.86    
     49400   299.44269     -58319.217     -58631.303      312.08652      8942.3249      182018.86    
     49500   294.94065     -58321.363     -58628.758      307.39438      8908.6981      182018.86    
     49600   299.59143     -58317.332     -58629.574      312.24154      8886.3762      182018.86    
     49700   300.5579      -58313.847     -58627.096      313.24882      8863.6263      182018.86    
     49800   307.0365      -58311.776     -58631.777      320.00097      8984.1638      182018.86    
     49900   293.78559     -58318.322     -58624.512      306.19056      9009.2435      182018.86    
     50000   295.99735     -58323.108     -58631.604      308.4957       8892.6743      182018.86    
     50100   299.98987     -58321.463     -58634.12       312.6568       8884.8833      182018.86    
     50200   298.98895     -58317.806     -58629.42       311.61362      8904.8181      182018.86    
     50300   298.79934     -58316.568     -58627.984      311.41601      8981.6837      182018.86    
     50400   301.25451     -58315.891     -58629.865      313.97485      8981.4157      182018.86    
     50500   297.90324     -58316.578     -58627.06       310.48207      8999.5871      182018.86    
     50600   298.72809     -58317.02      -58628.362      311.34175      8983.3818      182018.86    
     50700   298.03507     -58318.818     -58629.437      310.61946      8936.8624      182018.86    
     50800   305.76029     -58316.266     -58634.937      318.67088      8788.4573      182018.86    
     50900   299.60075     -58314.425     -58626.676      312.25126      8989.499       182018.86    
     51000   297.70122     -58313.67      -58623.942      310.27152      9059.0582      182018.86    
     51100   300.63177     -58318.261     -58631.587      313.32581      8864.6764      182018.86    
     51200   300.93879     -58321.037     -58634.683      313.6458       8801.8086      182018.86    
     51300   298.02179     -58319.84      -58630.445      310.60562      8877.3963      182018.86    
     51400   303.05655     -58314.041     -58629.893      315.85298      9069.567       182018.86    
     51500   297.45375     -58312.283     -58622.296      310.0136       8999.2935      182018.86    
     51600   304.12324     -58311.58      -58628.545      316.96471      9015.7531      182018.86    
     51700   301.98189     -58314.531     -58629.264      314.73294      8962.1342      182018.86    
     51800   299.19165     -58317.518     -58629.343      311.82488      8929.8663      182018.86    
     51900   298.42677     -58317.611     -58628.639      311.02771      8905.5011      182018.86    
     52000   302.08913     -58314.183     -58629.028      314.84471      8973.3632      182018.86    
     52100   305.93936     -58307.655     -58626.512      318.85751      8957.5133      182018.86    
     52200   304.57156     -58308.069     -58625.501      317.43196      9044.1367      182018.86    
     52300   299.12714     -58314.648     -58626.405      311.75765      9024.304       182018.86    
     52400   300.54643     -58316.356     -58629.593      313.23687      8971.7706      182018.86    
     52500   297.83824     -58318.903     -58629.317      310.41433      8910.9591      182018.86    
     52600   300.02282     -58318.27      -58630.961      312.69115      8923.0063      182018.86    
     52700   302.95879     -58312.704     -58628.455      315.75109      9020.1693      182018.86    
     52800   299.6952      -58309.955     -58622.305      312.34969      9087.9766      182018.86    
     52900   304.31953     -58307.495     -58624.665      317.16928      9105.3419      182018.86    
     53000   306.18018     -58311.082     -58630.191      319.1085       8968.1141      182018.86    
     53100   297.24386     -58318.717     -58628.512      309.79485      8937.9438      182018.86    
     53200   299.9847      -58319.383     -58632.034      312.65142      8867.1061      182018.86    
     53300   300.54563     -58318.043     -58631.279      313.23603      8913.4041      182018.86    
     53400   301.30498     -58312.624     -58626.652      314.02745      9009.2461      182018.86    
     53500   304.6307      -58310.6       -58628.094      317.4936       8940.3223      182018.86    
     53600   301.57784     -58313.691     -58628.002      314.31183      8943.0088      182018.86    
     53700   299.01904     -58316.872     -58628.517      311.64499      8951.1118      182018.86    
     53800   300.52869     -58317.074     -58630.293      313.21838      8938.1765      182018.86    
     53900   300.89587     -58316.785     -58630.386      313.60106      9011.3018      182018.86    
     54000   301.96366     -58316.059     -58630.773      314.71394      8963.5024      182018.86    
     54100   302.68901     -58312.805     -58628.275      315.46992      9030.622       182018.86    
     54200   303.07977     -58309.144     -58625.022      315.87718      9009.4168      182018.86    
     54300   302.94008     -58311.137     -58626.869      315.73159      9014.1826      182018.86    
     54400   301.73381     -58317.514     -58631.989      314.47438      8868.8798      182018.86    
     54500   296.98397     -58320.872     -58630.396      309.52399      8925.2543      182018.86    
     54600   298.9903      -58318.371     -58629.986      311.61503      8957.9995      182018.86    
     54700   300.37252     -58315.227     -58628.282      313.05561      8878.1162      182018.86    
     54800   298.82541     -58314.999     -58626.442      311.44317      8972.6159      182018.86    
     54900   302.19405     -58315.059     -58630.013      314.95406      8948.6141      182018.86    
     55000   299.37821     -58315.381     -58627.4        312.01932      8914.4988      182018.86    
     55100   299.11997     -58315.929     -58627.679      311.75018      8971.1761      182018.86    
     55200   300.51683     -58317.841     -58631.047      313.20602      8956.3299      182018.86    
     55300   300.05157     -58322.143     -58634.864      312.72111      8818.6744      182018.86    
     55400   290.45631     -58327.841     -58630.562      302.7207       8833.1692      182018.86    
     55500   298.80924     -58322.353     -58633.78       311.42632      8883.1352      182018.86    
     55600   300.11786     -58318.053     -58630.844      312.7902       8931.7986      182018.86    
     55700   300.52608     -58315.275     -58628.491      313.21566      8939.2141      182018.86    
     55800   298.20866     -58314.776     -58625.576      310.80039      9020.0055      182018.86    
     55900   300.59186     -58316.573     -58629.857      313.28422      9010.768       182018.86    
     56000   296.58364     -58322.409     -58631.516      309.10676      8844.8773      182018.86    
     56100   298.72209     -58324.448     -58635.783      311.3355       8816.7041      182018.86    
     56200   298.73842     -58319.883     -58631.235      311.35251      8909.3087      182018.86    
     56300   302.4031      -58313.25      -58628.422      315.17194      8940.6813      182018.86    
     56400   297.92324     -58313.887     -58624.39       310.50291      9057.8511      182018.86    
     56500   303.00112     -58315.759     -58631.554      315.79521      8969.4191      182018.86    
     56600   297.50955     -58321.167     -58631.239      310.07176      8845.5833      182018.86    
     56700   301.2904      -58320.332     -58634.344      314.01225      8840.8242      182018.86    
     56800   294.10732     -58318.554     -58625.08       306.52587      9040.7884      182018.86    
     56900   301.89697     -58309.405     -58624.049      314.64444      9078.4044      182018.86    
     57000   304.8544      -58309.858     -58627.585      317.72674      9036.4064      182018.86    
     57100   301.60364     -58314.89      -58629.229      314.33872      8975.8246      182018.86    
     57200   298.41314     -58318.188     -58629.202      311.0135       8952.6195      182018.86    
     57300   296.66245     -58319.241     -58628.43       309.18888      8924.0678      182018.86    
     57400   304.33938     -58315.381     -58632.571      317.18997      8918.2071      182018.86    
     57500   301.30969     -58310.154     -58624.186      314.03235      9025.5659      182018.86    
     57600   304.61916     -58307.487     -58624.969      317.48156      9058.2988      182018.86    
     57700   301.13527     -58313.591     -58627.441      313.85057      9006.4482      182018.86    
     57800   300.09168     -58317.547     -58630.31       312.76291      9030.9663      182018.86    
     57900   296.18386     -58319.549     -58628.239      308.69009      8953.0737      182018.86    
     58000   299.09602     -58317.989     -58629.714      311.72521      9014.7247      182018.86    
     58100   301.51807     -58313.753     -58628.003      314.24953      8976.1567      182018.86    
     58200   304.62539     -58309.864     -58627.352      317.48806      8962.3733      182018.86    
     58300   302.7985      -58306.572     -58622.156      315.58403      9057.0495      182018.86    
     58400   304.37436     -58307.404     -58624.631      317.22643      9062.3369      182018.86    
     58500   304.12267     -58314.643     -58631.608      316.96411      8986.8514      182018.86    
     58600   296.44188     -58319.421     -58628.38       308.95901      8961.587       182018.86    
     58700   298.89282     -58319.19      -58630.703      311.51343      8943.9274      182018.86    
     58800   297.47278     -58318.314     -58628.348      310.03344      8956.8788      182018.86    
     58900   303.46646     -58312.693     -58628.973      316.2802       8978.2857      182018.86    
     59000   300.32697     -58310.461     -58623.469      313.00814      9024.9432      182018.86    
     59100   301.24369     -58313.425     -58627.388      313.96357      8971.3925      182018.86    
     59200   301.01277     -58318.279     -58632.002      313.72289      8863.9243      182018.86    
     59300   296.65223     -58318.926     -58628.104      309.17824      8920.9838      182018.86    
     59400   300.04832     -58317.358     -58630.076      312.71773      8883.519       182018.86    
     59500   301.60972     -58315.929     -58630.274      314.34505      8944.3099      182018.86    
     59600   301.4668      -58312.66      -58626.856      314.1961       9004.1672      182018.86    
     59700   305.73201     -58307.815     -58626.456      318.64141      9026.9276      182018.86    
     59800   300.18614     -58311.998     -58624.859      312.86136      9042.934       182018.86    
     59900   301.52025     -58318.232     -58632.484      314.2518       8885.4749      182018.86    
     60000   299.04515     -58318.946     -58630.618      311.67219      8881.1801      182018.86    
     60100   298.2616      -58316.753     -58627.608      310.85556      8962.2552      182018.86    
     60200   302.7751      -58313.263     -58628.823      315.55965      8924.7132      182018.86    
     60300   300.52961     -58313.64      -58626.859      313.21933      8961.6097      182018.86    
     60400   300.56926     -58318.205     -58631.466      313.26067      8878.5695      182018.86    
     60500   296.35816     -58322.258     -58631.13       308.87175      8905.2896      182018.86    
     60600   298.19785     -58321.39      -58632.179      310.78912      8892.512       182018.86    
     60700   300.20398     -58314.692     -58627.572      312.87996      9032.7799      182018.86    
     60800   303.24798     -58311.107     -58627.159      316.05249      8971.5046      182018.86    
     60900   300.37854     -58313.723     -58626.785      313.06189      8968.0622      182018.86    
     61000   298.25203     -58317.584     -58628.429      310.84558      8926.1523      182018.86    
     61100   298.56405     -58320.637     -58631.808      311.17078      8897.6039      182018.86    
     61200   296.22548     -58325.904     -58634.637      308.73346      8821.4218      182018.86    
     61300   292.09005     -58329.365     -58633.788      304.42342      8782.733       182018.86    
     61400   298.20257     -58321.592     -58632.386      310.79404      8827.2454      182018.86    
     61500   298.0626      -58318.481     -58629.129      310.64816      8834.8202      182018.86    
     61600   301.69151     -58314.069     -58628.499      314.4303       8925.5521      182018.86    
     61700   301.34904     -58311.839     -58625.913      314.07337      8970.4419      182018.86    
     61800   299.29032     -58314.338     -58626.266      311.92772      8977.2382      182018.86    
     61900   300.82771     -58321.541     -58635.071      313.53003      8854.9953      182018.86    
     62000   299.18968     -58321.88      -58633.703      311.82283      8885.345       182018.86    
     62100   300.39367     -58318.586     -58631.664      313.07765      8942.1554      182018.86    
     62200   299.31627     -58314.726     -58626.681      311.95476      8937.3251      182018.86    
     62300   299.99367     -58312.538     -58625.199      312.66077      8987.5687      182018.86    
     62400   301.64622     -58314.251     -58628.634      314.38309      9018.5681      182018.86    
     62500   298.51335     -58316.118     -58627.235      311.11794      8969.5702      182018.86    
     62600   299.32843     -58316.865     -58628.832      311.96744      8914.5494      182018.86    
     62700   300.28756     -58317.513     -58630.48       312.96707      8875.6453      182018.86    
     62800   301.51136     -58316.074     -58630.317      314.24255      8865.7192      182018.86    
     62900   298.87475     -58311.813     -58623.307      311.4946       8983.8621      182018.86    
     63000   302.91777     -58308.316     -58624.024      315.70833      9122.158       182018.86    
     63100   301.88498     -58312.018     -58626.65       314.63193      8945.0337      182018.86    
     63200   301.52945     -58318.152     -58632.414      314.2614       8883.6453      182018.86    
     63300   295.59738     -58319.153     -58627.232      308.07885      8882.4428      182018.86    
     63400   297.14614     -58316.828     -58626.521      309.693        8899.491       182018.86    
     63500   300.4497      -58315.277     -58628.413      313.13605      9028.0209      182018.86    
     63600   302.67661     -58316.234     -58631.691      315.45699      8865.6441      182018.86    
     63700   299.84516     -58319.657     -58632.163      312.50599      8788.7059      182018.86    
     63800   296.55553     -58320.862     -58629.939      309.07746      8883.1916      182018.86    
     63900   298.80107     -58316.449     -58627.867      311.41781      8990.3092      182018.86    
     64000   299.29465     -58312.34      -58624.273      311.93223      9003.8829      182018.86    
     64100   305.09062     -58308.046     -58626.019      317.97294      9021.4962      182018.86    
     64200   302.02123     -58310.035     -58624.809      314.77394      8990.9082      182018.86    
     64300   300.07442     -58317.666     -58630.41       312.74492      8966.4151      182018.86    
     64400   295.70329     -58321.249     -58629.438      308.18923      8892.1123      182018.86    
     64500   302.19523     -58319.362     -58634.317      314.95528      8945.7406      182018.86    
     64600   297.5563      -58317.115     -58627.235      310.12048      8936.508       182018.86    
     64700   303.7265      -58310.413     -58626.964      316.55121      8992.922       182018.86    
     64800   304.6433      -58310.808     -58628.314      317.50673      8995.112       182018.86    
     64900   297.40923     -58315.032     -58624.999      309.96721      8870.5049      182018.86    
     65000   301.39051     -58315.328     -58629.444      314.11659      9027.3907      182018.86    
     65100   299.42372     -58316.653     -58628.719      312.06675      8883.8227      182018.86    
     65200   300.64874     -58318.39      -58631.733      313.34349      8875.5347      182018.86    
     65300   296.45464     -58323.559     -58632.531      308.97231      8858.7322      182018.86    
     65400   295.95923     -58323.588     -58632.044      308.45598      8897.5537      182018.86    
     65500   297.57242     -58315.93      -58626.067      310.13728      8993.2237      182018.86    
     65600   302.63973     -58313.278     -58628.696      315.41856      8960.8201      182018.86    
     65700   303.63879     -58314.328     -58630.787      316.45981      8892.0176      182018.86    
     65800   298.02792     -58318.733     -58629.345      310.61201      8879.7961      182018.86    
     65900   298.97755     -58320.922     -58632.524      311.60175      8908.5867      182018.86    
     66000   296.28905     -58320.333     -58629.133      308.79972      8871.2101      182018.86    
     66100   300.85935     -58314.654     -58628.217      313.563        8956.3409      182018.86    
     66200   304.66675     -58310.669     -58628.2        317.53116      8954.5445      182018.86    
     66300   300.96037     -58313.156     -58626.824      313.66828      9043.542       182018.86    
     66400   297.87586     -58318.014     -58628.468      310.45354      8957.9858      182018.86    
     66500   298.00801     -58322.249     -58632.841      310.59126      8922.2496      182018.86    
     66600   295.2102      -58323.31      -58630.985      307.67532      8919.5487      182018.86    
     66700   302.3562      -58319.953     -58635.076      315.12305      8876.517       182018.86    
     66800   298.43417     -58318.523     -58629.558      311.03542      8989.2908      182018.86    
     66900   299.34618     -58314.236     -58626.222      311.98594      8933.6006      182018.86    
     67000   299.03911     -58312.395     -58624.061      311.6659       8989.6914      182018.86    
     67100   304.46057     -58312.531     -58629.847      317.31628      9030.3558      182018.86    
     67200   300.24285     -58319.71      -58632.631      312.92047      8879.8603      182018.86    
     67300   300.67389     -58321.69      -58635.06       313.36971      8850.7469      182018.86    
     67400   294.07741     -58319.849     -58626.344      306.4947       9041.0593      182018.86    
     67500   300.90615     -58314.151     -58627.763      313.61177      8930.4859      182018.86    
     67600   301.637       -58314.084     -58628.457      314.37348      8985.3205      182018.86    
     67700   301.25112     -58316.407     -58630.378      313.97131      8969.7591      182018.86    
     67800   299.54272     -58319.053     -58631.244      312.19077      8938.1257      182018.86    
     67900   295.90751     -58323.833     -58632.235      308.40207      8829.4454      182018.86    
     68000   297.38713     -58325.043     -58634.988      309.94416      8824.4762      182018.86    
     68100   301.10992     -58317.99      -58631.814      313.82415      8944.6219      182018.86    
     68200   295.59742     -58317.173     -58625.252      308.07888      8951.2624      182018.86    
     68300   303.22232     -58314.732     -58630.758      316.02574      8957.1398      182018.86    
     68400   303.21684     -58314.29      -58630.31       316.02004      8899.8426      182018.86    
     68500   299.41729     -58317.282     -58629.342      312.06005      8992.1329      182018.86    
     68600   295.56901     -58322.198     -58630.247      308.04928      8860.1209      182018.86    
     68700   297.34345     -58320.453     -58630.351      309.89865      8946.5608      182018.86    
     68800   304.4493      -58313.703     -58631.008      317.30454      8950.3706      182018.86    
     68900   301.09843     -58313.456     -58627.268      313.81218      8956.9053      182018.86    
     69000   303.12441     -58313.708     -58629.631      315.9237       8970.0145      182018.86    
     69100   298.41137     -58317.341     -58628.353      311.01165      8943.2213      182018.86    
     69200   296.27112     -58322.81      -58631.591      308.78104      8845.8285      182018.86    
     69300   295.39613     -58329.386     -58637.255      307.86909      8868.7409      182018.86    
     69400   292.05433     -58330.108     -58634.494      304.38619      8866.8803      182018.86    
     69500   298.28443     -58320.818     -58631.698      310.87936      8939.7118      182018.86    
     69600   299.84494     -58316.902     -58629.408      312.50576      9003.1504      182018.86    
     69700   302.35822     -58313.016     -58628.141      315.12516      8940.1456      182018.86    
     69800   299.22816     -58312.671     -58624.534      311.86293      9053.4798      182018.86    
     69900   303.18419     -58313.354     -58629.34       315.98601      8921.4782      182018.86    
     70000   297.70564     -58319.786     -58630.062      310.27612      8968.3252      182018.86    
     70100   293.14144     -58322.203     -58627.722      305.5192       8916.6161      182018.86    
     70200   301.38254     -58318.738     -58632.847      314.10828      8934.2461      182018.86    
     70300   298.845       -58316.776     -58628.239      311.4636       8863.8177      182018.86    
     70400   302.29875     -58313.533     -58628.596      315.06318      8923.0919      182018.86    
     70500   300.6424      -58313.482     -58626.819      313.33689      9000.504       182018.86    
     70600   300.66328     -58315.029     -58628.387      313.35866      8975.0604      182018.86    
     70700   299.37623     -58317.681     -58629.698      312.01726      8994.4928      182018.86    
     70800   299.83443     -58319.701     -58632.196      312.4948       8902.2955      182018.86    
     70900   296.93704     -58323.219     -58632.694      309.47507      8911.9731      182018.86    
     71000   297.39012     -58322.766     -58632.714      309.94729      8853.2891      182018.86    
     71100   300.28483     -58316.193     -58629.157      312.96422      8946.3661      182018.86    
     71200   301.73751     -58313.298     -58627.776      314.47824      8919.0117      182018.86    
     71300   301.7691      -58313.115     -58627.626      314.51117      8970.9119      182018.86    
     71400   298.30905     -58316.87      -58627.775      310.90502      8963.1107      182018.86    
     71500   297.27774     -58323.768     -58633.599      309.83016      8899.6356      182018.86    
     71600   296.97864     -58324.575     -58634.093      309.51843      8839.0233      182018.86    
     71700   299.71084     -58319.603     -58631.969      312.36599      8901.9352      182018.86    
     71800   300.58327     -58317.621     -58630.896      313.27527      8955.6921      182018.86    
     71900   298.68195     -58316.663     -58627.956      311.29366      8972.5217      182018.86    
     72000   303.86765     -58313.383     -58630.082      316.69832      8955.3498      182018.86    
     72100   298.7014      -58313.853     -58625.167      311.31393      9065.1305      182018.86    
     72200   297.83527     -58318.835     -58629.246      310.41123      8916.4709      182018.86    
     72300   300.49926     -58321.74      -58634.928      313.18771      8875.1093      182018.86    
     72400   299.08128     -58318.839     -58630.549      311.70985      8908.0222      182018.86    
     72500   299.26359     -58314.337     -58626.237      311.89986      8987.0144      182018.86    
     72600   302.12043     -58314.342     -58629.22       314.87732      8914.791       182018.86    
     72700   301.08606     -58315.908     -58629.707      313.79929      9020.6452      182018.86    
     72800   300.34687     -58318.147     -58631.176      313.02888      8898.3196      182018.86    
     72900   295.72531     -58324.788     -58633          308.21218      8819.8224      182018.86    
     73000   293.31123     -58328.19      -58633.886      305.69617      8862.0825      182018.86    
     73100   296.73129     -58321.797     -58631.057      309.26064      8915.2098      182018.86    
     73200   301.52279     -58318.655     -58632.91       314.25445      8894.2966      182018.86    
     73300   300.40054     -58316.021     -58629.106      313.08482      8912.3185      182018.86    
     73400   300.48636     -58313.094     -58626.268      313.17426      9010.2947      182018.86    
     73500   300.24643     -58312.669     -58625.593      312.9242       9026.8639      182018.86    
     73600   299.41524     -58316.396     -58628.454      312.05791      8919.5542      182018.86    
     73700   295.1025      -58322.453     -58630.016      307.56307      8954.2829      182018.86    
     73800   301.46759     -58320.986     -58635.183      314.19693      8834.0298      182018.86    
     73900   300.84606     -58316.439     -58629.988      313.54915      8941.6773      182018.86    
     74000   298.49602     -58313.897     -58624.997      311.09988      9089.552       182018.86    
     74100   298.15097     -58313.999     -58624.739      310.74026      9069.8596      182018.86    
     74200   302.65131     -58316.025     -58631.456      315.43062      8969.9885      182018.86    
     74300   298.73498     -58319.189     -58630.538      311.34892      8857.0801      182018.86    
     74400   301.7614      -58318.725     -58633.228      314.50314      8854.1147      182018.86    
     74500   294.67568     -58319.186     -58626.304      307.11823      9030.9668      182018.86    
     74600   300.8279      -58316.526     -58630.056      313.53023      8954.8419      182018.86    
     74700   301.94984     -58314.477     -58629.176      314.69954      9036.6782      182018.86    
     74800   301.07385     -58314.068     -58627.855      313.78655      8989.3657      182018.86    
     74900   295.20559     -58320.893     -58628.563      307.67051      9005.2909      182018.86    
     75000   298.44084     -58323.5       -58634.543      311.04237      8821.606       182018.86    
     75100   298.01429     -58320.472     -58631.07       310.5978       9019.7093      182018.86    
     75200   303.07891     -58314.905     -58630.781      315.87628      8987.6338      182018.86    
     75300   300.67947     -58314.774     -58628.15       313.37552      8936.5408      182018.86    
     75400   296.3745      -58315.762     -58624.651      308.88878      8972.6306      182018.86    
[...]
    181800   301.36524     -58314.969     -58629.06       314.09025      8901.416       182018.86    
    181900   299.2649      -58319.736     -58631.637      311.90123      8913.313       182018.86    
    182000   297.44271     -58320.179     -58630.181      310.0021       8920.8439      182018.86    
    182100   299.4196      -58316.642     -58628.705      312.06246      8866.1291      182018.86    
    182200   302.83029     -58311.796     -58627.414      315.61717      9010.6213      182018.86    
    182300   304.57621     -58311.065     -58628.502      317.4368       9019.3908      182018.86    
    182400   299.81702     -58313.484     -58625.961      312.47666      9024.8738      182018.86    
    182500   299.1008      -58315.542     -58627.272      311.73019      8944.5252      182018.86    
    182600   297.71199     -58318.29      -58628.573      310.28274      8960.5776      182018.86    
    182700   299.70697     -58319.551     -58631.912      312.36196      8910.8598      182018.86    
    182800   300.17177     -58318.094     -58630.941      312.84638      8861.4307      182018.86    
    182900   300.69476     -58312.546     -58625.938      313.39147      8985.9059      182018.86    
    183000   302.60987     -58310.75      -58626.137      315.38743      8997.258       182018.86    
    183100   305.77336     -58313.75      -58632.435      318.68451      8874.6195      182018.86    
    183200   297.8118      -58321.383     -58631.77       310.38677      8850.9875      182018.86    
    183300   295.60491     -58321.355     -58629.442      308.08669      8934.4645      182018.86    
    183400   299.92382     -58316.002     -58628.59       312.58796      8865.1087      182018.86    
    183500   302.24632     -58312.631     -58627.639      315.00854      8952.7837      182018.86    
    183600   302.00778     -58313.285     -58628.045      314.75992      8963.4683      182018.86    
    183700   298.99494     -58316.498     -58628.118      311.61986      8938.9418      182018.86    
    183800   296.93341     -58324.76      -58634.231      309.47129      8804.4258      182018.86    
    183900   299.09206     -58325.016     -58636.737      311.72108      8805.361       182018.86    
    184000   294.92217     -58321.735     -58629.11       307.37512      8857.9439      182018.86    
    184100   298.47483     -58316.14      -58627.218      311.07779      8945.0187      182018.86    
    184200   304.60322     -58313.596     -58631.061      317.46495      8906.4689      182018.86    
    184300   302.5464      -58315.632     -58630.954      315.32128      8893.2904      182018.86    
    184400   293.75182     -58320.472     -58626.627      306.15536      8913.5102      182018.86    
    184500   298.86506     -58319.912     -58631.396      311.4845       8889.2659      182018.86    
    184600   304.24967     -58311.78      -58628.877      317.09647      8941.8632      182018.86    
    184700   299.1965      -58310.888     -58622.718      311.82994      9077.6316      182018.86    
    184800   302.36825     -58313.591     -58628.726      315.13561      8968.2135      182018.86    
    184900   296.88216     -58319.013     -58628.431      309.41788      8967.6552      182018.86    
    185000   301.17414     -58318.763     -58632.654      313.89108      8830.6892      182018.86    
    185100   296.47712     -58318.464     -58627.459      308.99574      8978.565       182018.86    
    185200   301.18037     -58312.43      -58626.327      313.89757      8955.7386      182018.86    
    185300   304.48356     -58304.899     -58622.239      317.34024      9059.2625      182018.86    
    185400   305.19254     -58307.901     -58625.981      318.07915      9062.1129      182018.86    
    185500   298.42601     -58314.552     -58625.579      311.02692      8992.3732      182018.86    
    185600   302.01054     -58316.171     -58630.934      314.7628       8888.8478      182018.86    
    185700   297.94328     -58318.98      -58629.503      310.5238       8898.6615      182018.86    
    185800   298.00152     -58320.554     -58631.138      310.5845       8906.5275      182018.86    
    185900   298.76442     -58318.105     -58629.485      311.37961      8930.1247      182018.86    
    186000   302.27736     -58311.571     -58626.612      315.04089      9033.0442      182018.86    
    186100   302.10271     -58311.652     -58626.511      314.85886      8984.6421      182018.86    
    186200   297.38496     -58316.649     -58626.591      309.94191      8953.004       182018.86    
    186300   300.21805     -58319.419     -58632.313      312.89462      8845.6413      182018.86    
    186400   296.23878     -58319.484     -58628.231      308.74733      8913.7922      182018.86    
    186500   304.58889     -58317.25      -58634.7        317.45001      8762.365       182018.86    
    186600   299.00275     -58317.346     -58628.974      311.628        8929.7087      182018.86    
    186700   299.08494     -58315.145     -58626.858      311.71366      8990.9429      182018.86    
    186800   302.2559      -58311.611     -58626.63       315.01852      8967.0287      182018.86    
    186900   303.26323     -58306.885     -58622.953      316.06838      8947.9939      182018.86    
    187000   303.28298     -58307.96      -58624.049      316.08897      9086.7914      182018.86    
    187100   300.02336     -58315.178     -58627.869      312.69171      8813.8306      182018.86    
    187200   304.12209     -58317.03      -58633.994      316.96351      8799.7828      182018.86    
    187300   299.77569     -58318.102     -58630.535      312.43358      8951.5838      182018.86    
    187400   297.67453     -58315.856     -58626.099      310.2437       8966.0483      182018.86    
    187500   299.8449      -58311.432     -58623.938      312.50571      8997.9325      182018.86    
    187600   307.19204     -58305.714     -58625.877      320.16308      9074.9688      182018.86    
    187700   302.7629      -58308.938     -58624.485      315.54692      9007.1313      182018.86    
    187800   301.21467     -58315.209     -58629.142      313.93332      8960.6895      182018.86    
    187900   297.69493     -58317.724     -58627.989      310.26497      8933.4247      182018.86    
    188000   301.92313     -58317.95      -58632.622      314.6717       8928.3044      182018.86    
    188100   297.49038     -58319.639     -58629.691      310.05177      8823.2654      182018.86    
    188200   297.96835     -58318.323     -58628.873      310.54993      8955.4156      182018.86    
    188300   301.77804     -58312.181     -58626.701      314.52049      8958.0272      182018.86    
    188400   303.62481     -58310.687     -58627.132      316.44523      8973.4351      182018.86    
    188500   301.49683     -58315.792     -58630.019      314.2274       8895.9471      182018.86    
    188600   298.36721     -58318.658     -58629.623      310.96563      8920.9106      182018.86    
    188700   300.82872     -58317.867     -58631.398      313.53107      8886.9369      182018.86    
    188800   298.84103     -58317.143     -58628.602      311.45946      8877.9054      182018.86    
    188900   300.77529     -58314.874     -58628.35       313.4754       8995.697       182018.86    
    189000   303.1569      -58311.101     -58627.058      315.95756      8920.9056      182018.86    
    189100   303.05472     -58309.844     -58625.695      315.85107      9030.3499      182018.86    
    189200   296.57929     -58315.665     -58624.767      309.10222      9033.8175      182018.86    
    189300   301.35667     -58316.319     -58630.4        314.08132      8851.3718      182018.86    
    189400   299.48343     -58317.55      -58629.679      312.12899      8909.7273      182018.86    
    189500   298.5125      -58319.042     -58630.159      311.11706      8845.6778      182018.86    
    189600   296.01996     -58323.814     -58632.334      308.51927      8809.0971      182018.86    
    189700   297.12195     -58324.416     -58634.084      309.66779      8805.3555      182018.86    
    189800   298.05005     -58318.2       -58628.835      310.63508      8897.1518      182018.86    
    189900   298.42817     -58314.089     -58625.118      311.02917      9062.6739      182018.86    
    190000   303.98627     -58312.561     -58629.383      316.82195      8910.8711      182018.86    
    190100   302.57177     -58316.408     -58631.756      315.34773      8866.7812      182018.86    
    190200   295.78738     -58320.989     -58629.266      308.27687      8920.4799      182018.86    
    190300   300.77593     -58320.546     -58634.022      313.47606      8831.0336      182018.86    
    190400   296.844       -58319.904     -58629.282      309.3781       8848.9745      182018.86    
    190500   300.06735     -58317.726     -58630.464      312.73756      8956.2122      182018.86    
    190600   303.47285     -58314.196     -58630.483      316.28685      8955.9346      182018.86    
    190700   299.46294     -58314.007     -58626.115      312.10763      8942.4702      182018.86    
    190800   300.14832     -58315.986     -58628.808      312.82195      8868.087       182018.86    
    190900   297.74961     -58321.501     -58631.823      310.32196      8847.4255      182018.86    
    191000   300.70705     -58322.286     -58635.69       313.40427      8877.2795      182018.86    
    191100   296.39589     -58319.235     -58628.146      308.91108      8902.3062      182018.86    
    191200   303.59557     -58312.337     -58628.752      316.41475      8971.6784      182018.86    
    191300   299.83539     -58313.343     -58625.839      312.49581      9009.8141      182018.86    
    191400   301.47563     -58314.693     -58628.899      314.2053       8896.3593      182018.86    
    191500   298.94762     -58318.146     -58629.717      311.57054      8891.3026      182018.86    
    191600   298.18621     -58321.89      -58632.667      310.77699      8877.072       182018.86    
    191700   291.83131     -58325.829     -58629.983      304.15376      8884.3418      182018.86    
    191800   299.73521     -58322.909     -58635.3        312.3914       8836.4404      182018.86    
    191900   301.39528     -58316.399     -58630.521      314.12156      8927.908       182018.86    
    192000   299.36617     -58313.094     -58625.101      312.00678      8921.8544      182018.86    
    192100   301.87602     -58313.759     -58628.382      314.6226       8959.1292      182018.86    
    192200   297.45765     -58316.756     -58626.774      310.01767      8961.2178      182018.86    
    192300   301.33887     -58317.503     -58631.566      314.06276      8850.6174      182018.86    
    192400   299.65557     -58317.927     -58630.236      312.30839      8900.4369      182018.86    
    192500   300.28414     -58316.436     -58629.399      312.9635       8891.959       182018.86    
    192600   300.02545     -58316.327     -58629.021      312.69389      8908.9894      182018.86    
    192700   300.27234     -58316.825     -58629.776      312.95121      8938.8801      182018.86    
    192800   299.33343     -58317.202     -58629.175      311.97265      8915.4213      182018.86    
    192900   302.28665     -58313.878     -58628.929      315.05056      8918.6957      182018.86    
    193000   303.92683     -58311.79      -58628.55       316.76         9033.1535      182018.86    
    193100   297.65026     -58315.562     -58625.781      310.2184       8948.5651      182018.86    
    193200   301.46319     -58317.694     -58631.886      314.19234      8873.0465      182018.86    
    193300   299.18614     -58321.621     -58633.44       311.81914      8908.3747      182018.86    
    193400   289.55014     -58326.699     -58628.475      301.77626      8901.9879      182018.86    
    193500   297.74981     -58322.24      -58632.562      310.32216      8874.2316      182018.86    
    193600   304.88536     -58316.11      -58633.869      317.759        8926.489       182018.86    
    193700   301.22581     -58315.993     -58629.938      313.94493      8928.1986      182018.86    
    193800   295.73081     -58317.415     -58625.633      308.21791      8997.2369      182018.86    
    193900   303.11938     -58315.805     -58631.723      315.91846      8973.6557      182018.86    
    194000   300.21775     -58314.153     -58627.047      312.89431      8982.9972      182018.86    
    194100   300.7563      -58311.847     -58625.303      313.4556       9034.4639      182018.86    
    194200   302.21922     -58311.388     -58626.368      314.98029      9082.5271      182018.86    
    194300   300.62513     -58317.097     -58630.416      313.31889      8881.3803      182018.86    
    194400   298.70434     -58321.023     -58632.34       311.317        8908.9215      182018.86    
    194500   299.26561     -58319.743     -58631.645      311.90196      8987.642       182018.86    
    194600   299.94222     -58315.5       -58628.107      312.60715      8949.3921      182018.86    
    194700   301.31072     -58311.124     -58625.157      314.03343      8978.0389      182018.86    
    194800   305.96414     -58305.22      -58624.103      318.88334      9046.7341      182018.86    
    194900   302.8387      -58304.646     -58620.272      315.62593      9166.3199      182018.86    
    195000   304.08219     -58311.453     -58628.375      316.92192      8987.1004      182018.86    
    195100   300.75915     -58316.109     -58629.568      313.45857      8952.1284      182018.86    
    195200   298.83208     -58317.893     -58629.344      311.45013      8908.083       182018.86    
    195300   300.57093     -58316.959     -58630.221      313.2624       8940.7837      182018.86    
    195400   296.61325     -58315.601     -58624.738      309.13761      8908.8985      182018.86    
    195500   304.34943     -58310.876     -58628.076      317.20045      8931.313       182018.86    
    195600   302.59003     -58312.783     -58628.15       315.36676      9039.9867      182018.86    
    195700   296.79274     -58319.798     -58629.123      309.32468      8937.5158      182018.86    
    195800   299.96846     -58319.822     -58632.457      312.6345       8903.5847      182018.86    
    195900   297.7984      -58318.498     -58628.871      310.3728       8947.2274      182018.86    
    196000   300.71717     -58315.948     -58629.363      313.41482      8956.0682      182018.86    
    196100   306.22205     -58309.778     -58628.931      319.15214      8965.5305      182018.86    
    196200   300.34771     -58306.858     -58619.888      313.02975      9084.8061      182018.86    
    196300   303.48124     -58310.88      -58627.176      316.2956       9027.1488      182018.86    
    196400   302.38418     -58316.062     -58631.214      315.15222      8945.1216      182018.86    
    196500   299.5165      -58318.569     -58630.732      312.16345      8927.6709      182018.86    
    196600   298.39068     -58319.562     -58630.552      310.99009      8960.5996      182018.86    
    196700   300.52069     -58316.552     -58629.762      313.21004      9004.6368      182018.86    
    196800   301.19136     -58310.583     -58624.492      313.90903      9017.3119      182018.86    
    196900   302.91945     -58310.167     -58625.877      315.71008      9073.7297      182018.86    
    197000   300.44928     -58314.041     -58627.177      313.13561      8974.467       182018.86    
    197100   300.96517     -58315.557     -58629.23       313.67329      8959.9382      182018.86    
    197200   299.90683     -58316.87      -58629.44       312.57026      8942.7786      182018.86    
    197300   296.35391     -58318.151     -58627.018      308.86732      8982.7563      182018.86    
    197400   301.11497     -58315.577     -58629.406      313.82942      8977.4989      182018.86    
    197500   303.42161     -58310.962     -58627.196      316.23346      9005.7879      182018.86    
    197600   301.34933     -58310.72      -58624.794      314.07367      9056.7173      182018.86    
    197700   300.88914     -58316.284     -58629.878      313.59405      8951.7285      182018.86    
    197800   296.15224     -58321.251     -58629.908      308.65714      8883.3959      182018.86    
    197900   298.42861     -58320.468     -58631.498      311.02962      9019.1349      182018.86    
    198000   299.48529     -58317.246     -58629.376      312.13092      8922.3162      182018.86    
    198100   301.2178      -58313.104     -58627.041      313.93659      9010.6522      182018.86    
    198200   303.13989     -58312.439     -58628.379      315.93983      9030.4197      182018.86    
    198300   301.03429     -58314.13      -58627.875      313.74532      8947.8608      182018.86    
    198400   302.20991     -58315.385     -58630.355      314.97059      8937.8557      182018.86    
    198500   296.83791     -58318.962     -58628.334      309.37176      8944.343       182018.86    
    198600   298.11768     -58319.626     -58630.331      310.70556      8880.3068      182018.86    
    198700   300.91144     -58315.844     -58629.461      313.61729      8964.7715      182018.86    
    198800   304.33345     -58309.883     -58627.067      317.18379      9000.5717      182018.86    
    198900   302.97801     -58310.345     -58626.116      315.77112      9048.3858      182018.86    
    199000   299.18112     -58316.126     -58627.94       311.81391      8944.1786      182018.86    
    199100   296.7174      -58318.26      -58627.506      309.24616      8910.7162      182018.86    
    199200   300.71459     -58317.302     -58630.714      313.41213      8968.0655      182018.86    
    199300   298.88145     -58317.388     -58628.89       311.50159      8934.6018      182018.86    
    199400   304.33427     -58313.783     -58630.967      317.18464      8961.4951      182018.86    
    199500   302.44641     -58312.098     -58627.315      315.21708      8964.0892      182018.86    
    199600   296.73128     -58315.706     -58624.967      309.26062      8973.8428      182018.86    
    199700   298.55239     -58321.453     -58632.612      311.15863      8926.7643      182018.86    
    199800   296.33068     -58322.735     -58631.578      308.84311      8837.1858      182018.86    
    199900   300.21344     -58318.525     -58631.415      312.88982      8948.896       182018.86    
    200000   299.99007     -58315.871     -58628.528      312.65702      8988.7469      182018.86    
Loop time of 26248.3 on 20 procs for 200000 steps with 8064 atoms

Performance: 0.658 ns/day, 36.456 hours/ns, 7.620 timesteps/s, 61.444 katom-step/s
100.0% CPU use with 20 MPI tasks x 1 OpenMP threads

MPI task timing breakdown:
Section |  min time  |  avg time  |  max time  |%varavg| %total
---------------------------------------------------------------
Pair    | 22880      | 24133      | 25838      | 657.0 | 91.94
Neigh   | 233.52     | 254.96     | 283.05     | 101.8 |  0.97
Comm    | 120.24     | 1853       | 3127.9     |2408.9 |  7.06
Output  | 0.49622    | 0.57356    | 0.663      |   6.3 |  0.00
Modify  | 3.5833     | 4.5576     | 5.6161     |  26.9 |  0.02
Other   |            | 1.919      |            |       |  0.01

Nlocal:          403.2 ave         432 max         382 min
Histogram: 8 0 0 3 1 0 3 1 0 4
Nghost:        1633.95 ave        1683 max        1598 min
Histogram: 6 5 1 0 0 0 0 0 4 4
Neighs:              0 ave           0 max           0 min
Histogram: 20 0 0 0 0 0 0 0 0 0
FullNghs:      23106.7 ave       24696 max       21811 min
Histogram: 4 4 0 1 3 0 3 1 0 4

Total # of neighbors = 462134
Ave neighs/atom = 57.308284
Neighbor list builds = 200000
Dangerous builds not checked
Total wall time: 7:17:28
