ITEM: TIMESTEP
0
ITEM: NUMBER OF ATOMS
96
ITEM: BOX BOUNDS xy xz yz pp pp pp
-1.9502768608408696e+00 1.1339214512371766e+01 0.0000000000000000e+00
0.0000000000000000e+00 1.1464909705241407e+01 -1.9502768608408696e+00
0.0000000000000000e+00 1.1581352099068955e+01 0.0000000000000000e+00
ITEM: ATOMS id type x y z fx fy fz
   1 1    3.77731347000000062    3.40853953000000054    1.17718622000000006    0.00000000000000000    0.00000000000000000    0.00000000000000000
   2 1    1.25817770000000007    0.78603095000000012    0.81391066999999995    0.00000000000000000    0.00000000000000000    0.00000000000000000
   3 1    0.98258716000000013    3.02408572999999992    4.19817522000000043    0.00000000000000000    0.00000000000000000    0.00000000000000000
   4 1    3.15200227999999916    5.27979114000000038    4.83879208000000016    0.00000000000000000    0.00000000000000000    0.00000000000000000
   5 2    3.64817568999999997    1.68333588000000001    0.03972580000000001    0.00000000000000000    0.00000000000000000    0.00000000000000000
   6 2    2.06048948999999970    4.72204012999999989    3.15051571000000097    0.00000000000000000    0.00000000000000000    0.00000000000000000
   7 2    1.34270587000000008    4.60294208999999999    6.58057820999999965    0.00000000000000000    0.00000000000000000    0.00000000000000000
   8 2    1.69183801999999961    0.78151341000000019    2.89427893999999997    0.00000000000000000    0.00000000000000000    0.00000000000000000
   9 2    5.06100440000000074    4.18632687000000026    3.75381520999999996    0.00000000000000000    0.00000000000000000    0.00000000000000000
  10 2   -0.35336394000000038    1.07435202000000030    4.84349672000000009    0.00000000000000000    0.00000000000000000    0.00000000000000000
  11 2   -0.34491056000000014    1.30301635000000005    2.25774419999999987    0.00000000000000000    0.00000000000000000    0.00000000000000000
  12 2    6.00203674000000031    3.62061686000000105    0.71863518999999998    0.00000000000000000    0.00000000000000000    0.00000000000000000
  13 1    2.82682535999999951    3.14885451000000050    7.18126061999999976    0.00000000000000000    0.00000000000000000    0.00000000000000000
  14 1    0.57066070999999974   11.01080137524140667    7.07172608000000036    0.00000000000000000    0.00000000000000000    0.00000000000000000
  15 1   -0.66419903000000136    2.32597339000000014    9.29724309000000027    0.00000000000000000    0.00000000000000000    0.00000000000000000
  16 1    1.67944085999999992    5.23346591000000050   10.40224161000000080    0.00000000000000000    0.00000000000000000    0.00000000000000000
  17 2    2.42116156000000027    1.15031455000000027    6.79688506000000014    0.00000000000000000    0.00000000000000000    0.00000000000000000
  18 2    0.53989855999999881    4.39916506000000052    8.69588032000000055    0.00000000000000000    0.00000000000000000    0.00000000000000000
  19 2   -0.37615463000000104    4.37656147000000040   10.55431295000000169    0.00000000000000000    0.00000000000000000    0.00000000000000000
  20 2    1.37119110999999894    2.07180375999999988    8.63536861000000044    0.00000000000000000    0.00000000000000000    0.00000000000000000
  21 2    3.11983745999999984    4.11113541000000104    9.43065915999999937    0.00000000000000000    0.00000000000000000    0.00000000000000000
  22 2    8.74677979237176473    0.93212991999999995   11.16838583999999912    0.00000000000000000    0.00000000000000000    0.00000000000000000
  23 2   10.13947912237176574    1.65926499000000005    7.12343063000000054    0.00000000000000000    0.00000000000000000    0.00000000000000000
  24 2    4.72979954999999919    4.17634949999999971    6.58497329000000065    0.00000000000000000    0.00000000000000000    0.00000000000000000
  25 1    3.56912436000000000    8.87559779999999954    1.96628102999999999    0.00000000000000000    0.00000000000000000    0.00000000000000000
  26 1    1.72963616000000009    6.07672247999999993    1.38833487000000022    0.00000000000000000    0.00000000000000000    0.00000000000000000
  27 1    0.10673828999999964    8.69573405000000044    3.93928621000000012    0.00000000000000000    0.00000000000000000    0.00000000000000000
  28 1    3.82746455000000019   11.13585364000000055    4.53333404999999967    0.00000000000000000    0.00000000000000000    0.00000000000000000
  29 2    2.61566197000000011    7.79620436999999988    0.26367868999999999    0.00000000000000000    0.00000000000000000    0.00000000000000000
  30 2    1.59862513999999978    9.90429815000000069    3.28654093000000058    0.00000000000000000    0.00000000000000000    0.00000000000000000
  31 2    1.63923653999999885   10.87062713999999986    5.22677011000000036    0.00000000000000000    0.00000000000000000    0.00000000000000000
  32 2    2.95262714000000015    7.23842047000000033    4.39724986999999956    0.00000000000000000    0.00000000000000000    0.00000000000000000
  33 2    4.84992718999999983    9.47255982000000074    3.56317354000000064    0.00000000000000000    0.00000000000000000    0.00000000000000000
  34 2    0.46917133999999949    6.69926235999999964    4.83487325000000112    0.00000000000000000    0.00000000000000000    0.00000000000000000
  35 2    0.05616085999999981    7.57916612999999995    2.07941237000000001    0.00000000000000000    0.00000000000000000    0.00000000000000000
  36 2    4.79956519999999909   10.24023030999999939    1.09107850000000006    0.00000000000000000    0.00000000000000000    0.00000000000000000
  37 1    3.14864926999999950    8.99732881000000084    7.37576444000000109    0.00000000000000000    0.00000000000000000    0.00000000000000000
  38 1    0.61105779999999987    6.41062719000000047    7.01895677000000084    0.00000000000000000    0.00000000000000000    0.00000000000000000
  39 1   -0.26342016000000140    7.90570036000000087    9.73004504000000026    0.00000000000000000    0.00000000000000000    0.00000000000000000
  40 1    2.41073855000000004    0.09257107475859543    9.35327129000000035    0.00000000000000000    0.00000000000000000    0.00000000000000000
  41 2    2.77429077999999985    6.70070697999999965    6.38867900999999971    0.00000000000000000    0.00000000000000000    0.00000000000000000
  42 2    1.43563753999999921    9.24675636999999995    8.38676652999999916    0.00000000000000000    0.00000000000000000    0.00000000000000000
  43 2    1.32087220999999921   10.50715656000000031   10.73579480999999980    0.00000000000000000    0.00000000000000000    0.00000000000000000
  44 2    0.88921892999999896    6.55445946000000035    9.04366197000000049    0.00000000000000000    0.00000000000000000    0.00000000000000000
  45 2    4.18847224999999934    9.53931831000000052    9.30122202000000087    0.00000000000000000    0.00000000000000000    0.00000000000000000
  46 2    9.39967929237176492    6.92505333999999984   10.21044333000000037    0.00000000000000000    0.00000000000000000    0.00000000000000000
  47 2   -1.03529637000000063    7.79555463000000159    7.11396464999999978    0.00000000000000000    0.00000000000000000    0.00000000000000000
  48 2    4.18019689000000039   10.58337422000000139    7.40364302999999957    0.00000000000000000    0.00000000000000000    0.00000000000000000
  49 1    9.59796926999999656    3.52603987999999990    1.99931670000000028    0.00000000000000000    0.00000000000000000    0.00000000000000000
  50 1    7.12220712999999961    0.47394402000000008    1.19572924000000014    0.00000000000000000    0.00000000000000000    0.00000000000000000
  51 1    6.47130219999999934    2.66974548999999994    3.84316141999999994    0.00000000000000000    0.00000000000000000    0.00000000000000000
  52 1    8.79330232000000045    5.26999179000000062    5.58532628000000031    0.00000000000000000    0.00000000000000000    0.00000000000000000
  53 2    8.98272957000000005    2.06657071000000014    0.09673597000000002    0.00000000000000000    0.00000000000000000    0.00000000000000000
  54 2    7.93650787000000069    4.43889881000000130    3.43968381999999995    0.00000000000000000    0.00000000000000000    0.00000000000000000
  55 2    6.74029557999999973    4.68540766000000009    6.15951121999999973    0.00000000000000000    0.00000000000000000    0.00000000000000000
  56 2    8.42568272000000107    1.54322626999999990    3.40097855000000004    0.00000000000000000    0.00000000000000000    0.00000000000000000
  57 2    0.09067516762823438    4.48018147999999972    3.05963757000000003    0.00000000000000000    0.00000000000000000    0.00000000000000000
  58 2    4.97053447999999953    1.49904529000000020    5.23184101000000013    0.00000000000000000    0.00000000000000000    0.00000000000000000
  59 2    5.67486979000000069    2.00583900999999987    1.72264667000000005    0.00000000000000000    0.00000000000000000    0.00000000000000000
  60 2   10.87437588999999960    5.76599058000000042    0.80728856999999998    0.00000000000000000    0.00000000000000000    0.00000000000000000
  61 1    8.98693867999999974    3.42343132000000061    7.66431796000000087    0.00000000000000000    0.00000000000000000    0.00000000000000000
  62 1    6.41298461999999869    0.29535252000000006    7.54220936000000020    0.00000000000000000    0.00000000000000000    0.00000000000000000
  63 1    4.82022070999999919    2.75502545000000065   10.04996623000000255    0.00000000000000000    0.00000000000000000    0.00000000000000000
  64 1    7.54940975999999875    5.47803690000000021   10.28611217999999994    0.00000000000000000    0.00000000000000000    0.00000000000000000
  65 2    7.55104261000000054    1.35788228000000011    5.78615510000000022    0.00000000000000000    0.00000000000000000    0.00000000000000000
  66 2    6.97979112999999973    4.54869415000000021    8.14027581999999938    0.00000000000000000    0.00000000000000000    0.00000000000000000
  67 2    5.65312797999999717    4.32743205999999958   11.46164968000000073    0.00000000000000000    0.00000000000000000    0.00000000000000000
  68 2    6.48955605999999996    2.10293104000000053    9.23251546000000012    0.00000000000000000    0.00000000000000000    0.00000000000000000
  69 2    9.19371265999999920    3.33078654000000096    9.65238729000000006    0.00000000000000000    0.00000000000000000    0.00000000000000000
  70 2    5.21019331000000019    0.28394754000000000   10.13749817000000064    0.00000000000000000    0.00000000000000000    0.00000000000000000
  71 2    4.33874292999999955    2.12734550000000011    7.96696954000000002    0.00000000000000000    0.00000000000000000    0.00000000000000000
  72 2   -1.10080187237176741    5.08922657000000012    7.64655395000000038    0.00000000000000000    0.00000000000000000    0.00000000000000000
  73 1    8.52294483000000014    8.70798493999999934    1.80358258000000005    0.00000000000000000    0.00000000000000000    0.00000000000000000
  74 1    7.19399456000000193    5.73069387000000052    1.12978036999999998    0.00000000000000000    0.00000000000000000    0.00000000000000000
  75 1    6.58235846000000002    8.47535075000000226    4.60798576999999998    0.00000000000000000    0.00000000000000000    0.00000000000000000
  76 1    9.08750163999999394   11.44196707000000046    5.07897932000000019    0.00000000000000000    0.00000000000000000    0.00000000000000000
  77 2    8.00825902000000056    7.37673620999999979    0.22990031000000000    0.00000000000000000    0.00000000000000000    0.00000000000000000
  78 2    7.69405505000000023   10.54910257999999956    3.14235941000000008    0.00000000000000000    0.00000000000000000    0.00000000000000000
  79 2    7.48409361999999945   10.01997174000000079    5.39685719000000041    0.00000000000000000    0.00000000000000000    0.00000000000000000
  80 2    7.67953971999999929    6.44831307000000020    3.11130016999999981    0.00000000000000000    0.00000000000000000    0.00000000000000000
  81 2    9.53565234999999944    9.67108112000000020    4.11797636000000011    0.00000000000000000    0.00000000000000000    0.00000000000000000
  82 2    6.01892310000000119    6.20908398999999989    4.76992675999999971    0.00000000000000000    0.00000000000000000    0.00000000000000000
  83 2    5.51929915999999920    7.49895253000000217    2.96421128000000023    0.00000000000000000    0.00000000000000000    0.00000000000000000
  84 2   10.28144609000000109   10.20846803999999963    0.68530471000000004    0.00000000000000000    0.00000000000000000    0.00000000000000000
  85 1    8.31233253000000083    8.31905328000000033    7.31941194000000017    0.00000000000000000    0.00000000000000000    0.00000000000000000
  86 1    5.68572141000000020    5.98399945000000066    7.68129163000000048    0.00000000000000000    0.00000000000000000    0.00000000000000000
  87 1    5.38607133000000005    8.20299415000000209    9.98987632999999953    0.00000000000000000    0.00000000000000000    0.00000000000000000
  88 1    7.94761350000000011   10.86522287000000020   10.30226601999999936    0.00000000000000000    0.00000000000000000    0.00000000000000000
  89 2    7.19483706000000023    7.09998907000000212    6.26549772000000083    0.00000000000000000    0.00000000000000000    0.00000000000000000
  90 2    7.43735564999999887    9.49868196999999981    8.93087874000000070    0.00000000000000000    0.00000000000000000    0.00000000000000000
  91 2    6.76850753999999988    9.21315034000000210   11.26103402999999936    0.00000000000000000    0.00000000000000000    0.00000000000000000
  92 2    7.30353590999999902    6.98502984000000104    8.49954295999999943    0.00000000000000000    0.00000000000000000    0.00000000000000000
  93 2   -1.61449097237176908   10.38642341000000258    9.59431350000000016    0.00000000000000000    0.00000000000000000    0.00000000000000000
  94 2    4.41274376999999873    6.01973951999999990   10.26064543999999934    0.00000000000000000    0.00000000000000000    0.00000000000000000
  95 2    5.08120633999999782    8.39569957000000144    7.04613007000000025    0.00000000000000000    0.00000000000000000    0.00000000000000000
  96 2   -1.21253849237176636    9.79770386000000038    7.41435405000000092    0.00000000000000000    0.00000000000000000    0.00000000000000000
