LAMMPS (27 Jun 2024)
OMP_NUM_THREADS environment is not set. Defaulting to 1 thread. (src/comm.cpp:98)
  using 1 OpenMP thread(s) per MPI task
Reading data file ...
  orthogonal box = (0 0 0) to (22.422218 22.19224 20.321894)
  5 by 2 by 2 MPI processor grid
  reading atoms ...
  448 atoms
  read_data CPU = 0.005 seconds
**************** Begin of POD Potentials ****************
species: Hf 
periodic boundary conditions: 1 1 1
number of environment clusters: 8
number of principal compoments: 2
inner cut-off radius: 1
outer cut-off radius: 5
cut-off function type: 1
gaussian_exponents: 
polynomial_degrees: 
bessel polynomial degree: 4
inverse polynomial degree: 10
one-body potential: 1
two-body radial basis functions: 8
three-body radial basis functions: 8
three-body angular degree: 6
four-body radial basis functions: 7
four-body angular degree: 5
five-body radial basis functions: 0
five-body angular degree: 0
six-body radial basis functions: 0
six-body angular degree: 0
seven-body radial basis functions: 0
seven-body angular degree: 0
number of local descriptors per element for one-body potential: 1
number of local descriptors per element for two-body potential: 8
number of local descriptors per element for three-body potential: 56
number of local descriptors per element for four-body potential: 112
number of local descriptors per element for five-body potential: 0
number of local descriptors per element for six-body potential: 0
number of local descriptors per element for seven-body potential: 0
number of local descriptors per element for all potentials: 177
number of global descriptors: 1409
**************** End of POD Potentials ****************

**************** Begin of Model Coefficients ****************
total number of coefficients for POD potential: 1409
total number of elements for PCA projection matrix: 352
total number of elements for PCA centroids: 16
**************** End of Model Coefficients ****************


CITE-CITE-CITE-CITE-CITE-CITE-CITE-CITE-CITE-CITE-CITE-CITE-CITE

Your simulation uses code contributions which should be cited:
- Type Label Framework: https://doi.org/10.1021/acs.jpcb.3c08419
The log file lists these citations in BibTeX format.

CITE-CITE-CITE-CITE-CITE-CITE-CITE-CITE-CITE-CITE-CITE-CITE-CITE

Neighbor list info ...
  update: every = 1 steps, delay = 0 steps, check = no
  max neighbors/atom: 2000, page size: 100000
  master list distance cutoff = 7
  ghost atom cutoff = 7
  binsize = 3.5, bins = 7 7 6
  1 neighbor lists, perpetual/occasional/extra = 1 0 0
  (1) pair pod, perpetual
      attributes: full, newton on
      pair build: full/bin/atomonly
      stencil: full/bin/3d
      bin: standard
Setting up Verlet run ...
  Unit style    : metal
  Current step  : 0
  Time step     : 0.001
Per MPI rank memory allocation (min/avg/max) = 2.586 | 2.586 | 2.586 Mbytes
   Step          Temp          TotEng         PotEng         KinEng         Press          Volume    
         0   300           -3231.7429     -3249.0767      17.333785      27701.818      10112.159    
       100   315.07912     -3235.7533     -3253.9584      18.205046      9238.0886      10112.159    
       200   235.17368     -3236.4673     -3250.0555      13.588167      10434.958      10112.159    
       300   340.38065     -3235.164      -3254.831       19.66695       9052.117       10112.159    
       400   343.81062     -3237.3875     -3257.2526      19.865131      9108.8366      10112.159    
       500   311.72772     -3240.4198     -3258.4312      18.011405      8423.0858      10112.159    
       600   291.95638     -3241.0585     -3257.9276      16.869031      8257.7582      10112.159    
       700   292.25788     -3240.106      -3256.9924      16.886451      8975.8185      10112.159    
       800   293.56416     -3239.2355     -3256.1974      16.961927      8726.6606      10112.159    
       900   309.62813     -3238.7513     -3256.6414      17.890092      8765.5509      10112.159    
      1000   308.91087     -3239.742      -3257.5906      17.848649      8248.4088      10112.159    
      1100   298.34879     -3240.2523     -3257.4907      17.238379      8749.6413      10112.159    
      1200   305.26742     -3240.1508     -3257.7889      17.638133      8370.16        10112.159    
      1300   294.94202     -3240.4011     -3257.4427      17.041539      8953.6662      10112.159    
      1400   288.24486     -3239.9328     -3256.5874      16.654582      8787.7797      10112.159    
      1500   305.64448     -3238.5235     -3256.1834      17.65992       8783.8863      10112.159    
      1600   324.32309     -3238.1152     -3256.8543      18.739156      8643.5405      10112.159    
      1700   297.3379      -3239.231      -3256.411       17.179971      9222.2159      10112.159    
      1800   304.94334     -3239.5219     -3257.1413      17.619408      8942.3034      10112.159    
      1900   291.75377     -3239.9607     -3256.818       16.857324      8789.3779      10112.159    
      2000   290.00311     -3240.3742     -3257.1304      16.756173      8281.9353      10112.159    
      2100   315.45972     -3240.4663     -3258.6934      18.227037      8508.4904      10112.159    
      2200   280.323       -3240.7028     -3256.8996      16.196863      8558.0077      10112.159    
      2300   303.54188     -3239.6959     -3257.2343      17.538433      9071.1582      10112.159    
      2400   301.47013     -3238.9936     -3256.4124      17.418728      8716.7237      10112.159    
      2500   307.57427     -3238.4497     -3256.2211      17.771421      8910.1113      10112.159    
      2600   303.79557     -3238.5631     -3256.1162      17.553091      9047.9006      10112.159    
      2700   296.23733     -3240.324      -3257.4403      17.116381      8690.1836      10112.159    
      2800   303.4556      -3240.6463     -3258.1798      17.533448      8442.0368      10112.159    
      2900   293.6521      -3240.4906     -3257.4576      16.967008      8514.9359      10112.159    
      3000   304.91891     -3239.316      -3256.934       17.617996      8810.6357      10112.159    
      3100   321.27747     -3237.9678     -3256.531       18.563183      9183.0664      10112.159    
      3200   292.83709     -3238.5981     -3255.518       16.919917      9109.1922      10112.159    
      3300   313.0536      -3239.0336     -3257.1216      18.088013      9286.5833      10112.159    
      3400   287.63023     -3240.0071     -3256.6262      16.619069      8854.2821      10112.159    
      3500   305.47994     -3240.0105     -3257.6609      17.650413      8737.5804      10112.159    
      3600   289.92027     -3240.2475     -3256.9989      16.751386      8800.5896      10112.159    
      3700   310.44364     -3239.9861     -3257.9233      17.937212      8851.1977      10112.159    
      3800   303.67912     -3239.3923     -3256.9387      17.546363      8688.854       10112.159    
      3900   311.22279     -3238.6734     -3256.6556      17.98223       8923.0108      10112.159    
      4000   309.88137     -3238.7185     -3256.6232      17.904724      8968.8         10112.159    
      4100   291.01745     -3240.1397     -3256.9545      16.81478       8851.105       10112.159    
      4200   299.79782     -3240.5805     -3257.9026      17.322104      8285.1318      10112.159    
      4300   289.43374     -3240.6736     -3257.3969      16.723274      8740.7082      10112.159    
      4400   314.78192     -3239.7221     -3257.91        18.187874      8826.1911      10112.159    
      4500   298.00006     -3239.3104     -3256.5286      17.21823       8418.7065      10112.159    
      4600   291.71729     -3240.3743     -3257.2295      16.855216      8166.4398      10112.159    
      4700   299.19844     -3241.0768     -3258.3642      17.287472      8856.4757      10112.159    
      4800   279.86316     -3241.1349     -3257.3052      16.170293      8281.9558      10112.159    
      4900   305.82054     -3239.8815     -3257.5516      17.670092      8329.3551      10112.159    
      5000   298.13203     -3239.0707     -3256.2966      17.225855      8948.4656      10112.159    
      5100   321.92828     -3238.3784     -3256.9791      18.600786      8973.447       10112.159    
      5200   290.45933     -3239.6294     -3256.4119      16.782532      8809.0452      10112.159    
      5300   309.33531     -3240.1878     -3258.0609      17.873173      8836.6921      10112.159    
      5400   301.3972      -3240.2412     -3257.6557      17.414514      8342.7619      10112.159    
      5500   302.80336     -3239.635      -3257.1308      17.495762      8755.6278      10112.159    
      5600   322.26909     -3238.7496     -3257.3701      18.620478      9178.9621      10112.159    
      5700   295.65725     -3239.5722     -3256.6551      17.082865      8907.6135      10112.159    
      5800   289.59901     -3241.0684     -3257.8012      16.732824      8378.1643      10112.159    
      5900   292.17677     -3241.069      -3257.9507      16.881765      8474.8938      10112.159    
      6000   299.65356     -3240.3072     -3257.621       17.313768      8386.8363      10112.159    
      6100   311.25281     -3239.6559     -3257.6399      17.983965      8718.6429      10112.159    
      6200   271.81359     -3239.8598     -3255.565       15.705195      9096.3519      10112.159    
      6300   328.01789     -3239.0126     -3257.9652      18.952639      8772.8505      10112.159    
      6400   285.40458     -3239.9779     -3256.4684      16.490473      9195.6322      10112.159    
      6500   296.7261      -3239.8669     -3257.0115      17.144622      8730.951       10112.159    
      6600   305.82888     -3239.6012     -3257.2718      17.670574      8902.1115      10112.159    
      6700   273.43311     -3241.3845     -3257.1832      15.798769      8636.7843      10112.159    
      6800   294.37181     -3241.6716     -3258.6802      17.008592      8043.7372      10112.159    
      6900   281.76358     -3240.8342     -3257.1143      16.280098      8481.5037      10112.159    
      7000   318.07378     -3239.5112     -3257.8892      18.378075      8473.1528      10112.159    
      7100   307.48591     -3239.6829     -3257.4492      17.766316      8490.1733      10112.159    
      7200   285.00697     -3239.8622     -3256.3297      16.467499      8898.1935      10112.159    
      7300   317.5697      -3239.14       -3257.4889      18.34895       8618.5906      10112.159    
      7400   293.26214     -3239.8593     -3256.8038      16.944477      8918.9931      10112.159    
      7500   301.30538     -3240.554      -3257.9633      17.409209      8326.0244      10112.159    
      7600   285.28477     -3241.1297     -3257.6133      16.48355       8582.5753      10112.159    
      7700   292.46787     -3241.6528     -3258.5514      16.898584      8057.0379      10112.159    
      7800   296.74067     -3240.8064     -3257.9518      17.145464      8447.3583      10112.159    
      7900   289.74182     -3239.4271     -3256.1682      16.741075      8840.596       10112.159    
      8000   325.34214     -3238.8738     -3257.6718      18.798036      8885.2696      10112.159    
      8100   288.22465     -3239.9714     -3256.6248      16.653414      8521.0426      10112.159    
      8200   297.76501     -3240.0543     -3257.2589      17.204649      8790.2809      10112.159    
      8300   304.33268     -3239.9591     -3257.5432      17.584124      8741.4923      10112.159    
      8400   302.66615     -3240.3303     -3257.8182      17.487834      8515.7926      10112.159    
      8500   289.48636     -3240.8257     -3257.5521      16.726315      8507.032       10112.159    
      8600   285.92103     -3240.7804     -3257.3007      16.520313      8477.0468      10112.159    
      8700   309.77398     -3239.8077     -3257.7062      17.898519      8737.8365      10112.159    
      8800   299.37697     -3239.0776     -3256.3754      17.297787      9286.4672      10112.159    
      8900   308.58905     -3238.7785     -3256.6086      17.830054      9000.8132      10112.159    
      9000   288.04017     -3240.1087     -3256.7515      16.642755      9001.8423      10112.159    
      9100   305.9321      -3240.8804     -3258.5569      17.676538      8329.4522      10112.159    
      9200   281.29897     -3241.0169     -3257.2702      16.253253      8394.9166      10112.159    
      9300   301.31542     -3239.6755     -3257.0853      17.409789      9131.4034      10112.159    
      9400   317.35813     -3238.409      -3256.7457      18.336726      8962.7618      10112.159    
      9500   313.01885     -3238.5065     -3256.5925      18.086005      9025.2653      10112.159    
      9600   295.02124     -3239.64       -3256.6862      17.046116      8606.3353      10112.159    
      9700   298.09488     -3240.0897     -3257.3134      17.223709      8537.1568      10112.159    
      9800   305.13013     -3239.9645     -3257.5947      17.630201      8900.8918      10112.159    
      9900   300.83916     -3239.4515     -3256.8338      17.382271      9075.2782      10112.159    
     10000   307.52364     -3238.3718     -3256.1403      17.768496      9083.5957      10112.159    
     10100   303.22031     -3239.0739     -3256.5938      17.519853      8928.3487      10112.159    
     10200   295.48592     -3240.0162     -3257.0891      17.072965      8643.2255      10112.159    
     10300   302.08487     -3240.5958     -3258.05        17.454248      8270.765       10112.159    
     10400   282.48144     -3240.9306     -3257.2522      16.321575      8757.4761      10112.159    
     10500   296.08742     -3240.4276     -3257.5353      17.10772       8755.113       10112.159    
     10600   297.19302     -3240.1246     -3257.2962      17.1716        8540.3614      10112.159    
     10700   300.73187     -3239.6863     -3257.0623      17.376072      8861.0521      10112.159    
     10800   307.9892      -3239.0639     -3256.8593      17.795396      8842.9997      10112.159    
     10900   314.36099     -3238.5399     -3256.7035      18.163553      9285.7159      10112.159    
     11000   295.52842     -3239.409      -3256.4845      17.075421      9323.7749      10112.159    
     11100   291.01878     -3240.4613     -3257.2762      16.814857      8391.3146      10112.159    
     11200   288.81405     -3240.9128     -3257.6002      16.687469      9017.7072      10112.159    
     11300   289.40814     -3240.9734     -3257.6952      16.721796      8454.737       10112.159    
     11400   311.5391      -3239.6682     -3257.6687      18.000506      8793.0996      10112.159    
     11500   301.06623     -3238.9833     -3256.3787      17.395392      9352.9203      10112.159    
     11600   302.09654     -3239.2452     -3256.7001      17.454922      9089.212       10112.159    
     11700   296.68344     -3240.3205     -3257.4627      17.142157      8553.5991      10112.159    
     11800   304.15941     -3240.8768     -3258.4509      17.574113      8750.8528      10112.159    
     11900   270.82411     -3241.3425     -3256.9905      15.648023      8912.9399      10112.159    
     12000   302.32607     -3240.6174     -3258.0856      17.468184      8863.6165      10112.159    
     12100   306.38024     -3239.5424     -3257.2448      17.702431      8923.4233      10112.159    
     12200   325.08405     -3238.5        -3257.2832      18.783124      9228.5068      10112.159    
     12300   290.97011     -3238.9648     -3255.7769      16.812045      9393.0238      10112.159    
     12400   298.57433     -3239.8974     -3257.1488      17.251411      9362.9701      10112.159    
     12500   298.56797     -3240.7481     -3257.9992      17.251044      8740.1878      10112.159    
     12600   290.85945     -3240.6418     -3257.4474      16.805651      8743.1587      10112.159    
     12700   290.63978     -3240.0126     -3256.8056      16.792959      9106.207       10112.159    
     12800   313.05035     -3239.1981     -3257.2859      18.087825      9047.2732      10112.159    
     12900   305.12233     -3239.4667     -3257.0965      17.62975       8598.6896      10112.159    
     13000   298.62734     -3240.4031     -3257.6576      17.254474      8809.806       10112.159    
     13100   282.86834     -3241.5439     -3257.8878      16.34393       8443.5065      10112.159    
     13200   289.61219     -3241.6286     -3258.3622      16.733585      8574.5774      10112.159    
     13300   301.69418     -3239.9291     -3257.3608      17.431674      8777.6328      10112.159    
     13400   301.31107     -3239.0932     -3256.5027      17.409538      9309.5567      10112.159    
     13500   304.88669     -3238.8887     -3256.5048      17.616135      9136.2963      10112.159    
     13600   288.12306     -3239.8704     -3256.5179      16.647544      9082.9267      10112.159    
     13700   297.87537     -3240.5877     -3257.7988      17.211026      9104.4959      10112.159    
     13800   304.87721     -3240.4127     -3258.0283      17.615587      8333.8059      10112.159    
     13900   294.48361     -3239.8213     -3256.8364      17.015053      9141.0854      10112.159    
     14000   309.72126     -3237.8084     -3255.7038      17.895473      9474.5526      10112.159    
     14100   305.04925     -3238.1558     -3255.7814      17.625528      9568.0604      10112.159    
     14200   316.1453      -3239.0821     -3257.3487      18.266649      8645.3231      10112.159    
     14300   294.22189     -3240.1488     -3257.1488      16.99993       8811.0156      10112.159    
     14400   294.68245     -3240.1269     -3257.1534      17.026541      9076.1223      10112.159    
     14500   300.24357     -3239.9406     -3257.2884      17.347859      8930.2424      10112.159    
     14600   301.20218     -3239.7187     -3257.1219      17.403246      8772.9645      10112.159    
     14700   311.97388     -3238.5281     -3256.5538      18.025628      9313.9796      10112.159    
     14800   311.68303     -3238.2194     -3256.2282      18.008823      9399.6828      10112.159    
     14900   307.50339     -3239.6487     -3257.416       17.767326      9225.5377      10112.159    
     15000   277.36978     -3240.6833     -3256.7095      16.026228      8855.366       10112.159    
     15100   312.02707     -3240.0818     -3258.1105      18.028701      8563.9851      10112.159    
     15200   302.79074     -3239.6941     -3257.1891      17.495032      9113.5573      10112.159    
     15300   295.82311     -3238.8088     -3255.9013      17.092448      9571.2251      10112.159    
     15400   322.37318     -3237.6728     -3256.2993      18.626492      9365.4941      10112.159    
     15500   311.70921     -3238.5862     -3256.5966      18.010335      9139.4012      10112.159    
     15600   291.96112     -3240.4714     -3257.3407      16.869305      8650.4127      10112.159    
     15700   287.63798     -3240.9309     -3257.5504      16.619517      8722.6941      10112.159    
     15800   294.74692     -3240.663      -3257.6932      17.030266      8959.211       10112.159    
     15900   304.99763     -3239.2749     -3256.8975      17.622545      9434.703       10112.159    
     16000   314.3126      -3238.7274     -3256.8882      18.160757      9002.7847      10112.159    
     16100   304.23307     -3239.2574     -3256.8358      17.578369      9033.3979      10112.159    
     16200   292.28276     -3239.7503     -3256.6382      16.887889      9209.7069      10112.159    
     16300   287.08496     -3240.3183     -3256.9059      16.587563      8841.0253      10112.159    
     16400   283.99911     -3242.1179     -3258.5272      16.409266      8604.8685      10112.159    
     16500   300.83535     -3242.2895     -3259.6716      17.382051      8222.2705      10112.159    
     16600   275.28884     -3241.2592     -3257.1652      15.905993      8927.1054      10112.159    
     16700   288.17868     -3240.2621     -3256.9128      16.650758      8915.8231      10112.159    
     16800   315.88881     -3239.4692     -3257.7211      18.251829      9096.2814      10112.159    
     16900   293.68631     -3239.6785     -3256.6474      16.968985      9302.5903      10112.159    
     17000   306.82713     -3239.6472     -3257.3754      17.728252      9039.9056      10112.159    
     17100   285.71638     -3240.4399     -3256.9484      16.508488      9112.2975      10112.159    
     17200   311.85927     -3240.6584     -3258.6774      18.019005      8616.463       10112.159    
     17300   285.91988     -3240.611      -3257.1313      16.520246      8921.756       10112.159    
     17400   300.92877     -3239.2427     -3256.6301      17.387449      9070.1209      10112.159    
     17500   304.07886     -3238.5136     -3256.083       17.569459      9111.6462      10112.159    
     17600   310.49221     -3239.1395     -3257.0795      17.940018      9086.8986      10112.159    
     17700   310.48012     -3240.2958     -3258.2351      17.93932       8729.4755      10112.159    
     17800   285.22874     -3240.551      -3257.0313      16.480312      8858.5751      10112.159    
     17900   277.27504     -3240.3644     -3256.3852      16.020753      9122.0092      10112.159    
     18000   309.73392     -3239.639      -3257.5352      17.896204      8628.3578      10112.159    
     18100   323.0576      -3239.1557     -3257.8217      18.666037      8681.8374      10112.159    
     18200   299.88985     -3239.2501     -3256.5775      17.327421      9083.3729      10112.159    
     18300   306.41938     -3239.4979     -3257.2026      17.704693      8910.1868      10112.159    
     18400   286.98777     -3240.4245     -3257.0064      16.581948      9025.6117      10112.159    
     18500   300.68431     -3240.7988     -3258.1721      17.373324      8487.3627      10112.159    
     18600   297.72949     -3240.6686     -3257.8712      17.202597      8879.104       10112.159    
     18700   307.98158     -3239.2123     -3257.0072      17.794956      9055.1963      10112.159    
     18800   308.75015     -3238.4409     -3256.2802      17.839363      8941.1262      10112.159    
     18900   300.43992     -3238.7722     -3256.1314      17.359204      9287.4283      10112.159    
     19000   288.5977      -3240.9781     -3257.653       16.674969      8702.9803      10112.159    
     19100   299.39782     -3241.199      -3258.498       17.298992      8567.108       10112.159    
     19200   287.53468     -3240.4871     -3257.1006      16.613548      8561.5665      10112.159    
     19300   299.34332     -3239.2978     -3256.5936      17.295843      9203.8205      10112.159    
     19400   307.86244     -3238.8725     -3256.6606      17.788072      8933.9557      10112.159    
     19500   291.79446     -3239.7632     -3256.6229      16.859675      8927.7867      10112.159    
     19600   299.82844     -3240.6274     -3257.9512      17.323873      8733.7134      10112.159    
     19700   287.17073     -3240.7741     -3257.3666      16.59252       8661.0882      10112.159    
     19800   293.41647     -3240.3423     -3257.2957      16.953394      8974.0995      10112.159    
     19900   295.98496     -3239.8384     -3256.9402      17.101799      9392.7938      10112.159    
     20000   311.09833     -3239.3229     -3257.2979      17.975039      8819.6349      10112.159    
     20100   302.83001     -3239.4854     -3256.9827      17.497301      9265.2545      10112.159    
     20200   296.81851     -3240.4231     -3257.5731      17.149961      8977.5577      10112.159    
     20300   296.1269      -3241.0332     -3258.1432      17.110001      8834.1413      10112.159    
     20400   288.59856     -3240.9862     -3257.6612      16.675018      8589.0131      10112.159    
     20500   304.28748     -3239.4862     -3257.0678      17.581513      9135.2765      10112.159    
     20600   309.99788     -3238.6313     -3256.5427      17.911456      9285.0864      10112.159    
     20700   315.2947      -3238.9935     -3257.211       18.217502      8808.7121      10112.159    
     20800   297.80616     -3240.0295     -3257.2365      17.207027      8999.7987      10112.159    
     20900   301.37        -3240.2796     -3257.6925      17.412943      9078.6978      10112.159    
     21000   291.75731     -3240.2329     -3257.0904      16.857529      8961.3415      10112.159    
     21100   311.75695     -3239.7046     -3257.7177      18.013093      9016.8501      10112.159    
     21200   294.65949     -3239.6145     -3256.6397      17.025215      9124.6586      10112.159    
     21300   315.64826     -3238.4942     -3256.7322      18.237931      9173.0761      10112.159    
     21400   315.65891     -3237.4017     -3255.6402      18.238546      9285.3035      10112.159    
     21500   319.20735     -3238.5817     -3257.0252      18.443572      9270.2225      10112.159    
     21600   291.83903     -3239.8929     -3256.7551      16.862251      8975.3583      10112.159    
     21700   303.03456     -3240.0059     -3257.515       17.50912       8989.8872      10112.159    
     21800   290.01521     -3240.4753     -3257.2321      16.756872      8888.5221      10112.159    
     21900   292.21751     -3240.432      -3257.3161      16.884119      8919.3832      10112.159    
     22000   318.52909     -3238.9929     -3257.3973      18.404383      9062.9038      10112.159    
     22100   302.9993      -3238.7418     -3256.2489      17.507083      9194.3575      10112.159    
     22200   305.1548      -3239.6226     -3257.2543      17.631626      9024.3687      10112.159    
     22300   309.64348     -3241.0079     -3258.8989      17.890979      8635.1095      10112.159    
     22400   285.42671     -3241.1816     -3257.6733      16.491751      8745.3992      10112.159    
     22500   286.57644     -3240.6011     -3257.1592      16.558182      8800.5209      10112.159    
     22600   296.74084     -3239.7401     -3256.8856      17.145474      9087.6446      10112.159    
     22700   313.79286     -3239.402      -3257.5327      18.130727      8779.8977      10112.159    
     22800   296.73152     -3239.7704     -3256.9153      17.144935      9009.9176      10112.159    
     22900   297.43997     -3239.9837     -3257.1696      17.185869      9067.301       10112.159    
     23000   297.89329     -3239.877      -3257.0891      17.212061      9193.2195      10112.159    
     23100   302.59955     -3238.2405     -3255.7244      17.483985      9388.2987      10112.159    
     23200   338.84018     -3237.4926     -3257.0706      19.577943      9061.0944      10112.159    
     23300   302.27798     -3238.8035     -3256.2689      17.465406      9541.542       10112.159    
     23400   294.56656     -3239.591      -3256.6109      17.019845      9148.0699      10112.159    
     23500   297.87829     -3240.2495     -3257.4606      17.211195      9166.2907      10112.159    
     23600   296.58153     -3240.7669     -3257.9032      17.136269      8463.747       10112.159    
     23700   290.79669     -3240.7318     -3257.5339      16.802025      8840.9741      10112.159    
     23800   314.10192     -3239.1464     -3257.295       18.148584      8856.818       10112.159    
     23900   304.55329     -3238.7244     -3256.3213      17.596871      9086.4104      10112.159    
     24000   309.95912     -3238.7625     -3256.6717      17.909216      9258.9564      10112.159    
     24100   297.08669     -3240.1427     -3257.3082      17.165456      8887.1533      10112.159    
     24200   296.71078     -3241.0407     -3258.1845      17.143737      8583.619       10112.159    
     24300   283.53142     -3240.8771     -3257.2593      16.382243      8768.3979      10112.159    
     24400   313.47049     -3239.612      -3257.7241      18.112101      8717.5766      10112.159    
     24500   296.42862     -3239.4815     -3256.6089      17.127434      9052.5753      10112.159    
     24600   306.93784     -3239.373      -3257.1076      17.734649      8601.217       10112.159    
     24700   291.59545     -3240.1256     -3256.9738      16.848176      8873.4135      10112.159    
     24800   295.18578     -3240.8053     -3257.861       17.055623      8509.2297      10112.159    
     24900   292.03563     -3241.0086     -3257.8822      16.87361       8650.2331      10112.159    
     25000   308.09286     -3240.3801     -3258.1815      17.801385      8574.3009      10112.159    
     25100   294.98697     -3239.5833     -3256.6274      17.044136      8973.5947      10112.159    
     25200   297.89212     -3238.7381     -3255.9501      17.211993      9311.3999      10112.159    
     25300   317.85378     -3238.575      -3256.9403      18.365364      8928.1843      10112.159    
     25400   298.24889     -3240.3015     -3257.5341      17.232608      8543.4834      10112.159    
     25500   283.11291     -3241.1398     -3257.4979      16.358061      8456.4948      10112.159    
     25600   307.13802     -3240.5006     -3258.2468      17.746215      8358.4382      10112.159    
     25700   288.54854     -3239.7455     -3256.4177      16.672128      8961.8425      10112.159    
     25800   298.08762     -3238.5505     -3255.7738      17.22329       9307.2124      10112.159    
     25900   317.09731     -3238.7472     -3257.0688      18.321656      9042.2933      10112.159    
     26000   301.52899     -3239.7594     -3257.1815      17.422129      8885.0969      10112.159    
     26100   300.46206     -3240.0746     -3257.4351      17.360483      8610.4146      10112.159    
     26200   297.94871     -3240.1282     -3257.3435      17.215263      9020.8868      10112.159    
     26300   298.86855     -3240.2869     -3257.5553      17.268411      8536.5623      10112.159    
     26400   297.94854     -3240.4802     -3257.6955      17.215254      8748.5599      10112.159    
     26500   295.88255     -3240.4393     -3257.5352      17.095882      9079.5422      10112.159    
     26600   310.05516     -3239.4854     -3257.4002      17.914765      8917.991       10112.159    
     26700   319.90904     -3238.612      -3257.0962      18.484116      9205.4972      10112.159    
     26800   287.75631     -3239.2231     -3255.8495      16.626354      9315.5602      10112.159    
     26900   295.75066     -3240.8946     -3257.9829      17.088261      8623.6055      10112.159    
     27000   284.86428     -3241.8179     -3258.2771      16.459254      8556.4079      10112.159    
     27100   294.6153      -3240.9563     -3257.9789      17.022661      8646.2864      10112.159    
     27200   306.02276     -3239.9119     -3257.5937      17.681776      8911.4057      10112.159    
     27300   298.21405     -3239.4179     -3256.6485      17.230595      8791.2677      10112.159    
     27400   280.76289     -3239.3615     -3255.5837      16.222279      9504.2764      10112.159    
     27500   321.99579     -3239.3014     -3257.9061      18.604687      8979.0741      10112.159    
     27600   291.36056     -3240.9448     -3257.7794      16.834605      8612.1368      10112.159    
     27700   298.92358     -3241.168      -3258.4396      17.271591      8690.9027      10112.159    
     27800   292.9028      -3240.5047     -3257.4284      16.923714      8944.0097      10112.159    
     27900   302.9263      -3239.0162     -3256.519       17.502865      8752.8941      10112.159    
     28000   296.3017      -3239.0752     -3256.1953      17.1201        9147.0606      10112.159    
     28100   311.83241     -3239.3038     -3257.3212      18.017454      8692.0694      10112.159    
     28200   306.86312     -3240.2479     -3257.9783      17.730331      8530.8797      10112.159    
     28300   285.47749     -3241.8214     -3258.3161      16.494685      8360.5218      10112.159    
     28400   277.77609     -3241.6281     -3257.6779      16.049704      8627.7147      10112.159    
     28500   296.96584     -3240.7366     -3257.8951      17.158474      8888.6099      10112.159    
     28600   292.60301     -3239.9127     -3256.8191      16.906392      9304.959       10112.159    
     28700   318.92932     -3238.7568     -3257.1843      18.427508      9125.9521      10112.159    
     28800   313.37119     -3238.8136     -3256.92        18.106363      8866.4445      10112.159    
     28900   293.7419      -3239.9021     -3256.8743      16.972197      8807.7586      10112.159    
     29000   284.73312     -3240.4608     -3256.9125      16.451676      9080.6352      10112.159    
     29100   304.80171     -3240.0558     -3257.667       17.611225      8716.6342      10112.159    
     29200   304.77884     -3239.5953     -3257.2052      17.609904      8811.876       10112.159    
     29300   313.625       -3239.017      -3257.138       18.121028      9210.5649      10112.159    
     29400   266.43561     -3239.8389     -3255.2333      15.394459      9162.1709      10112.159    
     29500   306.30285     -3240.6131     -3258.3111      17.69796       8420.7557      10112.159    
     29600   294.70135     -3241.5716     -3258.5993      17.027633      8560.7446      10112.159    
     29700   293.56228     -3241.046      -3258.0078      16.961819      8815.5931      10112.159    
     29800   292.57082     -3239.1792     -3256.0837      16.904533      9324.9336      10112.159    
     29900   305.73953     -3238.7639     -3256.4293      17.665411      8938.6694      10112.159    
     30000   311.13455     -3239.4432     -3257.4203      17.977132      8924.188       10112.159    
     30100   298.61711     -3240.652      -3257.9059      17.253883      8915.2232      10112.159    
     30200   295.81256     -3240.7333     -3257.8252      17.091838      8448.409       10112.159    
     30300   287.70223     -3240.1619     -3256.7851      16.623229      8982.9785      10112.159    
     30400   315.29159     -3238.214      -3256.4313      18.217323      9298.7334      10112.159    
     30500   309.83202     -3238.1071     -3256.009       17.901873      9149.8236      10112.159    
     30600   306.22638     -3238.8293     -3256.5229      17.693541      8708.1712      10112.159    
     30700   300.80075     -3239.5266     -3256.9066      17.380052      9117.335       10112.159    
     30800   299.44634     -3240.3742     -3257.676       17.301795      8881.1352      10112.159    
     30900   291.20244     -3240.6444     -3257.4698      16.825469      8501.6236      10112.159    
     31000   298.40191     -3240.2703     -3257.5117      17.241449      8960.6282      10112.159    
     31100   300.59511     -3239.4762     -3256.8444      17.368171      8627.7875      10112.159    
     31200   314.56807     -3238.2928     -3256.4684      18.175518      9406.4487      10112.159    
     31300   306.5747      -3238.7631     -3256.4767      17.713667      9135.8601      10112.159    
     31400   289.30318     -3240.9352     -3257.651       16.715731      8836.6143      10112.159    
     31500   305.47508     -3240.6919     -3258.3421      17.650132      8896.2136      10112.159    
     31600   281.04683     -3240.3261     -3256.5648      16.238685      8847.5689      10112.159    
     31700   310.57995     -3239.1108     -3257.0559      17.945087      9058.6077      10112.159    
     31800   302.08611     -3238.7694     -3256.2237      17.454319      9447.1875      10112.159    
     31900   302.87878     -3238.9801     -3256.4802      17.500119      9106.297       10112.159    
     32000   308.72617     -3240.7779     -3258.6159      17.837977      8654.4232      10112.159    
     32100   277.42478     -3241.4848     -3257.5142      16.029405      8818.7858      10112.159    
     32200   295.34089     -3240.4585     -3257.5231      17.064585      8796.2567      10112.159    
     32300   302.79133     -3239.6033     -3257.0984      17.495066      8868.2745      10112.159    
     32400   310.27305     -3239.0606     -3256.988       17.927355      9203.8794      10112.159    
     32500   305.32233     -3239.3489     -3256.9902      17.641306      8939.3642      10112.159    
     32600   278.96531     -3241.3778     -3257.4962      16.118416      8758.0271      10112.159    
     32700   288.54508     -3241.6023     -3258.2742      16.671928      8715.9987      10112.159    
     32800   281.17793     -3240.9383     -3257.1846      16.24626       8413.8403      10112.159    
     32900   310.78625     -3239.7489     -3257.7059      17.957007      8750.4729      10112.159    
     33000   311.20067     -3239.4082     -3257.3892      17.980952      9065.0848      10112.159    
     33100   294.61986     -3239.6927     -3256.7156      17.022925      9326.8405      10112.159    
     33200   297.11361     -3240.179      -3257.346       17.167012      8910.9911      10112.159    
     33300   285.05969     -3241.51       -3257.9805      16.470545      8742.0901      10112.159    
     33400   284.48836     -3241.8821     -3258.3197      16.437534      8651.6722      10112.159    
     33500   301.66676     -3240.4682     -3257.8983      17.430089      9025.3504      10112.159    
     33600   305.88372     -3239.5476     -3257.2214      17.673742      8874.5879      10112.159    
     33700   286.842       -3239.4654     -3256.039       16.573526      9021.7505      10112.159    
     33800   320.65909     -3238.9931     -3257.5205      18.527453      8809.0915      10112.159    
     33900   298.31237     -3240.0689     -3257.3051      17.236275      8900.8063      10112.159    
     34000   291.58351     -3241.5509     -3258.3984      16.847487      8611.9273      10112.159    
     34100   286.58796     -3241.6847     -3258.2436      16.558847      8646.5283      10112.159    
     34200   303.8525      -3240.6762     -3258.2326      17.55638       8515.1932      10112.159    
     34300   299.63178     -3240.0003     -3257.3128      17.31251       8541.8357      10112.159    
     34400   308.31794     -3239.5626     -3257.377       17.81439       9037.4661      10112.159    
     34500   293.80574     -3239.8166     -3256.7925      16.975886      8850.5389      10112.159    
     34600   274.80768     -3240.4086     -3256.2868      15.878191      8954.445       10112.159    
     34700   307.78865     -3240.7596     -3258.5434      17.783808      9051.2071      10112.159    
     34800   290.06991     -3241.3098     -3258.0698      16.760032      8108.1962      10112.159    
     34900   300.18169     -3240.0383     -3257.3826      17.344283      8912.5855      10112.159    
     35000   288.07992     -3239.3444     -3255.9895      16.645052      9453.8137      10112.159    
     35100   321.36588     -3238.9381     -3257.5064      18.568291      9143.8177      10112.159    
     35200   296.49642     -3239.8663     -3256.9976      17.131351      8748.9064      10112.159    
     35300   295.22218     -3241.2489     -3258.3066      17.057726      8349.8946      10112.159    
     35400   294.29445     -3241.6018     -3258.6059      17.004123      8617.577       10112.159    
     35500   271.24259     -3241.1249     -3256.7971      15.672203      9116.0693      10112.159    
     35600   286.06819     -3240.539      -3257.0678      16.528816      8802.1265      10112.159    
     35700   320.46858     -3239.6253     -3258.1417      18.516445      8726.6757      10112.159    
     35800   301.75346     -3239.2765     -3256.7116      17.435099      9176.6366      10112.159    
     35900   302.79236     -3238.827      -3256.3221      17.495126      9189.2315      10112.159    
     36000   306.58479     -3239.1955     -3256.9097      17.71425       9133.2583      10112.159    
     36100   293.8428      -3240.8455     -3257.8235      16.978027      8878.8919      10112.159    
     36200   291.23433     -3241.1585     -3257.9858      16.827311      8780.4228      10112.159    
     36300   306.15241     -3240.0661     -3257.7553      17.689267      8736.6187      10112.159    
     36400   299.12081     -3239.53       -3256.813       17.282987      9150.4217      10112.159    
     36500   308.96996     -3239.1355     -3256.9876      17.852063      8978.773       10112.159    
     36600   308.6337      -3239.5665     -3257.3992      17.832635      8867.8703      10112.159    
     36700   299.23132     -3239.9408     -3257.2302      17.289372      8602.4729      10112.159    
     36800   295.04028     -3239.8323     -3256.8795      17.047216      8959.7043      10112.159    
     36900   323.0102      -3239.2823     -3257.9455      18.663298      8649.8194      10112.159    
     37000   294.29963     -3239.6755     -3256.6799      17.004422      8981.5088      10112.159    
     37100   292.92957     -3240.3937     -3257.3189      16.925261      9153.6104      10112.159    
     37200   289.16353     -3241.4219     -3258.1296      16.707662      8396.3069      10112.159    
     37300   292.07865     -3241.405      -3258.2811      16.876096      8573.8248      10112.159    
     37400   305.26173     -3239.6691     -3257.3069      17.637804      8877.9045      10112.159    
     37500   309.95204     -3238.9808     -3256.8896      17.908807      8369.2915      10112.159    
     37600   297.85373     -3239.0768     -3256.2866      17.209775      9273.1475      10112.159    
     37700   300.83134     -3239.6661     -3257.0479      17.38182       8938.1137      10112.159    
     37800   297.33743     -3241.0808     -3258.2607      17.179944      8419.153       10112.159    
     37900   293.92781     -3240.9826     -3257.9656      16.982939      8377.8308      10112.159    
     38000   289.9837      -3240.663      -3257.4181      16.755051      8767.9865      10112.159    
     38100   300.51317     -3240.0372     -3257.4007      17.363436      8769.0159      10112.159    
     38200   305.84281     -3239.2482     -3256.9196      17.671379      8616.0483      10112.159    
     38300   296.4251      -3239.3498     -3256.4771      17.12723       9252.0637      10112.159    
     38400   303.58529     -3239.5775     -3257.1184      17.540941      8954.7752      10112.159    
     38500   308.08979     -3239.8759     -3257.6771      17.801208      8680.9118      10112.159    
     38600   302.58305     -3240.1272     -3257.6103      17.483032      8639.2938      10112.159    
     38700   286.40591     -3240.5441     -3257.0924      16.548329      8891.0266      10112.159    
     38800   275.92893     -3241.5126     -3257.4556      15.942977      8515.8659      10112.159    
     38900   294.45359     -3241.0275     -3258.0408      17.013318      8624.9631      10112.159    
     39000   303.43018     -3239.593      -3257.1249      17.531979      9180.4046      10112.159    
     39100   301.02864     -3238.9696     -3256.3628      17.393219      8822.4155      10112.159    
     39200   309.85211     -3239.0075     -3256.9105      17.903033      9254.1867      10112.159    
     39300   287.52935     -3240.3757     -3256.989       16.61324       9240.5069      10112.159    
     39400   301.84198     -3240.8549     -3258.2951      17.440214      8491.7757      10112.159    
     39500   296.41506     -3240.6445     -3257.7712      17.12665       8530.7408      10112.159    
     39600   293.0957      -3240.1323     -3257.0672      16.93486       9120.372       10112.159    
     39700   310.56968     -3239.171      -3257.1155      17.944494      9042.321       10112.159    
     39800   315.88477     -3238.5805     -3256.8321      18.251596      8752.0511      10112.159    
     39900   309.47823     -3238.3351     -3256.2165      17.881431      9100.833       10112.159    
     40000   307.6966      -3239.1426     -3256.9211      17.778489      9378.0015      10112.159    
     40100   291.32735     -3240.5317     -3257.3644      16.832686      8804.4189      10112.159    
     40200   293.97377     -3241.1967     -3258.1823      16.985594      8513.9847      10112.159    
     40300   283.32344     -3240.9798     -3257.35        16.370226      8834.767       10112.159    
     40400   324.45261     -3239.2666     -3258.0133      18.74664       8707.2127      10112.159    
     40500   279.23793     -3239.8161     -3255.9503      16.134168      8979.2711      10112.159    
     40600   303.40175     -3239.5479     -3257.0782      17.530336      9295.3914      10112.159    
     40700   308.19382     -3239.6492     -3257.4565      17.807218      8767.9407      10112.159    
     40800   288.80444     -3240.8234     -3257.5103      16.686914      8431.081       10112.159    
     40900   293.46054     -3241.4513     -3258.4073      16.95594       8660.4208      10112.159    
     41000   273.07326     -3241.2186     -3256.9966      15.777978      8545.2849      10112.159    
     41100   301.46852     -3239.6188     -3257.0374      17.418636      8759.8503      10112.159    
     41200   318.63799     -3238.7142     -3257.1249      18.410675      9103.1555      10112.159    
     41300   314.99206     -3238.8142     -3257.0143      18.200016      8931.1167      10112.159    
     41400   302.00043     -3239.9495     -3257.3989      17.449369      9073.7284      10112.159    
     41500   289.65008     -3240.5546     -3257.2904      16.735775      8720.1007      10112.159    
     41600   293.72804     -3240.3145     -3257.2859      16.971396      8639.3059      10112.159    
     41700   315.74324     -3239.7034     -3257.9469      18.243419      9136.4864      10112.159    
     41800   297.87814     -3239.7617     -3256.9729      17.211186      8709.0579      10112.159    
     41900   309.28394     -3239.571      -3257.4412      17.870205      8820.4207      10112.159    
     42000   295.14562     -3239.4743     -3256.5276      17.053303      9344.0668      10112.159    
     42100   307.28184     -3239.3808     -3257.1353      17.754525      8969.4517      10112.159    
     42200   296.22477     -3240.0425     -3257.1582      17.115655      8824.7843      10112.159    
     42300   292.25964     -3241.0155     -3257.9021      16.886553      8851.6496      10112.159    
     42400   274.62075     -3241.3819     -3257.2493      15.86739       8776.9689      10112.159    
     42500   312.99514     -3239.756      -3257.8407      18.084635      8875.3692      10112.159    
     42600   300.82678     -3239.3806     -3256.7622      17.381556      8904.7299      10112.159    
     42700   315.76859     -3239.1953     -3257.4402      18.244883      9094.2331      10112.159    
     42800   290.09186     -3240.188      -3256.9493      16.7613        9025.6655      10112.159    
     42900   291.62263     -3241.2112     -3258.0609      16.849747      8793.8091      10112.159    
     43000   282.0771      -3242.0131     -3258.3113      16.298213      8590.0451      10112.159    
     43100   287.50734     -3241.392      -3258.004       16.611969      8322.8358      10112.159    
     43200   295.17707     -3239.8487     -3256.9039      17.05512       9330.0091      10112.159    
     43300   314.14756     -3238.9298     -3257.081       18.151221      8764.9382      10112.159    
     43400   300.31719     -3239.171      -3256.5231      17.352113      9278.388       10112.159    
     43500   299.6742      -3240.2327     -3257.5477      17.314961      8751.4722      10112.159    
     43600   293.74743     -3241.1419     -3258.1145      16.972517      8968.9931      10112.159    
     43700   311.36654     -3240.598      -3258.5885      17.990536      8475.8647      10112.159    
     43800   301.78183     -3238.452      -3255.8887      17.436738      9252.3176      10112.159    
     43900   310.13479     -3237.9341     -3255.8534      17.919366      9793.5668      10112.159    
     44000   313.03313     -3239.1596     -3257.2465      18.086831      8774.6559      10112.159    
     44100   287.62857     -3240.2313     -3256.8502      16.618973      8757.1095      10112.159    
     44200   313.38241     -3239.9389     -3258.0459      18.107012      9032.0876      10112.159    
     44300   284.60231     -3240.143      -3256.5871      16.444118      8994.4064      10112.159    
     44400   302.9883      -3239.4132     -3256.9196      17.506447      9176.6463      10112.159    
     44500   313.05472     -3238.7014     -3256.7895      18.088078      8813.8774      10112.159    
     44600   304.40418     -3239.1297     -3256.718       17.588256      8922.6552      10112.159    
     44700   285.27493     -3240.3998     -3256.8828      16.482981      9195.1128      10112.159    
     44800   301.7737      -3240.7499     -3258.1862      17.436269      8352.9067      10112.159    
     44900   302.09176     -3240.4774     -3257.932       17.454646      8619.1125      10112.159    
     45000   293.84742     -3239.4205     -3256.3988      16.978294      9142.9264      10112.159    
     45100   312.05958     -3238.2435     -3256.2741      18.030579      9459.6635      10112.159    
     45200   310.54647     -3239.0619     -3257.0051      17.943153      8814.4437      10112.159    
     45300   293.92291     -3239.9873     -3256.9699      16.982655      8714.8248      10112.159    
     45400   303.95745     -3240.1052     -3257.6677      17.562444      9086.1727      10112.159    
     45500   277.7873      -3241.0663     -3257.1167      16.050352      8709.3449      10112.159    
     45600   287.39664     -3242.3109     -3258.9164      16.605572      8285.6451      10112.159    
     45700   277.20261     -3242.3473     -3258.3639      16.016568      8494.3255      10112.159    
     45800   297.41205     -3240.4226     -3257.6069      17.184256      8268.9369      10112.159    
     45900   305.20052     -3239.3545     -3256.9887      17.634268      9309.2166      10112.159    
     46000   304.60339     -3238.8398     -3256.4396      17.599766      9043.9469      10112.159    
     46100   307.00367     -3239.2883     -3257.0268      17.738453      9420.7248      10112.159    
     46200   303.85902     -3240.6934     -3258.2501      17.556757      8615.9544      10112.159    
     46300   285.68974     -3241.2448     -3257.7517      16.506949      8683.526       10112.159    
     46400   286.08859     -3240.7538     -3257.2838      16.529994      8537.2463      10112.159    
     46500   304.19312     -3240.0626     -3257.6387      17.576061      8826.196       10112.159    
     46600   305.92583     -3239.7567     -3257.4329      17.676176      8517.2838      10112.159    
     46700   294.94813     -3239.886      -3256.9279      17.041892      8917.5564      10112.159    
     46800   295.86187     -3240.0251     -3257.1197      17.094687      8909.3363      10112.159    
     46900   317.50855     -3239.5123     -3257.8577      18.345417      8490.9915      10112.159    
     47000   290.27431     -3239.7254     -3256.4972      16.771842      9255.9439      10112.159    
     47100   308.05345     -3240.163      -3257.9622      17.799108      8715.5573      10112.159    
     47200   278.07312     -3241.1079     -3257.1748      16.066866      8869.492       10112.159    
     47300   300.50735     -3240.1167     -3257.4798      17.3631        8863.4275      10112.159    
     47400   312.18086     -3238.9064     -3256.9439      18.037587      9073.1848      10112.159    
     47500   310.16278     -3238.9091     -3256.8301      17.920984      8974.079       10112.159    
     47600   294.81206     -3239.2003     -3256.2344      17.03403       9208.9435      10112.159    
     47700   286.67522     -3240.0318     -3256.5956      16.563889      8933.7053      10112.159    
     47800   312.06906     -3239.9753     -3258.0064      18.031127      8564.4437      10112.159    
     47900   291.22864     -3239.8754     -3256.7024      16.826982      9098.2462      10112.159    
     48000   312.40457     -3239.2742     -3257.3247      18.050512      9087.4957      10112.159    
     48100   312.15125     -3239.1624     -3257.1983      18.035876      8971.2301      10112.159    
     48200   299.96815     -3239.6807     -3257.0126      17.331945      8765.9003      10112.159    
     48300   298.48817     -3240.4457     -3257.6921      17.246433      9106.1078      10112.159    
     48400   288.28851     -3240.8442     -3257.5013      16.657104      8571.9212      10112.159    
     48500   295.44002     -3240.2929     -3257.3633      17.070313      8713.636       10112.159    
     48600   319.15953     -3238.6625     -3257.1033      18.440809      9198.6885      10112.159    
     48700   308.59305     -3238.5492     -3256.3795      17.830286      8766.5894      10112.159    
     48800   293.51675     -3239.5013     -3256.4605      16.959188      9204.7636      10112.159    
     48900   299.67241     -3240.3864     -3257.7012      17.314857      8963.5821      10112.159    
     49000   294.79879     -3240.537      -3257.5702      17.033263      8351.6149      10112.159    
     49100   304.23457     -3240.3633     -3257.9418      17.578456      8702.1812      10112.159    
     49200   287.87422     -3240.2421     -3256.8753      16.633167      8828.2877      10112.159    
     49300   320.30886     -3239.0039     -3257.5111      18.507217      8895.909       10112.159    
     49400   298.15291     -3239.0374     -3256.2645      17.227062      9340.4112      10112.159    
     49500   297.56556     -3239.968      -3257.1611      17.193125      8795.1101      10112.159    
     49600   292.55159     -3241.6435     -3258.5469      16.903422      8418.669       10112.159    
     49700   289.80954     -3241.435      -3258.18        16.744988      8392.8393      10112.159    
     49800   284.65222     -3240.4268     -3256.8738      16.447002      9118.8231      10112.159    
     49900   317.55523     -3239.6222     -3257.9703      18.348114      8813.2606      10112.159    
     50000   297.58435     -3239.5533     -3256.7476      17.194211      8894.7232      10112.159    
     50100   305.25365     -3239.3521     -3256.9894      17.637338      9347.4228      10112.159    
     50200   294.62374     -3240.187      -3257.2102      17.023149      8837.7578      10112.159    
     50300   272.1527      -3241.8423     -3257.5671      15.724788      8724.0325      10112.159    
     50400   296.36411     -3241.5089     -3258.6326      17.123706      8263.7717      10112.159    
     50500   295.67282     -3240.5963     -3257.68        17.083764      8906.2813      10112.159    
     50600   309.69934     -3239.7395     -3257.6337      17.894207      9069.1962      10112.159    
     50700   284.68882     -3239.9556     -3256.4047      16.449117      8982.9261      10112.159    
     50800   314.88718     -3239.508      -3257.7019      18.193956      8932.7886      10112.159    
     50900   301.11393     -3239.618      -3257.0162      17.398148      8978.4932      10112.159    
     51000   293.99688     -3240.3567     -3257.3436      16.986929      8524.2144      10112.159    
     51100   288.3044      -3241.3755     -3258.0335      16.658022      8998.8845      10112.159    
     51200   282.07972     -3241.2784     -3257.5768      16.298364      8537.4296      10112.159    
     51300   303.13353     -3239.8413     -3257.3561      17.514839      9040.8996      10112.159    
     51400   305.22328     -3239.4349     -3257.0705      17.635583      8800.272       10112.159    
     51500   307.97053     -3239.3606     -3257.1549      17.794317      9116.9463      10112.159    
     51600   295.89512     -3239.7551     -3256.8517      17.096608      9165.3583      10112.159    
     51700   277.70503     -3241.3447     -3257.3903      16.045598      8404.558       10112.159    
     51800   283.6277      -3241.8282     -3258.216       16.387806      8490.4778      10112.159    
     51900   304.91716     -3240.7092     -3258.3271      17.617896      8460.7041      10112.159    
     52000   299.31386     -3239.8623     -3257.1564      17.294141      9141.9451      10112.159    
     52100   295.81019     -3239.4455     -3256.5373      17.091701      9180.682       10112.159    
     52200   303.91417     -3239.3298     -3256.8897      17.559944      8980.5967      10112.159    
     52300   292.79541     -3240.334      -3257.2515      16.91751       9086.5189      10112.159    
     52400   292.2664      -3241.0758     -3257.9627      16.886944      8780.3898      10112.159    
     52500   302.89228     -3240.4905     -3257.9914      17.500899      8762.167       10112.159    
     52600   300.48589     -3238.4719     -3255.8337      17.36186       9421.7222      10112.159    
     52700   327.89759     -3237.0301     -3255.9758      18.945688      9299.6657      10112.159    
     52800   313.18249     -3238.7359     -3256.8314      18.09546       9502.0361      10112.159    
     52900   285.22166     -3240.2007     -3256.6806      16.479903      8744.4812      10112.159    
     53000   295.8529      -3240.5213     -3257.6154      17.094169      8711.8861      10112.159    
     53100   305.3096      -3240.2682     -3257.9088      17.64057       8742.0559      10112.159    
     53200   296.67709     -3239.7783     -3256.9201      17.14179       8891.7884      10112.159    
     53300   321.35443     -3238.6896     -3257.2572      18.567629      9574.7963      10112.159    
     53400   303.64252     -3238.4023     -3255.9465      17.544247      9206.2024      10112.159    
     53500   299.0571      -3239.6931     -3256.9724      17.279305      9146.9695      10112.159    
     53600   289.58059     -3241.1341     -3257.8659      16.731759      8564.863       10112.159    
     53700   291.92629     -3240.8797     -3257.747       16.867292      8896.0079      10112.159    
     53800   303.04264     -3239.865      -3257.3746      17.509587      9210.5541      10112.159    
     53900   307.61032     -3239.1309     -3256.9044      17.773504      9150.794       10112.159    
     54000   292.18478     -3239.3793     -3256.2615      16.882227      9611.4589      10112.159    
     54100   304.38664     -3239.5908     -3257.178       17.587242      8776.378       10112.159    
     54200   300.54242     -3239.7994     -3257.1645      17.365126      9130.7053      10112.159    
     54300   291.21469     -3240.0525     -3256.8787      16.826176      9088.9705      10112.159    
     54400   312.09526     -3239.8731     -3257.9058      18.032641      8589.7848      10112.159    
     54500   314.54782     -3239.5286     -3257.703       18.174348      8807.5337      10112.159    
     54600   300.3423      -3239.31       -3256.6635      17.353563      9092.4898      10112.159    
     54700   286.59349     -3239.8043     -3256.3635      16.559167      9558.8317      10112.159    
     54800   295.68007     -3240.4636     -3257.5478      17.084183      8982.1514      10112.159    
     54900   310.65702     -3240.59       -3258.5396      17.94954       8425.2838      10112.159    
     55000   296.87299     -3240.3539     -3257.507       17.153109      8781.3113      10112.159    
     55100   291.25284     -3239.476      -3256.3044      16.828381      9347.773       10112.159    
     55200   316.9041      -3238.4409     -3256.7514      18.310492      9699.7415      10112.159    
     55300   312.27377     -3239.056      -3257.099       18.042955      9250.9755      10112.159    
     55400   291.08911     -3240.3874     -3257.2063      16.818921      8786.303       10112.159    
     55500   291.66343     -3240.7435     -3257.5956      16.852105      9238.3232      10112.159    
     55600   299.10204     -3240.3707     -3257.6526      17.281902      8813.1005      10112.159    
     55700   299.95875     -3239.8507     -3257.1821      17.331402      9076.7347      10112.159    
     55800   291.64136     -3239.6549     -3256.5057      16.850829      9340.8414      10112.159    
     55900   336.04637     -3238.2675     -3257.684       19.416519      9410.2074      10112.159    
     56000   297.25198     -3238.0975     -3255.2725      17.175007      9639.2113      10112.159    
     56100   300.16699     -3239.3323     -3256.6758      17.343434      9071.6168      10112.159    
     56200   308.49681     -3240.5164     -3258.3411      17.824725      8598.5354      10112.159    
     56300   303.54229     -3240.5074     -3258.0459      17.538457      8658.0638      10112.159    
     56400   287.43118     -3240.0754     -3256.683       16.607568      9340.9548      10112.159    
     56500   299.30998     -3239.038      -3256.332       17.293916      9300.6984      10112.159    
     56600   325.60667     -3237.5924     -3256.4057      18.81332       9556.2301      10112.159    
     56700   309.27593     -3237.873      -3255.7428      17.869742      9385.0035      10112.159    
     56800   309.11377     -3240.0073     -3257.8677      17.860372      8706.942       10112.159    
     56900   292.90241     -3240.7257     -3257.6494      16.923692      8683.2534      10112.159    
     57000   287.11083     -3240.4436     -3257.0327      16.589058      9149.9853      10112.159    
     57100   295.52723     -3239.3286     -3256.404       17.075352      9317.0054      10112.159    
     57200   328.32262     -3238.5464     -3257.5166      18.970246      9007.414       10112.159    
     57300   303.85815     -3239.5019     -3257.0586      17.556707      8896.6053      10112.159    
     57400   296.95625     -3240.3596     -3257.5175      17.15792       8900.8518      10112.159    
     57500   287.7948      -3240.8267     -3257.4553      16.628578      8864.6256      10112.159    
     57600   289.33325     -3240.7222     -3257.4396      16.717468      8964.134       10112.159    
     57700   310.06701     -3240.0247     -3257.9402      17.91545       8849.7948      10112.159    
     57800   298.96889     -3239.396      -3256.6702      17.274208      9140.4429      10112.159    
     57900   318.02932     -3239.0349     -3257.4104      18.375506      9100.5572      10112.159    
     58000   304.37769     -3239.7987     -3257.3854      17.586725      8505.8792      10112.159    
     58100   287.72274     -3240.9025     -3257.5269      16.624414      8866.5442      10112.159    
     58200   287.26347     -3241.2524     -3257.8502      16.597878      8733.3351      10112.159    
     58300   315.51669     -3239.4997     -3257.7301      18.230328      8573.3366      10112.159    
     58400   315.18854     -3238.651      -3256.8624      18.211368      8773.2339      10112.159    
     58500   305.84734     -3239.1978     -3256.8694      17.67164       8899.2156      10112.159    
     58600   283.05448     -3240.1923     -3256.5469      16.354685      8789.9408      10112.159    
     58700   301.64455     -3240.2816     -3257.7105      17.428806      8897.6809      10112.159    
     58800   301.50361     -3240.2288     -3257.6495      17.420663      8768.2783      10112.159    
     58900   299.76136     -3238.9677     -3256.2877      17.319997      9186.3782      10112.159    
     59000   317.11857     -3238.185      -3256.5078      18.322884      9462.7083      10112.159    
     59100   295.24859     -3239.5061     -3256.5653      17.059252      8754.3296      10112.159    
     59200   297.41926     -3240.3368     -3257.5214      17.184672      8825.2059      10112.159    
     59300   304.96914     -3240.3919     -3258.0128      17.620899      8631.6363      10112.159    
     59400   301.26191     -3239.9686     -3257.3753      17.406697      9040.7314      10112.159    
     59500   295.63756     -3238.2504     -3255.3321      17.081727      9628.4723      10112.159    
     59600   316.69457     -3237.6887     -3255.9871      18.298386      9454.2864      10112.159    
     59700   316.07502     -3239.0663     -3257.3289      18.262589      9088.8122      10112.159    
     59800   296.87535     -3239.9395     -3257.0927      17.153246      9109.1918      10112.159    
     59900   303.09392     -3239.804      -3257.3166      17.51255       8953.9928      10112.159    
     60000   303.67859     -3239.729      -3257.2753      17.546332      8972.988       10112.159    
     60100   286.08779     -3240.4155     -3256.9454      16.529948      8880.6861      10112.159    
     60200   290.29144     -3240.8438     -3257.6166      16.772832      8852.9839      10112.159    
     60300   299.43527     -3241.0614     -3258.3625      17.301156      8725.3478      10112.159    
     60400   300.65411     -3240.1814     -3257.5529      17.371579      9108.6505      10112.159    
     60500   294.89812     -3239.1226     -3256.1616      17.039002      9261.8357      10112.159    
     60600   322.11858     -3238.703      -3257.3148      18.611781      9458.4996      10112.159    
     60700   292.22719     -3239.9694     -3256.8541      16.884678      8849.8228      10112.159    
     60800   294.8749      -3240.7661     -3257.8037      17.037661      9040.7583      10112.159    
     60900   284.74787     -3240.8412     -3257.2938      16.452528      8859.3786      10112.159    
     61000   302.68656     -3240.2556     -3257.7446      17.489013      8298.9969      10112.159    
     61100   306.40881     -3239.5154     -3257.2195      17.704082      9086.3891      10112.159    
     61200   309.96519     -3238.7988     -3256.7084      17.909567      9553.9022      10112.159    
     61300   300.92227     -3238.5939     -3255.9809      17.387074      9454.8095      10112.159    
     61400   315.59972     -3239.2694     -3257.5045      18.235126      9140.4962      10112.159    
     61500   288.3436      -3240.7545     -3257.4148      16.660287      8822.6878      10112.159    
     61600   279.95363     -3241.0497     -3257.2252      16.17552       8658.1095      10112.159    
     61700   306.60283     -3240.0746     -3257.7899      17.715292      8728.0138      10112.159    
     61800   308.04316     -3238.9314     -3256.7299      17.798513      9395.2024      10112.159    
     61900   311.40098     -3238.6233     -3256.6158      17.992526      9046.7562      10112.159    
     62000   281.65665     -3240.3873     -3256.6612      16.27392       9016.4557      10112.159    
     62100   287.31433     -3241.6562     -3258.257       16.600817      8614.0619      10112.159    
     62200   303.90195     -3240.9008     -3258.46        17.559237      8739.3174      10112.159    
     62300   289.33226     -3239.991      -3256.7084      16.717411      9114.8678      10112.159    
     62400   304.52784     -3239.213      -3256.8084      17.595401      8960.4175      10112.159    
     62500   303.53207     -3239.6367     -3257.1746      17.537866      9292.8722      10112.159    
     62600   300.71241     -3240.0995     -3257.4745      17.374948      8683.2207      10112.159    
     62700   307.53575     -3238.8988     -3256.668       17.769195      9268.3139      10112.159    
     62800   309.23068     -3238.1137     -3255.9809      17.867128      9503.8572      10112.159    
     62900   322.59404     -3238.6251     -3257.2643      18.639253      9012.4255      10112.159    
     63000   301.03639     -3240.1837     -3257.5774      17.393667      8715.4347      10112.159    
     63100   276.55497     -3240.9041     -3256.8833      15.979149      9167.5663      10112.159    
     63200   299.5586      -3240.2616     -3257.5699      17.308282      8786.1989      10112.159    
     63300   310.10179     -3239.6863     -3257.6038      17.917459      8995.9983      10112.159    
     63400   302.24441     -3239.1926     -3256.6561      17.463466      9194.2283      10112.159    
     63500   326.80332     -3237.3151     -3256.1976      18.882462      9400.6034      10112.159    
     63600   308.02622     -3238.0966     -3255.8941      17.797535      9211.2419      10112.159    
     63700   313.0197      -3239.0709     -3257.1569      18.086055      9064.3924      10112.159    
     63800   283.32574     -3240.0021     -3256.3724      16.370359      9380.4672      10112.159    
     63900   318.60056     -3239.6678     -3258.0763      18.408513      8758.6637      10112.159    
     64000   291.81308     -3240.242      -3257.1028      16.860751      8970.7026      10112.159    
     64100   297.50238     -3240.6533     -3257.8427      17.189475      8893.7168      10112.159    
     64200   288.76978     -3240.1922     -3256.8771      16.684911      8882.4882      10112.159    
     64300   297.67591     -3239.1169     -3256.3164      17.199501      9345.928       10112.159    
     64400   311.19308     -3238.3087     -3256.2892      17.980513      9445.5488      10112.159    
     64500   321.20292     -3238.6425     -3257.2013      18.558875      8927.7578      10112.159    
     64600   291.70078     -3240.4981     -3257.3524      16.854262      9049.2592      10112.159    
     64700   290.4617      -3240.6677     -3257.4504      16.782669      8836.0358      10112.159    
     64800   297.88869     -3240.2046     -3257.4164      17.211795      9029.3169      10112.159    
     64900   295.26876     -3239.2013     -3256.2617      17.060418      9459.3605      10112.159    
     65000   331.8245      -3237.9154     -3257.088       19.172583      9202.9095      10112.159    
     65100   316.93094     -3238.6125     -3256.9246      18.312043      9162.4978      10112.159    
     65200   302.80113     -3239.4406     -3256.9363      17.495633      8932.1356      10112.159    
     65300   292.98211     -3239.9849     -3256.9132      16.928297      9177.9155      10112.159    
     65400   295.2199      -3240.1513     -3257.2089      17.057595      9010.6823      10112.159    
     65500   304.72892     -3240.3211     -3257.9281      17.607019      8626.2703      10112.159    
     65600   289.69772     -3240.8184     -3257.5569      16.738527      8760.8045      10112.159    
     65700   288.10371     -3240.4508     -3257.0972      16.646426      9132.2281      10112.159    
     65800   299.66351     -3239.5969     -3256.9112      17.314343      9266.4089      10112.159    
     65900   326.48082     -3238.3685     -3257.2323      18.863828      9104.2363      10112.159    
     66000   297.22555     -3238.855      -3256.0285      17.17348       9299.1711      10112.159    
     66100   294.55644     -3240.1108     -3257.1301      17.01926       8620.5576      10112.159    
     66200   294.68652     -3241.5403     -3258.5671      17.026777      8729.2944      10112.159    
     66300   284.63793     -3241.2804     -3257.7266      16.446176      8935.233       10112.159    
     66400   290.61426     -3240.3089     -3257.1003      16.791484      8678.0951      10112.159    
     66500   315.91632     -3239.1154     -3257.3688      18.253419      8928.4708      10112.159    
     66600   305.72365     -3239.2912     -3256.9557      17.664494      9336.9452      10112.159    
     66700   297.23397     -3239.7855     -3256.9595      17.173966      8913.5499      10112.159    
     66800   292.04984     -3240.1911     -3257.0656      16.874431      9323.4936      10112.159    
     66900   291.24898     -3241.7595     -3258.5876      16.828158      8500.3303      10112.159    
     67000   276.41338     -3242.175      -3258.146       15.970967      8148.2904      10112.159    
     67100   293.74493     -3240.7239     -3257.6963      16.972372      8674.8044      10112.159    
     67200   294.62821     -3240.015      -3257.0384      17.023407      9040.3295      10112.159    
     67300   294.91831     -3239.4307     -3256.4708      17.040169      9360.7403      10112.159    
     67400   305.44819     -3238.8565     -3256.5051      17.648578      9072.155       10112.159    
     67500   321.73639     -3239.1013     -3257.691       18.589698      8799.6799      10112.159    
     67600   287.03452     -3240.8352     -3257.4198      16.584649      8883.468       10112.159    
     67700   304.85478     -3240.8072     -3258.4215      17.614291      8556.334       10112.159    
     67800   286.06332     -3240.4324     -3256.9609      16.528534      8965.5358      10112.159    
     67900   302.1319      -3238.9781     -3256.435       17.456965      9155.343       10112.159    
     68000   314.7001      -3238.436      -3256.6192      18.183147      9157.3618      10112.159    
     68100   311.98003     -3238.7214     -3256.7473      18.025983      9369.2824      10112.159    
     68200   304.44283     -3239.4646     -3257.055       17.590489      9484.0701      10112.159    
     68300   298.52886     -3239.9318     -3257.1806      17.248784      9019.4704      10112.159    
     68400   289.5458      -3240.1235     -3256.8532      16.729749      8814.6614      10112.159    
     68500   319.11337     -3239.5524     -3257.9906      18.438142      8679.0491      10112.159    
     68600   306.86578     -3239.3115     -3257.042       17.730485      9026.3594      10112.159    
     68700   298.42822     -3238.9141     -3256.1571      17.242969      9560.4818      10112.159    
     68800   290.90172     -3239.1188     -3255.9269      16.808093      9188.2532      10112.159    
     68900   300.26029     -3240.2809     -3257.6297      17.348825      8692.0849      10112.159    
     69000   304.85696     -3241.126      -3258.7404      17.614417      8390.3834      10112.159    
     69100   297.75199     -3240.8529     -3258.0568      17.203897      8546.2936      10112.159    
     69200   291.40356     -3239.9636     -3256.8007      16.837089      9363.1243      10112.159    
     69300   285.65515     -3239.8495     -3256.3545      16.50495       9039.7399      10112.159    
     69400   320.6047      -3239.3694     -3257.8938      18.52431       9082.3099      10112.159    
     69500   305.58745     -3239.5302     -3257.1868      17.656625      8750.1425      10112.159    
     69600   286.90802     -3240.1843     -3256.7616      16.57734       8485.2535      10112.159    
     69700   299.66805     -3241.2385     -3258.5531      17.314606      8701.8628      10112.159    
     69800   284.20844     -3241.8697     -3258.291       16.421361      8491.8067      10112.159    
     69900   277.94826     -3240.8443     -3256.9039      16.059652      8948.8469      10112.159    
     70000   308.9135      -3239.0397     -3256.8885      17.848801      9132.7682      10112.159    
     70100   316.77307     -3238.7857     -3257.0887      18.302921      9265.7085      10112.159    
     70200   295.83831     -3239.368      -3256.4613      17.093326      9087.6588      10112.159    
     70300   301.69243     -3240.2508     -3257.6824      17.431573      8847.5894      10112.159    
     70400   287.36381     -3241.3154     -3257.9191      16.603675      8538.5703      10112.159    
     70500   299.7867      -3240.8004     -3258.1219      17.321461      8846.2564      10112.159    
     70600   301.91476     -3239.3728     -3256.8172      17.444419      9185.0165      10112.159    
     70700   287.39683     -3238.9255     -3255.5311      16.605583      9373.0481      10112.159    
     70800   300.65546     -3238.983      -3256.3547      17.371657      8918.2364      10112.159    
     70900   322.71459     -3239.7176     -3258.3638      18.646218      8816.2923      10112.159    
     71000   286.91748     -3240.8136     -3257.3914      16.577887      8727.0888      10112.159    
     71100   280.99222     -3240.5133     -3256.7489      16.235529      9164.9567      10112.159    
     71200   301.32247     -3239.6443     -3257.0545      17.410197      9279.9829      10112.159    
     71300   311.65725     -3238.7259     -3256.7332      18.007333      9187.8184      10112.159    
     71400   328.2608      -3236.7953     -3255.762       18.966674      9682.8391      10112.159    
     71500   311.91729     -3237.4164     -3255.4387      18.022358      9450.7128      10112.159    
     71600   325.86845     -3238.6013     -3257.4297      18.828446      9141.0493      10112.159    
     71700   279.93445     -3239.9044     -3256.0788      16.174412      9005.104       10112.159    
     71800   302.09771     -3239.7391     -3257.1941      17.45499       8657.0271      10112.159    
     71900   312.41894     -3239.6008     -3257.6521      18.051343      8982.4028      10112.159    
     72000   295.38652     -3240.1829     -3257.2501      17.067222      8946.3181      10112.159    
     72100   286.07205     -3240.9478     -3257.4768      16.529038      8425.6549      10112.159    
     72200   287.99159     -3241.153      -3257.7929      16.639948      8798.5285      10112.159    
     72300   306.98564     -3240.1017     -3257.8391      17.737411      9029.9769      10112.159    
     72400   306.1841      -3238.8568     -3256.5479      17.691098      9304.5662      10112.159    
     72500   317.57669     -3238.3022     -3256.6516      18.349354      9208.9876      10112.159    
     72600   312.533       -3239.1334     -3257.1914      18.057933      9133.4533      10112.159    
     72700   295.72426     -3239.8028     -3256.8895      17.086736      9093.2546      10112.159    
     72800   293.66062     -3240.2414     -3257.2089      16.967501      8902.8142      10112.159    
     72900   304.54364     -3240.3094     -3257.9057      17.596314      8536.4306      10112.159    
     73000   311.86766     -3239.9161     -3257.9356      18.01949       8505.5814      10112.159    
     73100   291.52191     -3239.5567     -3256.4007      16.843928      9227.456       10112.159    
     73200   303.84924     -3238.5778     -3256.134       17.556192      9585.1952      10112.159    
     73300   324.73372     -3238.0938     -3256.8567      18.762882      8858.7941      10112.159    
     73400   297.4942      -3239.4271     -3256.6161      17.189002      9101.2129      10112.159    
     73500   289.33444     -3240.5926     -3257.3102      16.717537      8516.1038      10112.159    
     73600   294.0935      -3240.8224     -3257.8149      16.992512      8729.4901      10112.159    
     73700   308.24915     -3240.1208     -3257.9312      17.810415      8552.8063      10112.159    
     73800   304.29491     -3239.2669     -3256.8489      17.581942      8973.2756      10112.159    
     73900   298.41246     -3239.2031     -3256.4452      17.242059      8873.0808      10112.159    
     74000   301.06509     -3239.471      -3256.8663      17.395326      9133.6117      10112.159    
     74100   313.08055     -3239.5985     -3257.6881      18.08957       8654.1774      10112.159    
     74200   303.66841     -3240.3647     -3257.9104      17.545744      8778.8333      10112.159    
     74300   283.20863     -3241.5343     -3257.8979      16.363592      8329.0851      10112.159    
     74400   303.60317     -3240.9659     -3258.5079      17.541974      8919.238       10112.159    
     74500   300.45492     -3238.8524     -3256.2125      17.360071      8884.4342      10112.159    
     74600   313.00202     -3238.4293     -3256.5143      18.085033      9069.9096      10112.159    
     74700   314.00558     -3239.1875     -3257.3306      18.143018      9242.0671      10112.159    
     74800   295.90165     -3240.4329     -3257.5299      17.096986      8547.1915      10112.159    
     74900   287.22461     -3240.7793     -3257.3749      16.595633      9136.8418      10112.159    
     75000   296.58671     -3240.3095     -3257.4461      17.136568      8849.5527      10112.159    
     75100   317.19805     -3238.9543     -3257.2817      18.327477      9200.4145      10112.159    
     75200   305.06801     -3238.531      -3256.1576      17.626612      9301.8871      10112.159    
     75300   305.91408     -3238.8924     -3256.5678      17.675497      9400.6005      10112.159    
     75400   297.61191     -3239.8168     -3257.0126      17.195804      9045.321       10112.159    
[...]
    281800   313.24421     -3239.3623     -3257.4613      18.099027      9028.332       10112.159    
    281900   306.02782     -3238.5        -3256.182       17.682069      8974.6214      10112.159    
    282000   305.80626     -3238.6908     -3256.3601      17.669267      9479.1408      10112.159    
    282100   292.46898     -3240.1421     -3257.0407      16.898648      9079.2923      10112.159    
    282200   297.82597     -3240.7097     -3257.9179      17.208172      8758.1416      10112.159    
    282300   305.61069     -3240.3217     -3257.9797      17.657967      8917.8865      10112.159    
    282400   286.11433     -3239.9044     -3256.4359      16.531482      9251.7849      10112.159    
    282500   304.59226     -3238.6809     -3256.28        17.599123      9197.3332      10112.159    
    282600   322.93307     -3237.5719     -3256.2308      18.658842      9247.9964      10112.159    
    282700   332.70996     -3236.8187     -3256.0425      19.223743      9585.4855      10112.159    
    282800   324.69522     -3238.3251     -3257.0857      18.760658      9086.5909      10112.159    
    282900   282.04208     -3240.1107     -3256.4069      16.29619       9150.1683      10112.159    
    283000   293.79904     -3240.4187     -3257.3942      16.975499      9049.96        10112.159    
    283100   303.16532     -3240.3679     -3257.8846      17.516675      8826.1353      10112.159    
    283200   300.62433     -3239.7943     -3257.1642      17.369859      8649.5066      10112.159    
    283300   306.54974     -3238.6872     -3256.3995      17.712225      9237.5867      10112.159    
    283400   304.39297     -3238.4602     -3256.0479      17.587608      9538.8962      10112.159    
    283500   293.5943      -3240.1488     -3257.1124      16.963669      8780.9454      10112.159    
    283600   298.97474     -3240.9417     -3258.2163      17.274547      8678.6243      10112.159    
    283700   282.66877     -3241.0599     -3257.3923      16.332399      8837.8988      10112.159    
    283800   312.47076     -3239.6692     -3257.7235      18.054337      8765.0358      10112.159    
    283900   300.51013     -3239.25       -3256.6132      17.363261      9302.4145      10112.159    
    284000   324.3197      -3239.1792     -3257.9181      18.73896       8984.747       10112.159    
    284100   292.56332     -3239.896      -3256.8001      16.904099      9071.4125      10112.159    
    284200   290.96239     -3240.3288     -3257.1404      16.811599      9370.644       10112.159    
    284300   282.97071     -3241.8896     -3258.2394      16.349846      8476.4414      10112.159    
    284400   283.96868     -3242.3619     -3258.7694      16.407507      8090.5491      10112.159    
    284500   287.91078     -3241.0706     -3257.7059      16.635279      8666.7356      10112.159    
    284600   294.06861     -3239.9847     -3256.9758      16.991074      8990.4802      10112.159    
    284700   309.22475     -3239.538      -3257.4047      17.866785      9281.2466      10112.159    
    284800   306.51708     -3239.4207     -3257.131       17.710338      9097.1052      10112.159    
    284900   298.77533     -3239.1914     -3256.4544      17.263025      9388.6215      10112.159    
    285000   290.91227     -3240.2714     -3257.0801      16.808703      8915.697       10112.159    
    285100   298.36923     -3240.9154     -3258.155       17.239561      8514.7087      10112.159    
    285200   286.96568     -3240.6857     -3257.2664      16.580672      9131.3186      10112.159    
    285300   302.38522     -3239.1817     -3256.6533      17.471602      9024.3205      10112.159    
    285400   323.02708     -3238.2543     -3256.9185      18.664274      9403.8141      10112.159    
    285500   305.03603     -3239.0723     -3256.6971      17.624764      9088.0102      10112.159    
    285600   302.66254     -3239.706      -3257.1936      17.487625      9039.1854      10112.159    
    285700   306.37055     -3240.0996     -3257.8015      17.701872      9086.6795      10112.159    
    285800   284.70684     -3240.7512     -3257.2013      16.450158      8809.9679      10112.159    
    285900   287.46253     -3241.1366     -3257.746       16.609379      9152.8305      10112.159    
    286000   290.71675     -3240.7886     -3257.5861      16.797406      8765.7458      10112.159    
    286100   311.81842     -3239.4182     -3257.4349      18.016645      8630.3283      10112.159    
    286200   306.98586     -3238.9549     -3256.6924      17.737423      9258.2063      10112.159    
    286300   296.91031     -3239.1853     -3256.3405      17.155265      9136.5951      10112.159    
    286400   287.53612     -3240.6906     -3257.3043      16.613632      8957.0042      10112.159    
    286500   291.60767     -3241.7367     -3258.5855      16.848882      8601.7659      10112.159    
    286600   304.35205     -3241.1896     -3258.7748      17.585244      8573.3545      10112.159    
    286700   296.31905     -3240.3821     -3257.5032      17.121103      8553.9364      10112.159    
    286800   284.84442     -3239.9614     -3256.4195      16.458107      9126.0862      10112.159    
    286900   300.60332     -3239.5522     -3256.9208      17.368645      9256.5878      10112.159    
    287000   318.00888     -3239.1168     -3257.4911      18.374325      9084.1312      10112.159    
    287100   307.49271     -3238.6197     -3256.3865      17.766709      9239.0038      10112.159    
    287200   300.10356     -3239.3065     -3256.6463      17.339769      8981.9523      10112.159    
    287300   300.54295     -3240.5267     -3257.8919      17.365156      8899.1435      10112.159    
    287400   286.24681     -3241.059      -3257.5981      16.539136      8832.8752      10112.159    
    287500   301.93629     -3240.2312     -3257.6769      17.445663      8521.6218      10112.159    
    287600   311.67105     -3238.5576     -3256.5657      18.008131      9093.6634      10112.159    
    287700   303.37028     -3238.2944     -3255.8229      17.528518      9328.7912      10112.159    
    287800   311.22144     -3238.7837     -3256.7659      17.982152      9230.9952      10112.159    
    287900   286.18352     -3240.1181     -3256.6536      16.535479      8886.6597      10112.159    
    288000   306.14996     -3240.1705     -3257.8596      17.689126      8490.5051      10112.159    
    288100   315.34216     -3239.9313     -3258.1516      18.220245      8781.9704      10112.159    
    288200   288.37451     -3240.4027     -3257.0648      16.662073      8805.2722      10112.159    
    288300   281.59273     -3240.9778     -3257.248       16.270227      8573.5764      10112.159    
    288400   282.15333     -3240.8792     -3257.1819      16.302617      8701.3122      10112.159    
    288500   315.50214     -3239.606      -3257.8354      18.229488      8814.3853      10112.159    
    288600   310.08538     -3238.9822     -3256.8988      17.916512      8916.8262      10112.159    
    288700   291.25152     -3239.4572     -3256.2855      16.828304      8960.038       10112.159    
    288800   292.68427     -3240.5305     -3257.4416      16.911088      8891.4582      10112.159    
    288900   273.43285     -3242.2914     -3258.0901      15.798754      8416.1746      10112.159    
    289000   295.14893     -3241.5654     -3258.6189      17.053494      8036.5317      10112.159    
    289100   300.45894     -3240.4516     -3257.8119      17.360302      8770.9629      10112.159    
    289200   295.34676     -3239.7273     -3256.7922      17.064924      9007.4381      10112.159    
    289300   298.96876     -3239.3189     -3256.5931      17.274201      9333.4313      10112.159    
    289400   316.05846     -3239.156      -3257.4176      18.261632      9156.0455      10112.159    
    289500   300.28509     -3240.1057     -3257.456       17.350258      8989.1049      10112.159    
    289600   282.66918     -3241.4198     -3257.7522      16.332423      8767.6508      10112.159    
    289700   307.22559     -3240.9682     -3258.7195      17.751275      8445.3056      10112.159    
    289800   287.81832     -3240.2133     -3256.8433      16.629937      8935.4266      10112.159    
    289900   312.04752     -3238.6627     -3256.6926      18.029882      9571.3573      10112.159    
    290000   315.62122     -3238.6835     -3256.9199      18.236368      8998.9048      10112.159    
    290100   298.54317     -3239.5551     -3256.8047      17.249611      9228.4875      10112.159    
    290200   290.40358     -3240.5466     -3257.3259      16.779311      8666.7141      10112.159    
    290300   291.32226     -3240.8318     -3257.6642      16.832392      8646.3873      10112.159    
    290400   310.99567     -3239.8849     -3257.854       17.969107      8685.8491      10112.159    
    290500   301.38502     -3237.9577     -3255.3715      17.413811      9485.4987      10112.159    
    290600   329.86034     -3237.4354     -3256.4945      19.059095      9445.5015      10112.159    
    290700   305.96017     -3238.5325     -3256.2106      17.67816       8923.1724      10112.159    
    290800   304.33225     -3239.5737     -3257.1578      17.5841        9150.4944      10112.159    
    290900   302.60127     -3240.7458     -3258.2299      17.484085      8729.2296      10112.159    
    291000   279.16235     -3241.2479     -3257.3777      16.129801      8752.4494      10112.159    
    291100   300.59278     -3240.2406     -3257.6086      17.368036      8900.1101      10112.159    
    291200   298.09634     -3239.8598     -3257.0836      17.223794      8674.7563      10112.159    
    291300   301.22029     -3239.7242     -3257.1285      17.404293      8944.924       10112.159    
    291400   303.45173     -3239.7282     -3257.2614      17.533224      8860.0658      10112.159    
    291500   310.0512      -3239.9378     -3257.8523      17.914537      8645.134       10112.159    
    291600   281.65862     -3240.6993     -3256.9733      16.274034      8859.9013      10112.159    
    291700   288.5192      -3240.667      -3257.3374      16.670433      8916.295       10112.159    
    291800   308.07651     -3239.853      -3257.6535      17.800441      9020.8156      10112.159    
    291900   323.06804     -3238.7763     -3257.4429      18.66664       8979.4057      10112.159    
    292000   300.22245     -3238.1107     -3255.4573      17.346639      9456.0574      10112.159    
    292100   319.64462     -3237.9463     -3256.4152      18.468838      9493.8217      10112.159    
    292200   293.76512     -3239.9442     -3256.9177      16.973538      8190.1516      10112.159    
    292300   307.85578     -3239.9981     -3257.7858      17.787687      8898.2226      10112.159    
    292400   298.44987     -3240.1096     -3257.3538      17.24422       8771.5522      10112.159    
    292500   305.11793     -3239.896      -3257.5255      17.629496      8765.8364      10112.159    
    292600   298.62993     -3239.3356     -3256.5902      17.254624      9067.9396      10112.159    
    292700   316.66275     -3238.2067     -3256.5033      18.296547      9365.9711      10112.159    
    292800   313.66908     -3238.6017     -3256.7252      18.123575      8898.1472      10112.159    
    292900   285.00117     -3240.2414     -3256.7086      16.467164      8875.4066      10112.159    
    293000   305.6147      -3240.2282     -3257.8864      17.658199      8540.8735      10112.159    
    293100   296.50717     -3240.0849     -3257.2169      17.131972      8766.8166      10112.159    
    293200   302.3424      -3239.1889     -3256.658       17.469127      9155.4876      10112.159    
    293300   315.72961     -3238.03       -3256.2726      18.242631      9458.2799      10112.159    
    293400   307.29764     -3237.7487     -3255.5042      17.755438      9173.1401      10112.159    
    293500   321.23968     -3239.4235     -3257.9845      18.560999      8555.8272      10112.159    
    293600   290.78238     -3240.6934     -3257.4946      16.801198      8812.4565      10112.159    
    293700   300.1968      -3240.3021     -3257.6473      17.345157      8701.0929      10112.159    
    293800   295.25005     -3239.5518     -3256.6112      17.059337      9195.2779      10112.159    
    293900   287.67162     -3238.8557     -3255.4772      16.621461      9350.9704      10112.159    
    294000   330.79958     -3238.036      -3257.1494      19.113363      9173.8257      10112.159    
    294100   311.40429     -3239.3763     -3257.369       17.992717      8841.7246      10112.159    
    294200   298.80426     -3240.9393     -3258.204       17.264697      8718.5348      10112.159    
    294300   272.5765      -3240.9858     -3256.7351      15.749275      8731.1373      10112.159    
    294400   301.56738     -3239.8348     -3257.2592      17.424347      8923.0817      10112.159    
    294500   302.1671      -3239.6601     -3257.1191      17.458999      8667.7525      10112.159    
    294600   295.7388      -3239.8582     -3256.9458      17.087577      8438.031       10112.159    
    294700   305.09664     -3239.6564     -3257.2846      17.628266      8785.8842      10112.159    
    294800   300.54165     -3239.5391     -3256.9042      17.365081      8946.6418      10112.159    
    294900   284.72795     -3239.9734     -3256.4248      16.451377      8684.7273      10112.159    
    295000   307.60526     -3239.9892     -3257.7624      17.773212      9054.6115      10112.159    
    295100   285.28985     -3240.7992     -3257.2831      16.483843      8420.9938      10112.159    
    295200   310.96161     -3240.5639     -3258.5311      17.967139      8650.654       10112.159    
    295300   290.41892     -3239.6288     -3256.409       16.780198      9405.7582      10112.159    
    295400   314.02311     -3238.2583     -3256.4023      18.144031      9217.0831      10112.159    
    295500   302.26826     -3238.821      -3256.2859      17.464844      9461.8865      10112.159    
    295600   315.30549     -3239.5251     -3257.7433      18.218126      8734.2582      10112.159    
    295700   298.01068     -3239.8678     -3257.0867      17.218844      8989.3369      10112.159    
    295800   296.15644     -3239.8774     -3256.9891      17.111707      9226.786       10112.159    
    295900   294.41162     -3240.2862     -3257.2971      17.010893      8441.6741      10112.159    
    296000   292.52966     -3241.3053     -3258.2075      16.902155      8905.9024      10112.159    
    296100   289.2373      -3241.8612     -3258.5731      16.711924      8325.4316      10112.159    
    296200   285.83507     -3241.0266     -3257.5419      16.515346      8415.7323      10112.159    
    296300   300.09684     -3239.1728     -3256.5122      17.339381      9374.8365      10112.159    
    296400   307.32527     -3239.231      -3256.988       17.757035      9019.1862      10112.159    
    296500   293.11834     -3240.1108     -3257.047       16.936168      8897.8473      10112.159    
    296600   283.06709     -3240.8688     -3257.2242      16.355414      8831.0126      10112.159    
    296700   312.79828     -3240.7543     -3258.8275      18.073261      8675.9809      10112.159    
    296800   320.86991     -3239.2532     -3257.7928      18.539634      8947.6792      10112.159    
    296900   283.49457     -3238.5287     -3254.9088      16.380114      9662.8046      10112.159    
    297000   319.12267     -3238.4961     -3256.9348      18.438679      9337.4384      10112.159    
    297100   304.20288     -3239.7283     -3257.305       17.576625      8866.784       10112.159    
    297200   299.67958     -3240.1276     -3257.4429      17.315272      9005.4511      10112.159    
    297300   294.98699     -3240.1741     -3257.2182      17.044137      9013.1934      10112.159    
    297400   294.58752     -3239.9662     -3256.9873      17.021056      9144.3786      10112.159    
    297500   310.89066     -3239.0227     -3256.9858      17.96304       9324.5083      10112.159    
    297600   307.79848     -3238.131      -3255.9154      17.784376      9180.3588      10112.159    
    297700   304.10442     -3238.7909     -3256.3618      17.570936      9567.3769      10112.159    
    297800   297.02647     -3240.1939     -3257.3559      17.161977      9124.5011      10112.159    
    297900   307.10683     -3240.4032     -3258.1476      17.744413      8522.6668      10112.159    
    298000   295.47629     -3240.4093     -3257.4817      17.072409      8719.9641      10112.159    
    298100   294.66068     -3239.4985     -3256.5238      17.025284      9234.296       10112.159    
    298200   306.01866     -3237.8825     -3255.5641      17.681539      9638.5462      10112.159    
    298300   331.74872     -3238.2215     -3257.3897      19.168204      9184.2718      10112.159    
    298400   309.30185     -3239.2285     -3257.0998      17.87124       9269.18        10112.159    
    298500   297.47395     -3240.0139     -3257.2018      17.187832      9164.5144      10112.159    
    298600   289.18893     -3240.5662     -3257.2753      16.709129      8969.0641      10112.159    
    298700   289.00187     -3240.3921     -3257.0904      16.698322      8985.2826      10112.159    
    298800   314.05045     -3238.8001     -3256.9458      18.145611      9034.2497      10112.159    
    298900   315.37769     -3238.2976     -3256.5199      18.222297      9320.6296      10112.159    
    299000   311.6301      -3239.3        -3257.3058      18.005764      9161.4254      10112.159    
    299100   297.82069     -3240.6071     -3257.815       17.207867      8797.8168      10112.159    
    299200   287.332       -3240.9683     -3257.5702      16.601837      9021.8515      10112.159    
    299300   297.68218     -3240.3854     -3257.5852      17.199864      9158.4928      10112.159    
    299400   299.74298     -3239.4193     -3256.7382      17.318935      8923.3315      10112.159    
    299500   321.35229     -3238.8622     -3257.4297      18.567505      9300.1185      10112.159    
    299600   300.95128     -3239.5146     -3256.9033      17.38875       9135.361       10112.159    
    299700   288.30759     -3240.0463     -3256.7045      16.658206      9113.1463      10112.159    
    299800   297.19278     -3240.1778     -3257.3494      17.171586      9323.5612      10112.159    
    299900   298.97218     -3240.2347     -3257.5091      17.274399      8680.1029      10112.159    
    300000   316.22729     -3239.5793     -3257.8507      18.271387      9122.5963      10112.159    
Loop time of 2274.31 on 20 procs for 300000 steps with 448 atoms

Performance: 11.397 ns/day, 2.106 hours/ns, 131.908 timesteps/s, 59.095 katom-step/s
99.9% CPU use with 20 MPI tasks x 1 OpenMP threads

MPI task timing breakdown:
Section |  min time  |  avg time  |  max time  |%varavg| %total
---------------------------------------------------------------
Pair    | 1747.5     | 1996.8     | 2184.4     | 391.8 | 87.80
Neigh   | 20.256     | 27.765     | 34.951     | 110.8 |  1.22
Comm    | 51.673     | 246.7      | 503.65     |1151.3 | 10.85
Output  | 0.35065    | 0.57211    | 0.6376     |   7.6 |  0.03
Modify  | 2.0116     | 2.2424     | 2.4281     |   7.6 |  0.10
Other   |            | 0.2814     |            |       |  0.01

Nlocal:           22.4 ave          25 max          17 min
Histogram: 1 0 0 6 0 0 0 2 10 1
Nghost:          496.4 ave         523 max         465 min
Histogram: 4 0 0 6 2 0 0 0 1 7
Neighs:              0 ave           0 max           0 min
Histogram: 20 0 0 0 0 0 0 0 0 0
FullNghs:       1279.7 ave        1454 max        1000 min
Histogram: 1 0 1 5 0 0 1 6 5 1

Total # of neighbors = 25594
Ave neighs/atom = 57.129464
Neighbor list builds = 300000
Dangerous builds not checked
Total wall time: 0:37:54
