LAMMPS (27 Jun 2024)
OMP_NUM_THREADS environment is not set. Defaulting to 1 thread. (src/comm.cpp:98)
  using 1 OpenMP thread(s) per MPI task
Reading data file ...
  orthogonal box = (0 0 0) to (22.422218 22.19224 20.321894)
  5 by 2 by 2 MPI processor grid
  reading atoms ...
  448 atoms
  read_data CPU = 0.005 seconds
**************** Begin of POD Potentials ****************
species: Hf 
periodic boundary conditions: 1 1 1
number of environment clusters: 8
number of principal compoments: 2
inner cut-off radius: 1
outer cut-off radius: 5
cut-off function type: 1
gaussian_exponents: 
polynomial_degrees: 
bessel polynomial degree: 4
inverse polynomial degree: 10
one-body potential: 1
two-body radial basis functions: 8
three-body radial basis functions: 8
three-body angular degree: 6
four-body radial basis functions: 7
four-body angular degree: 5
five-body radial basis functions: 0
five-body angular degree: 0
six-body radial basis functions: 0
six-body angular degree: 0
seven-body radial basis functions: 0
seven-body angular degree: 0
number of local descriptors per element for one-body potential: 1
number of local descriptors per element for two-body potential: 8
number of local descriptors per element for three-body potential: 56
number of local descriptors per element for four-body potential: 112
number of local descriptors per element for five-body potential: 0
number of local descriptors per element for six-body potential: 0
number of local descriptors per element for seven-body potential: 0
number of local descriptors per element for all potentials: 177
number of global descriptors: 1409
**************** End of POD Potentials ****************

**************** Begin of Model Coefficients ****************
total number of coefficients for POD potential: 1409
total number of elements for PCA projection matrix: 352
total number of elements for PCA centroids: 16
**************** End of Model Coefficients ****************


CITE-CITE-CITE-CITE-CITE-CITE-CITE-CITE-CITE-CITE-CITE-CITE-CITE

Your simulation uses code contributions which should be cited:
- Type Label Framework: https://doi.org/10.1021/acs.jpcb.3c08419
The log file lists these citations in BibTeX format.

CITE-CITE-CITE-CITE-CITE-CITE-CITE-CITE-CITE-CITE-CITE-CITE-CITE

Neighbor list info ...
  update: every = 1 steps, delay = 0 steps, check = no
  max neighbors/atom: 2000, page size: 100000
  master list distance cutoff = 7
  ghost atom cutoff = 7
  binsize = 3.5, bins = 7 7 6
  1 neighbor lists, perpetual/occasional/extra = 1 0 0
  (1) pair pod, perpetual
      attributes: full, newton on
      pair build: full/bin/atomonly
      stencil: full/bin/3d
      bin: standard
Setting up Verlet run ...
  Unit style    : metal
  Current step  : 0
  Time step     : 0.001
Per MPI rank memory allocation (min/avg/max) = 2.586 | 2.586 | 2.586 Mbytes
   Step          Temp          TotEng         PotEng         KinEng         Press          Volume    
         0   300           -3231.7429     -3249.0767      17.333785      27701.818      10112.159    
       100   316.48014     -3235.7528     -3254.0388      18.285996      9249.4596      10112.159    
       200   234.22114     -3236.5353     -3250.0685      13.53313       10922.711      10112.159    
       300   353.79196     -3235.2959     -3255.7378      20.441847      8860.7692      10112.159    
       400   337.44746     -3238.1089     -3257.6063      19.497473      8817.7425      10112.159    
       500   308.53636     -3240.4593     -3258.2863      17.82701       8547.6467      10112.159    
       600   285.9827      -3241.4678     -3257.9917      16.523876      7903.5292      10112.159    
       700   260.86981     -3240.9908     -3256.0637      15.072871      9174.3964      10112.159    
       800   301.11789     -3239.5246     -3256.923       17.398376      8776.0569      10112.159    
       900   304.50006     -3238.7874     -3256.3811      17.593795      8517.7612      10112.159    
      1000   323.39981     -3238.5187     -3257.2045      18.68581       8621.8704      10112.159    
      1100   293.40509     -3239.5752     -3256.5279      16.952736      8716.3519      10112.159    
      1200   286.92648     -3240.7719     -3257.3503      16.578407      8502.3093      10112.159    
      1300   282.68867     -3240.9212     -3257.2547      16.333549      8511.2246      10112.159    
      1400   294.78101     -3240.0945     -3257.1267      17.032236      8743.403       10112.159    
      1500   290.32373     -3239.2512     -3256.0259      16.774697      8879.09        10112.159    
      1600   330.07288     -3237.9803     -3257.0517      19.071375      9130.925       10112.159    
      1700   312.66123     -3238.4296     -3256.4949      18.065342      9151.4439      10112.159    
      1800   295.87115     -3239.5441     -3256.6393      17.095223      8573.5682      10112.159    
      1900   302.12234     -3240.0299     -3257.4864      17.456412      8897.8116      10112.159    
      2000   287.93976     -3240.2484     -3256.8853      16.636954      8551.33        10112.159    
      2100   317.13684     -3239.1637     -3257.4876      18.32394       8965.5326      10112.159    
      2200   302.23133     -3237.9313     -3255.3941      17.46271       9044.8634      10112.159    
      2300   313.54425     -3237.552      -3255.6684      18.116363      9356.6874      10112.159    
      2400   297.83147     -3239.7747     -3256.9832      17.20849       9096.5685      10112.159    
      2500   301.75646     -3240.396      -3257.8312      17.435272      8632.2256      10112.159    
      2600   279.85032     -3240.4548     -3256.6243      16.169551      8846.2035      10112.159    
      2700   315.99545     -3239.2971     -3257.5551      18.257991      9095.0129      10112.159    
      2800   288.5172      -3239.3931     -3256.0634      16.670318      9149.4709      10112.159    
      2900   321.84975     -3239.1081     -3257.7044      18.596248      8978.2881      10112.159    
      3000   285.55685     -3239.9987     -3256.4979      16.499271      8466.7249      10112.159    
      3100   299.83052     -3240.5022     -3257.8262      17.323993      8642.3289      10112.159    
      3200   287.17705     -3240.7082     -3257.3011      16.592885      8580.2024      10112.159    
      3300   301.52043     -3240.0557     -3257.4773      17.421635      8776.5375      10112.159    
      3400   312.52752     -3238.7474     -3256.805       18.057616      8372.1233      10112.159    
      3500   313.21476     -3238.2826     -3256.3799      18.097325      8552.6241      10112.159    
      3600   291.92345     -3239.0735     -3255.9407      16.867128      8905.2452      10112.159    
      3700   288.51268     -3241.0166     -3257.6866      16.670056      8676.4556      10112.159    
      3800   297.29452     -3241.0408     -3258.2183      17.177465      8366.2862      10112.159    
      3900   303.82842     -3240.2945     -3257.8495      17.554989      8462.9298      10112.159    
      4000   296.02529     -3239.4418     -3256.5459      17.104129      8761.1662      10112.159    
      4100   312.40963     -3238.38       -3256.4308      18.050805      8956.6978      10112.159    
      4200   296.09708     -3238.9248     -3256.0331      17.108278      8832.1843      10112.159    
      4300   298.76975     -3240.8268     -3258.0895      17.262702      8515.8446      10112.159    
      4400   294.51234     -3240.9734     -3257.9901      17.016713      8796.9397      10112.159    
      4500   292.10249     -3240.4493     -3257.3268      16.877473      8199.6663      10112.159    
      4600   304.25242     -3239.0697     -3256.6492      17.579487      8876.737       10112.159    
      4700   318.0983      -3238.252      -3256.6315      18.379492      8950.6362      10112.159    
      4800   312.91198     -3238.676      -3256.7559      18.07983       8807.6877      10112.159    
      4900   297.37311     -3239.5343     -3256.7163      17.182006      8556.4215      10112.159    
      5000   316.05483     -3239.6338     -3257.8952      18.261422      8540.3028      10112.159    
      5100   288.75545     -3240.4085     -3257.0926      16.684083      8454.1223      10112.159    
      5200   294.47499     -3240.6787     -3257.6933      17.014554      8482.2294      10112.159    
      5300   297.56624     -3239.9426     -3257.1357      17.193164      8696.044       10112.159    
      5400   322.9918      -3238.3316     -3256.9938      18.662235      9089.5231      10112.159    
      5500   293.77001     -3238.9996     -3255.9734      16.973821      9300.4144      10112.159    
      5600   294.87761     -3239.7549     -3256.7927      17.037818      8861.3598      10112.159    
      5700   292.89473     -3240.6365     -3257.5598      16.923248      8564.1017      10112.159    
      5800   292.18218     -3241.6962     -3258.5783      16.882077      8120.6359      10112.159    
      5900   280.47025     -3241.7209     -3257.9263      16.205371      8511.5971      10112.159    
      6000   307.18245     -3239.6532     -3257.402       17.748782      8855.5717      10112.159    
      6100   286.64882     -3239.1972     -3255.7596      16.562364      9225.36        10112.159    
      6200   316.60462     -3238.4383     -3256.7315      18.293189      9182.9261      10112.159    
      6300   294.44455     -3239.4051     -3256.4179      17.012796      8715.81        10112.159    
      6400   298.0872      -3240.5648     -3257.7881      17.223265      8324.2077      10112.159    
      6500   290.91409     -3240.6349     -3257.4437      16.808808      8622.1933      10112.159    
      6600   307.57629     -3240.3146     -3258.0861      17.771538      8557.9096      10112.159    
      6700   303.27321     -3240.0714     -3257.5943      17.522909      8466.6226      10112.159    
      6800   291.74153     -3239.6994     -3256.556       16.856617      8737.9476      10112.159    
      6900   319.18449     -3238.423      -3256.8652      18.442252      9321.7601      10112.159    
      7000   309.29833     -3237.1209     -3254.992       17.871036      8933.7548      10112.159    
      7100   312.9076      -3237.8714     -3255.951       18.079578      9079.6511      10112.159    
      7200   313.04758     -3239.6865     -3257.7742      18.087665      8487.1672      10112.159    
      7300   285.91022     -3240.6648     -3257.1845      16.519688      8670.4999      10112.159    
      7400   298.4509      -3240.5495     -3257.7937      17.24428       8662.0253      10112.159    
      7500   292.84368     -3239.8524     -3256.7727      16.920299      8830.4489      10112.159    
      7600   318.9266      -3238.4293     -3256.8567      18.427351      8947.213       10112.159    
      7700   313.0815      -3238.3585     -3256.4482      18.089625      8913.1651      10112.159    
      7800   301.21306     -3239.5295     -3256.9334      17.403875      8763.2645      10112.159    
      7900   293.54185     -3240.0661     -3257.0267      16.960638      8937.9329      10112.159    
      8000   309.71512     -3239.8309     -3257.726       17.895118      8786.8995      10112.159    
      8100   292.58455     -3239.9194     -3256.8247      16.905326      8797.0281      10112.159    
      8200   295.05975     -3240.1139     -3257.1623      17.048341      9023.5947      10112.159    
      8300   298.43995     -3240.4639     -3257.7076      17.243647      8924.5029      10112.159    
      8400   317.66169     -3239.7483     -3258.1026      18.354265      8908.2868      10112.159    
      8500   283.56978     -3239.2928     -3255.6772      16.384459      9300.0374      10112.159    
      8600   321.03461     -3238.2214     -3256.7705      18.54915       9216.0983      10112.159    
      8700   316.00603     -3239.1296     -3257.3882      18.258603      8617.8127      10112.159    
      8800   295.47924     -3240.5213     -3257.5938      17.072579      8497.7204      10112.159    
      8900   291.35073     -3240.5522     -3257.3863      16.834037      8518.6         10112.159    
      9000   296.14904     -3240.34       -3257.4513      17.111279      8678.0573      10112.159    
      9100   292.49543     -3239.7448     -3256.6449      16.900177      9118.955       10112.159    
      9200   320.52921     -3238.1387     -3256.6586      18.519948      9140.0014      10112.159    
      9300   317.96248     -3238.3666     -3256.7382      18.371645      9401.5293      10112.159    
      9400   295.44949     -3239.6744     -3256.7453      17.07086       8945.6195      10112.159    
      9500   285.57346     -3240.4058     -3256.9061      16.50023       8953.5222      10112.159    
      9600   319.88685     -3239.999      -3258.4819      18.482833      8727.0327      10112.159    
      9700   285.28471     -3240.3481     -3256.8316      16.483547      8517.2128      10112.159    
      9800   302.79439     -3239.5755     -3257.0708      17.495243      9002.3622      10112.159    
      9900   312.39108     -3238.1427     -3256.1924      18.049733      9329.6432      10112.159    
     10000   302.92523     -3238.3312     -3255.834       17.502803      9060.8091      10112.159    
     10100   304.34664     -3240.3981     -3257.9831      17.584931      8379.3249      10112.159    
     10200   279.51496     -3241.3145     -3257.4646      16.150174      8742.8546      10112.159    
     10300   308.8325      -3240.4824     -3258.3265      17.844121      8761.4953      10112.159    
     10400   296.05089     -3239.4967     -3256.6023      17.105609      9039.2456      10112.159    
     10500   312.16015     -3238.6064     -3256.6428      18.03639       9230.374       10112.159    
     10600   304.07449     -3239.223      -3256.7922      17.569207      9225.9442      10112.159    
     10700   303.41755     -3239.8924     -3257.4236      17.531249      8907.9682      10112.159    
     10800   293.63541     -3239.927      -3256.893       16.966044      8998.5209      10112.159    
     10900   313.90897     -3239.7353     -3257.8728      18.137436      8699.6377      10112.159    
     11000   276.11389     -3240.5441     -3256.4978      15.953663      8913.8289      10112.159    
     11100   303.08671     -3239.9807     -3257.4929      17.512133      8780.2288      10112.159    
     11200   319.56523     -3238.681      -3257.1453      18.46425       9044.6911      10112.159    
     11300   307.66799     -3238.6514     -3256.4282      17.776837      9075.3191      10112.159    
     11400   296.06434     -3239.5146     -3256.621       17.106386      9005.7909      10112.159    
     11500   291.60045     -3240.9883     -3257.8368      16.848466      8642.1554      10112.159    
     11600   289.97964     -3241.2699     -3258.0247      16.754816      8241.5909      10112.159    
     11700   298.38576     -3240.4631     -3257.7037      17.240516      8775.4285      10112.159    
     11800   285.36774     -3239.9147     -3256.4031      16.488344      9104.3872      10112.159    
     11900   317.95266     -3239.4986     -3257.8697      18.371077      8671.7923      10112.159    
     12000   290.78252     -3239.9866     -3256.7878      16.801206      8294.0155      10112.159    
     12100   291.81054     -3239.8601     -3256.7207      16.860604      8816.0944      10112.159    
     12200   328.01784     -3238.7311     -3257.6837      18.952636      9078.8453      10112.159    
     12300   299.57447     -3238.6548     -3255.964       17.309199      9214.2906      10112.159    
     12400   306.29342     -3238.8506     -3256.548       17.697415      8960.9902      10112.159    
     12500   297.66088     -3240.5299     -3257.7286      17.198633      8692.2974      10112.159    
     12600   287.0223      -3240.9124     -3257.4964      16.583943      8945.5914      10112.159    
     12700   291.32514     -3240.3309     -3257.1635      16.832558      8709.2503      10112.159    
     12800   305.49339     -3239.2946     -3256.9458      17.65119       8843.9654      10112.159    
     12900   315.4873      -3238.4458     -3256.6744      18.228631      9309.0969      10112.159    
     13000   288.09382     -3239.23       -3255.8758      16.645855      9014.6434      10112.159    
     13100   284.76803     -3240.917      -3257.3707      16.453693      8731.8719      10112.159    
     13200   299.70554     -3241.1644     -3258.4811      17.316772      8496.3683      10112.159    
     13300   294.76089     -3240.6276     -3257.6587      17.031073      8418.9197      10112.159    
     13400   328.02868     -3239.0334     -3257.9866      18.953262      8730.279       10112.159    
     13500   287.03338     -3239.3085     -3255.8931      16.584583      9320.1104      10112.159    
     13600   299.26933     -3239.4594     -3256.7509      17.291568      8939.35        10112.159    
     13700   294.46645     -3240.4838     -3257.4978      17.014061      8925.3471      10112.159    
     13800   287.58441     -3241.6649     -3258.2813      16.616422      8356.3954      10112.159    
     13900   304.25032     -3241.2716     -3258.8509      17.579366      8053.8207      10112.159    
     14000   281.68287     -3239.0834     -3255.3588      16.275435      9229.2576      10112.159    
     14100   307.81591     -3238.5838     -3256.3692      17.785383      9393.6365      10112.159    
     14200   309.00244     -3239.6295     -3257.4834      17.85394       8790.5547      10112.159    
     14300   301.62        -3240.526      -3257.9534      17.427388      8744.7088      10112.159    
     14400   302.36358     -3240.5056     -3257.976       17.470351      8569.8876      10112.159    
     14500   294.35941     -3239.8604     -3256.8683      17.007876      9039.2681      10112.159    
     14600   308.05534     -3238.2257     -3256.0249      17.799217      9221.8952      10112.159    
     14700   306.13579     -3238.3231     -3256.0114      17.688307      8965.2295      10112.159    
     14800   305.62216     -3239.4716     -3257.1302      17.65863       9054.7162      10112.159    
     14900   301.29099     -3240.5133     -3257.9217      17.408378      8663.4336      10112.159    
     15000   299.28332     -3240.4057     -3257.6981      17.292376      8664.9766      10112.159    
     15100   293.64506     -3239.7566     -3256.7232      16.966601      8705.6933      10112.159    
     15200   309.34334     -3239.231      -3257.1046      17.873637      9353.6655      10112.159    
     15300   309.96614     -3239.5488     -3257.4585      17.909622      8906.8415      10112.159    
     15400   282.96295     -3240.6637     -3257.0131      16.349397      8931.9632      10112.159    
     15500   291.81846     -3241.2977     -3258.1588      16.861062      9012.9545      10112.159    
     15600   289.54337     -3240.7767     -3257.5063      16.729609      8766.7807      10112.159    
     15700   317.8198      -3239.2563     -3257.6197      18.3634        8850.9595      10112.159    
     15800   303.61011     -3238.9284     -3256.4708      17.542375      9215.1346      10112.159    
     15900   296.45672     -3239.3342     -3256.4633      17.129057      9434.9289      10112.159    
     16000   300.84568     -3239.7899     -3257.1725      17.382648      9056.667       10112.159    
     16100   308.6495      -3239.9769     -3257.8104      17.833547      8658.0342      10112.159    
     16200   296.78809     -3240.193      -3257.3412      17.148204      8592.6031      10112.159    
     16300   307.46315     -3239.7732     -3257.5382      17.765001      9094.7555      10112.159    
     16400   281.30803     -3239.9876     -3256.2414      16.253777      8847.9711      10112.159    
     16500   293.89242     -3241.3206     -3258.3015      16.980894      8794.1923      10112.159    
     16600   283.08569     -3242.2858     -3258.6423      16.356489      8437.4593      10112.159    
     16700   285.14243     -3241.3892     -3257.8645      16.475326      8572.4198      10112.159    
     16800   303.81181     -3240.0067     -3257.5608      17.554029      9167.9427      10112.159    
     16900   299.98276     -3239.6547     -3256.9875      17.332789      8958.2499      10112.159    
     17000   309.34016     -3239.2796     -3257.1531      17.873453      9468.6172      10112.159    
     17100   300.40379     -3239.7263     -3257.0834      17.357116      9095.9108      10112.159    
     17200   287.55925     -3241.0094     -3257.6244      16.614968      8998.4062      10112.159    
     17300   295.94738     -3241.062      -3258.1616      17.099628      8932.5835      10112.159    
     17400   295.56045     -3239.708      -3256.7853      17.077271      9190.6048      10112.159    
     17500   315.5083      -3238.289      -3256.5189      18.229844      9437.9659      10112.159    
     17600   312.88778     -3238.7727     -3256.8511      18.078432      9056.1244      10112.159    
     17700   290.76906     -3240.1328     -3256.9332      16.800429      9236.9936      10112.159    
     17800   296.79411     -3240.7155     -3257.864       17.148551      8542.6026      10112.159    
     17900   289.39326     -3240.5597     -3257.2807      16.720936      9119.0249      10112.159    
     18000   301.75618     -3239.7104     -3257.1457      17.435256      9020.6593      10112.159    
     18100   296.31114     -3239.4427     -3256.5634      17.120646      9404.9226      10112.159    
     18200   323.43198     -3238.3882     -3257.0759      18.687669      9170.8376      10112.159    
     18300   325.36035     -3237.1708     -3255.9699      18.799088      9691.4815      10112.159    
     18400   301.23115     -3238.4333     -3255.8382      17.40492       9391.9608      10112.159    
     18500   300.53124     -3239.8637     -3257.2282      17.36448       8949.5623      10112.159    
     18600   298.06827     -3240.51       -3257.7322      17.222171      8701.4176      10112.159    
     18700   305.58692     -3240.5846     -3258.2412      17.656594      8675.6239      10112.159    
     18800   289.13693     -3240.296      -3257.0022      16.706125      8929.4772      10112.159    
     18900   313.58238     -3238.6994     -3256.818       18.118566      9066.2971      10112.159    
     19000   305.49825     -3238.6297     -3256.2811      17.65147       9455.6448      10112.159    
     19100   303.44033     -3239.6229     -3257.1555      17.532565      8928.5102      10112.159    
     19200   296.8554      -3241.1551     -3258.3071      17.152093      8384.567       10112.159    
     19300   277.52543     -3241.0335     -3257.0687      16.035221      9026.6731      10112.159    
     19400   302.66607     -3240.0655     -3257.5534      17.487829      8889.0783      10112.159    
     19500   304.78799     -3239.4256     -3257.036       17.610432      8728.6676      10112.159    
     19600   318.21146     -3238.7674     -3257.1534      18.386031      8976.6222      10112.159    
     19700   281.3563      -3239.9618     -3256.2184      16.256566      9133.3085      10112.159    
     19800   291.14406     -3241.3704     -3258.1924      16.822096      8485.7598      10112.159    
     19900   283.21676     -3241.504      -3257.868       16.364062      8824.1426      10112.159    
     20000   307.28964     -3240.1826     -3257.9376      17.754975      8611.2645      10112.159    
     20100   299.23486     -3239.6226     -3256.9122      17.289576      9198.2461      10112.159    
     20200   310.02039     -3239.4662     -3257.3789      17.912756      9238.0007      10112.159    
     20300   290.8694      -3240.109      -3256.9152      16.806226      8915.3836      10112.159    
     20400   284.44207     -3241.0401     -3257.475       16.43486       8885.3348      10112.159    
     20500   281.65696     -3242.0575     -3258.3314      16.273937      8446.4503      10112.159    
     20600   295.1869      -3241.5137     -3258.5694      17.055688      8286.8192      10112.159    
     20700   300.52467     -3239.7312     -3257.0953      17.364101      8766.3825      10112.159    
     20800   295.05614     -3239.4017     -3256.4499      17.048133      9451.2425      10112.159    
     20900   316.2517      -3239.1647     -3257.4375      18.272797      9135.9479      10112.159    
     21000   295.14414     -3240.2301     -3257.2833      17.053217      8573.0559      10112.159    
     21100   289.25629     -3241.0421     -3257.7551      16.713021      8940.0738      10112.159    
     21200   294.53006     -3240.6451     -3257.6629      17.017736      8947.3851      10112.159    
     21300   316.09187     -3238.5503     -3256.8139      18.263562      8873.2185      10112.159    
     21400   310.72767     -3238.2624     -3256.216       17.953622      9078.8341      10112.159    
     21500   313.8788      -3238.8035     -3256.9392      18.135693      9018.2202      10112.159    
     21600   286.32503     -3240.3097     -3256.8533      16.543655      8973.2446      10112.159    
     21700   291.87382     -3240.6432     -3257.5074      16.864261      8635.5082      10112.159    
     21800   304.0541      -3240.0521     -3257.6201      17.568028      8772.5609      10112.159    
     21900   299.74662     -3239.4336     -3256.7527      17.319145      9018.9098      10112.159    
     22000   295.6449      -3239.2178     -3256.3         17.082151      9193.3259      10112.159    
     22100   318.55211     -3239.0681     -3257.4739      18.405713      9218.9158      10112.159    
     22200   292.73061     -3239.9262     -3256.84        16.913765      9082.5865      10112.159    
     22300   291.6152      -3240.7702     -3257.6195      16.849318      8812.3561      10112.159    
     22400   285.12126     -3241.3075     -3257.7816      16.474102      8745.1669      10112.159    
     22500   313.69878     -3240.0432     -3258.1684      18.125291      8551.1778      10112.159    
     22600   302.03013     -3239.3594     -3256.8105      17.451085      8857.7462      10112.159    
     22700   295.88042     -3239.3505     -3256.4462      17.095759      9262.7271      10112.159    
     22800   316.68633     -3239.2605     -3257.5584      18.29791       9011.8457      10112.159    
     22900   284.54164     -3241.207      -3257.6476      16.440612      8608.6843      10112.159    
     23000   299.46577     -3241.081      -3258.3839      17.302918      8841.1979      10112.159    
     23100   278.78419     -3240.7593     -3256.8673      16.107951      8534.8732      10112.159    
     23200   307.59998     -3239.44       -3257.213       17.772907      8759.4183      10112.159    
     23300   309.08034     -3239.224      -3257.0824      17.858441      9131.2931      10112.159    
     23400   305.56332     -3239.577      -3257.2323      17.65523       9302.2902      10112.159    
     23500   299.68076     -3239.8863     -3257.2017      17.31534       8694.0651      10112.159    
     23600   275.28644     -3241.0066     -3256.9125      15.905854      8705.7545      10112.159    
     23700   291.52948     -3241.6443     -3258.4887      16.844365      8456.6703      10112.159    
     23800   303.65983     -3240.7804     -3258.3256      17.545248      8479.9067      10112.159    
     23900   304.90213     -3239.2946     -3256.9117      17.617027      9156.4287      10112.159    
     24000   300.02397     -3239.1374     -3256.4726      17.33517       9182.7923      10112.159    
     24100   313.20811     -3239.3741     -3257.4711      18.09694       8757.2633      10112.159    
     24200   300.92828     -3240.3359     -3257.7233      17.387421      8748.892       10112.159    
     24300   280.83367     -3241.6473     -3257.8737      16.226369      8466.6839      10112.159    
     24400   281.06708     -3242.4364     -3258.6763      16.239855      8296.4114      10112.159    
     24500   294.57638     -3241.479      -3258.4994      17.020413      8359.4687      10112.159    
     24600   302.0066      -3239.8658     -3257.3156      17.449726      8993.2246      10112.159    
     24700   313.26962     -3238.8971     -3256.9976      18.100495      9077.0304      10112.159    
     24800   299.19461     -3239.0428     -3256.33        17.28725       9191.1868      10112.159    
     24900   294.80564     -3240.1864     -3257.22        17.033659      9069.8969      10112.159    
     25000   297.36924     -3240.9619     -3258.1437      17.181782      8799.9439      10112.159    
     25100   291.79996     -3240.9617     -3257.8217      16.859993      8578.3747      10112.159    
     25200   308.44435     -3239.0742     -3256.8959      17.821694      8880.4164      10112.159    
     25300   306.18257     -3238.3088     -3255.9998      17.69101       9307.3014      10112.159    
     25400   305.74921     -3239.1251     -3256.7911      17.665971      9205.329       10112.159    
     25500   292.83828     -3240.4549     -3257.3748      16.919986      8964.5784      10112.159    
     25600   303.27003     -3240.5973     -3258.12        17.522725      8721.8256      10112.159    
     25700   294.09934     -3240.2355     -3257.2284      16.99285       9121.1044      10112.159    
     25800   306.46725     -3238.589      -3256.2965      17.707458      9081.1623      10112.159    
     25900   312.56025     -3237.9281     -3255.9876      18.059508      9332.402       10112.159    
     26000   325.48503     -3238.5854     -3257.3917      18.806292      8809.3326      10112.159    
     26100   313.11392     -3239.4715     -3257.563       18.091498      8926.8391      10112.159    
     26200   286.68089     -3240.0025     -3256.5667      16.564217      9125.6128      10112.159    
     26300   301.6151      -3239.9782     -3257.4053      17.427105      8815.158       10112.159    
     26400   290.20213     -3240.6575     -3257.4252      16.767672      8934.8003      10112.159    
     26500   289.28538     -3241.2878     -3258.0025      16.714702      8801.8968      10112.159    
     26600   294.09363     -3240.8979     -3257.8904      16.99252       8617.0919      10112.159    
     26700   298.65217     -3239.4885     -3256.7444      17.255909      9103.375       10112.159    
     26800   304.59836     -3238.6173     -3256.2168      17.599475      9301.4984      10112.159    
     26900   324.67908     -3238.7822     -3257.542       18.759725      8939.0193      10112.159    
     27000   310.10712     -3239.7872     -3257.7049      17.917768      8812.5065      10112.159    
     27100   292.20452     -3240.3263     -3257.2097      16.883368      8465.5909      10112.159    
     27200   297.68213     -3239.9607     -3257.1605      17.19986       8661.0266      10112.159    
     27300   303.15806     -3239.5624     -3257.0787      17.516256      9113.1825      10112.159    
     27400   297.71069     -3239.5469     -3256.7484      17.201511      9018.422       10112.159    
     27500   311.27215     -3238.8882     -3256.8733      17.985082      9158.043       10112.159    
     27600   315.58162     -3239.1896     -3257.4236      18.23408       9001.816       10112.159    
     27700   293.51131     -3240.5384     -3257.4972      16.958874      8870.6749      10112.159    
     27800   286.97526     -3241.1241     -3257.7053      16.581225      8719.9564      10112.159    
     27900   295.43173     -3240.3802     -3257.45        17.069834      8851.7481      10112.159    
     28000   310.44847     -3239.3614     -3257.2989      17.93749       8936.4482      10112.159    
     28100   306.84941     -3239.303      -3257.0325      17.729539      8977.5304      10112.159    
     28200   296.58774     -3239.454      -3256.5906      17.136627      9137.4758      10112.159    
     28300   291.72744     -3239.9933     -3256.8491      16.855803      8984.4075      10112.159    
     28400   289.89161     -3240.9546     -3257.7043      16.74973       8760.7763      10112.159    
     28500   288.35058     -3241.9404     -3258.6011      16.660691      8395.4415      10112.159    
     28600   270.8633      -3242.6787     -3258.329       15.650288      8115.4555      10112.159    
     28700   292.15117     -3240.9997     -3257.88        16.880285      8942.8255      10112.159    
     28800   287.45295     -3240.0871     -3256.6959      16.608826      8958.3208      10112.159    
     28900   309.01439     -3239.2476     -3257.1022      17.854631      8950.2327      10112.159    
     29000   314.73893     -3238.8977     -3257.083       18.18539       9064.6619      10112.159    
     29100   291.15669     -3239.7353     -3256.5581      16.822825      9013.1428      10112.159    
     29200   294.44927     -3240.9941     -3258.0072      17.013068      8624.8769      10112.159    
     29300   278.12792     -3241.4253     -3257.4953      16.070032      8872.3371      10112.159    
     29400   306.18261     -3240.4527     -3258.1437      17.691012      8606.4919      10112.159    
     29500   290.48817     -3239.9816     -3256.7658      16.784198      8791.5532      10112.159    
     29600   308.06487     -3239.4788     -3257.2786      17.799768      8994.2514      10112.159    
     29700   289.22716     -3239.72       -3256.4313      16.711339      9107.0495      10112.159    
     29800   295.16067     -3240.2078     -3257.262       17.054172      8940.6837      10112.159    
     29900   293.63532     -3241.1487     -3258.1148      16.966039      8959.3357      10112.159    
     30000   274.45869     -3241.9341     -3257.7922      15.858027      8449.9299      10112.159    
     30100   300.07419     -3240.5575     -3257.8956      17.338072      8704.9332      10112.159    
     30200   305.51314     -3239.5019     -3257.1542      17.652331      9178.4889      10112.159    
     30300   291.52499     -3239.4918     -3256.3359      16.844105      9183.1231      10112.159    
     30400   303.23329     -3239.7456     -3257.2662      17.520602      8895.6994      10112.159    
     30500   298.08807     -3240.8089     -3258.0322      17.223315      8615.3641      10112.159    
     30600   301.9086      -3241.211      -3258.655       17.444063      8488.9625      10112.159    
     30700   287.38016     -3240.6875     -3257.2922      16.60462       8920.75        10112.159    
     30800   296.54844     -3239.1319     -3256.2663      17.134357      9258.9735      10112.159    
     30900   313.03968     -3238.5319     -3256.6191      18.087209      9100.2611      10112.159    
     31000   320.47415     -3239.0201     -3257.5368      18.516767      9004.3716      10112.159    
     31100   293.61848     -3240.6138     -3257.5789      16.965066      8962.4155      10112.159    
     31200   293.72701     -3241.0805     -3258.0518      16.971336      8908.3799      10112.159    
     31300   294.92835     -3240.5508     -3257.5916      17.040749      8846.8094      10112.159    
     31400   301.11446     -3239.5373     -3256.9355      17.398178      9133.4154      10112.159    
     31500   303.77078     -3239.392      -3256.9437      17.551659      8777.9317      10112.159    
     31600   327.3065      -3239.4412     -3258.3527      18.911535      8625.3949      10112.159    
     31700   287.01474     -3240.2961     -3256.8796      16.583507      9001.4407      10112.159    
     31800   289.07627     -3240.2964     -3256.999       16.70262       9052.9215      10112.159    
     31900   301.44182     -3239.9508     -3257.3679      17.417093      8866.4064      10112.159    
     32000   306.45787     -3239.6064     -3257.3133      17.706916      8722.4669      10112.159    
     32100   313.65826     -3239.1875     -3257.3105      18.12295       8870.7277      10112.159    
     32200   305.11976     -3239.1381     -3256.7677      17.629602      9092.1235      10112.159    
     32300   281.62902     -3240.0974     -3256.3698      16.272323      9376.157       10112.159    
     32400   287.04498     -3240.8254     -3257.4106      16.585254      8776.9537      10112.159    
     32500   296.66442     -3240.7987     -3257.9397      17.141058      8219.4263      10112.159    
     32600   329.7916      -3239.1459     -3258.201       19.055123      8894.849       10112.159    
     32700   296.56175     -3238.7915     -3255.9266      17.135126      9244.9222      10112.159    
     32800   288.4404      -3239.2234     -3255.8892      16.66588       9340.6189      10112.159    
     32900   302.53225     -3239.6613     -3257.1413      17.480097      8780.8032      10112.159    
     33000   311.08572     -3239.7729     -3257.7472      17.974311      8897.9141      10112.159    
     33100   316.46868     -3239.8927     -3258.1781      18.285334      8638.256       10112.159    
     33200   277.22329     -3240.7917     -3256.8095      16.017763      9120.3438      10112.159    
     33300   275.39581     -3241.7475     -3257.6597      15.912173      8507.8051      10112.159    
     33400   289.92047     -3241.7005     -3258.4519      16.751397      8459.5492      10112.159    
     33500   298.17414     -3240.1567     -3257.385       17.228288      8941.5306      10112.159    
     33600   317.00892     -3239.1381     -3257.4546      18.316549      9323.601       10112.159    
     33700   295.01927     -3239.352      -3256.398       17.046002      8909.3759      10112.159    
     33800   286.74936     -3239.7329     -3256.3011      16.568173      9209.9497      10112.159    
     33900   298.13818     -3240.7392     -3257.9654      17.226211      8554.4758      10112.159    
     34000   277.71798     -3241.8734     -3257.9198      16.046346      8790.6507      10112.159    
     34100   300.50761     -3240.8714     -3258.2345      17.363115      8540.1097      10112.159    
     34200   305.15415     -3239.9347     -3257.5663      17.631589      8749.404       10112.159    
     34300   290.16811     -3239.6073     -3256.373       16.765706      9219.886       10112.159    
     34400   295.49972     -3239.4898     -3256.5636      17.073763      8978.5638      10112.159    
     34500   298.89877     -3240.1504     -3257.4205      17.270157      9127.3461      10112.159    
     34600   289.96307     -3241.6071     -3258.361       16.753859      8324.638       10112.159    
     34700   278.92571     -3241.6302     -3257.7463      16.116128      8822.9057      10112.159    
     34800   290.96364     -3240.0333     -3256.845       16.811671      9020.0272      10112.159    
     34900   294.04249     -3239.6119     -3256.6015      16.989565      8985.2885      10112.159    
     35000   312.89408     -3239.4358     -3257.5146      18.078796      9067.7723      10112.159    
     35100   298.83563     -3239.8357     -3257.1022      17.266509      9053.7102      10112.159    
     35200   294.76597     -3240.5667     -3257.5981      17.031367      8691.4941      10112.159    
     35300   284.5186      -3241.2945     -3257.7337      16.439281      8715.2499      10112.159    
     35400   289.66769     -3240.8192     -3257.556       16.736792      8766.7552      10112.159    
     35500   300.3747      -3239.2345     -3256.5899      17.355435      9662.5012      10112.159    
     35600   314.03659     -3238.6663     -3256.8111      18.14481       9080.1313      10112.159    
     35700   298.9761      -3239.5014     -3256.776       17.274626      9201.2541      10112.159    
     35800   299.04738     -3240.1423     -3257.4211      17.278744      9139.2284      10112.159    
     35900   293.08788     -3240.4759     -3257.4104      16.934408      8792.586       10112.159    
     36000   297.15721     -3240.1031     -3257.2726      17.169531      9171.9326      10112.159    
     36100   295.86917     -3239.6539     -3256.7491      17.095109      8816.687       10112.159    
     36200   310.38152     -3239.2686     -3257.2022      17.933622      8852.4777      10112.159    
     36300   301.63136     -3239.7936     -3257.2217      17.428044      8804.0698      10112.159    
     36400   288.33036     -3241.1433     -3257.8028      16.659522      8282.6243      10112.159    
     36500   292.47468     -3241.2685     -3258.1675      16.898978      8956.6917      10112.159    
     36600   295.63664     -3239.8893     -3256.971       17.081674      8957.6038      10112.159    
     36700   302.4527      -3238.9063     -3256.3818      17.4755        9282.853       10112.159    
     36800   305.21006     -3239.209      -3256.8438      17.634819      9083.4048      10112.159    
     36900   289.17996     -3240.4506     -3257.1592      16.708611      8532.2598      10112.159    
     37000   304.35208     -3240.7314     -3258.3166      17.585246      8589.7236      10112.159    
     37100   295.44991     -3240.3413     -3257.4122      17.070884      9010.6013      10112.159    
     37200   291.82277     -3239.1212     -3255.9825      16.861311      9193.2488      10112.159    
     37300   313.49183     -3237.0167     -3255.13        18.113334      9586.0865      10112.159    
     37400   304.82631     -3237.9778     -3255.5904      17.612646      9187.632       10112.159    
     37500   313.2165      -3239.184      -3257.2814      18.097425      9196.7167      10112.159    
     37600   290.57093     -3240.5709     -3257.3599      16.78898       8591.2383      10112.159    
     37700   280.05687     -3240.7301     -3256.9116      16.181486      8919.768       10112.159    
     37800   304.63468     -3239.5407     -3257.1423      17.601574      9349.2088      10112.159    
     37900   294.99659     -3239.3612     -3256.4059      17.044692      9063.0259      10112.159    
     38000   316.9534      -3239.29       -3257.6033      18.313341      8838.5527      10112.159    
     38100   283.81879     -3240.3491     -3256.748       16.398847      8934.8753      10112.159    
     38200   281.23945     -3242.2788     -3258.5286      16.249814      8113.6711      10112.159    
     38300   281.00841     -3243.2603     -3259.4968      16.236465      8153.2371      10112.159    
     38400   277.99228     -3242.0204     -3258.0826      16.062195      8579.5724      10112.159    
     38500   286.36587     -3240.5923     -3257.1383      16.546015      8881.0951      10112.159    
     38600   308.50872     -3239.5012     -3257.3266      17.825413      8821.0548      10112.159    
     38700   309.15059     -3239.1307     -3256.9932      17.8625        9107.0881      10112.159    
     38800   304.33902     -3239.2131     -3256.7976      17.584491      9179.1837      10112.159    
     38900   288.34662     -3240.1409     -3256.8014      16.660461      8784.0545      10112.159    
     39000   288.05244     -3241.2598     -3257.9033      16.643464      8812.3882      10112.159    
     39100   295.09345     -3241.4443     -3258.4946      17.050288      8263.4047      10112.159    
     39200   304.23586     -3239.8604     -3257.439       17.57853       8983.8216      10112.159    
     39300   295.59114     -3238.3952     -3255.4742      17.079044      9445.6715      10112.159    
     39400   305.96184     -3238.8277     -3256.506       17.678256      9076.4272      10112.159    
     39500   307.91871     -3239.8415     -3257.6328      17.791323      8681.8601      10112.159    
     39600   285.80424     -3240.6883     -3257.2019      16.513565      8790.5995      10112.159    
     39700   298.09097     -3240.4611     -3257.6846      17.223483      8390.6907      10112.159    
     39800   308.06433     -3239.062      -3256.8617      17.799737      9297.1379      10112.159    
     39900   316.03975     -3237.6466     -3255.9071      18.260551      9315.7332      10112.159    
     40000   320.39883     -3238.268      -3256.7804      18.512415      9050.1477      10112.159    
     40100   290.98247     -3239.631      -3256.4437      16.812759      8999.0713      10112.159    
     40200   297.90941     -3239.9394     -3257.1524      17.212992      9098.7844      10112.159    
     40300   307.09432     -3239.8632     -3257.6068      17.74369       8619.2621      10112.159    
     40400   289.92119     -3240.01       -3256.7615      16.751439      8636.4549      10112.159    
     40500   304.9132      -3240.1802     -3257.7979      17.617666      8900.9031      10112.159    
     40600   285.3662      -3240.7033     -3257.1915      16.488255      8932.5494      10112.159    
     40700   290.02965     -3240.3656     -3257.1233      16.757706      8855.3071      10112.159    
     40800   313.76954     -3239.1521     -3257.2815      18.12938       8994.0151      10112.159    
     40900   309.61782     -3238.591      -3256.4805      17.889496      8958.0484      10112.159    
     41000   315.27147     -3238.5808     -3256.797       18.21616       9111.0861      10112.159    
     41100   299.66908     -3240.382      -3257.6966      17.314665      8310.2877      10112.159    
     41200   291.05321     -3240.995      -3257.8118      16.816846      8823.3791      10112.159    
     41300   298.90737     -3240.535      -3257.8056      17.270654      8717.8365      10112.159    
     41400   310.15224     -3239.0146     -3256.9349      17.920374      8641.5666      10112.159    
     41500   309.61338     -3238.7752     -3256.6644      17.889239      9463.9592      10112.159    
     41600   310.99952     -3239.0869     -3257.0563      17.96933       8973.3309      10112.159    
     41700   289.01912     -3239.9406     -3256.6399      16.699318      8907.292       10112.159    
     41800   297.11155     -3240.4527     -3257.6196      17.166893      8611.2932      10112.159    
     41900   286.1684      -3241.0643     -3257.5989      16.534606      8549.8102      10112.159    
     42000   283.38664     -3242.1127     -3258.4865      16.373877      8394.0828      10112.159    
     42100   289.24323     -3241.8229     -3258.5352      16.712267      8289.7103      10112.159    
     42200   291.24948     -3240.1592     -3256.9874      16.828187      8851.5323      10112.159    
     42300   298.68272     -3239.2802     -3256.5379      17.257674      8960.84        10112.159    
     42400   309.47024     -3239.0915     -3256.9725      17.880969      9135.9403      10112.159    
     42500   296.80394     -3240.0741     -3257.2232      17.149119      8945.7302      10112.159    
     42600   296.83591     -3240.9996     -3258.1506      17.150967      8845.9293      10112.159    
     42700   284.07227     -3241.389      -3257.8025      16.413493      8662.9561      10112.159    
     42800   293.29481     -3240.1302     -3257.0765      16.946364      8574.3704      10112.159    
     42900   313.75816     -3238.8024     -3256.9311      18.128722      9192.8324      10112.159    
     43000   310.62512     -3239.0892     -3257.0369      17.947697      8994.3511      10112.159    
     43100   294.26458     -3240.1243     -3257.1267      17.002397      9059.2279      10112.159    
     43200   288.4937      -3240.9936     -3257.6626      16.66896       8849.7433      10112.159    
     43300   284.61769     -3241.4031     -3257.8481      16.445007      8614.9469      10112.159    
     43400   306.39382     -3239.9581     -3257.6613      17.703216      8927.1221      10112.159    
     43500   317.56925     -3238.7068     -3257.0557      18.348924      9020.3742      10112.159    
     43600   316.57668     -3238.8167     -3257.1082      18.291574      8945.1979      10112.159    
     43700   273.36182     -3240.2975     -3256.0921      15.794651      9268.284       10112.159    
     43800   312.85396     -3240.1541     -3258.2306      18.076478      8746.0277      10112.159    
     43900   292.34319     -3240.4692     -3257.3605      16.89138       8774.5174      10112.159    
     44000   305.83418     -3239.9256     -3257.5965      17.67088       8966.7944      10112.159    
     44100   317.25794     -3238.0059     -3256.3368      18.330937      9481.7611      10112.159    
     44200   311.46252     -3237.7523     -3255.7483      17.996081      9207.3827      10112.159    
     44300   317.73387     -3238.6484     -3257.0068      18.358436      8965.0625      10112.159    
     44400   302.01905     -3239.4585     -3256.9089      17.450445      8740.4497      10112.159    
     44500   305.96006     -3240.0657     -3257.7438      17.678154      8924.3427      10112.159    
     44600   290.32202     -3240.7889     -3257.5635      16.774599      8554.3643      10112.159    
     44700   282.06584     -3240.5577     -3256.8553      16.297563      8937.5686      10112.159    
     44800   315.16105     -3238.7692     -3256.979       18.20978       9095.7999      10112.159    
     44900   307.00563     -3238.5651     -3256.3037      17.738565      9164.176       10112.159    
     45000   302.5293      -3239.4007     -3256.8807      17.479926      9199.6677      10112.159    
     45100   303.86831     -3240.3676     -3257.9249      17.557293      9071.4537      10112.159    
     45200   277.76492     -3240.6358     -3256.6849      16.049059      8796.573       10112.159    
     45300   312.90553     -3239.7573     -3257.8367      18.079458      8705.3133      10112.159    
     45400   311.97078     -3239.6335     -3257.659       18.025449      9068.0199      10112.159    
     45500   295.02909     -3240.194      -3257.2406      17.04657       8972.0984      10112.159    
     45600   289.1134      -3241.1988     -3257.9036      16.704765      8309.8778      10112.159    
     45700   284.5122      -3241.7914     -3258.2303      16.438911      8721.7811      10112.159    
     45800   308.9025      -3240.496      -3258.3442      17.848166      8934.7568      10112.159    
     45900   287.71585     -3239.6898     -3256.3138      16.624016      9130.6758      10112.159    
     46000   306.93248     -3239.3217     -3257.0561      17.734339      9175.703       10112.159    
     46100   287.64796     -3239.7921     -3256.4122      16.620094      9119.7643      10112.159    
     46200   319.96929     -3239.8398     -3258.3274      18.487597      8949.4694      10112.159    
     46300   294.08151     -3240.8002     -3257.792       16.991819      8688.8828      10112.159    
     46400   290.46622     -3240.963      -3257.7459      16.782931      8822.6926      10112.159    
     46500   293.87477     -3240.3934     -3257.3733      16.979874      8955.9094      10112.159    
     46600   310.16272     -3239.1394     -3257.0604      17.92098       9266.5029      10112.159    
     46700   312.78602     -3238.2001     -3256.2726      18.072553      9468.8296      10112.159    
     46800   299.52773     -3238.9152     -3256.2217      17.306498      9292.6966      10112.159    
     46900   306.31962     -3239.402      -3257.1009      17.698929      9114.4416      10112.159    
     47000   300.84654     -3240.0152     -3257.3979      17.382698      8855.3749      10112.159    
     47100   292.11137     -3240.5236     -3257.4016      16.877986      9010.7437      10112.159    
     47200   288.15829     -3240.4736     -3257.1231      16.64958       9071.9574      10112.159    
     47300   302.64619     -3239.0308     -3256.5175      17.48668       9074.9908      10112.159    
     47400   322.66143     -3238.0176     -3256.6607      18.643147      9254.9997      10112.159    
     47500   316.14644     -3238.9317     -3257.1984      18.266715      9264.9368      10112.159    
     47600   288.22305     -3240.016      -3256.6693      16.653321      8991.2224      10112.159    
     47700   301.08442     -3240.1981     -3257.5945      17.396443      9135.1494      10112.159    
     47800   297.95187     -3240.4826     -3257.6981      17.215446      8574.796       10112.159    
     47900   313.62578     -3239.7818     -3257.9028      18.121073      8608.8344      10112.159    
     48000   312.69212     -3238.087      -3256.1541      18.067127      9735.292       10112.159    
     48100   298.16991     -3238.4324     -3255.6605      17.228044      9711.7079      10112.159    
     48200   320.55373     -3239.1722     -3257.6936      18.521366      9002.1798      10112.159    
     48300   300.46482     -3239.9911     -3257.3518      17.360642      9219.7388      10112.159    
     48400   301.55579     -3240.0534     -3257.4771      17.423678      8766.8802      10112.159    
     48500   289.41239     -3239.8948     -3256.6168      16.722041      9299.7527      10112.159    
     48600   310.21708     -3238.5925     -3256.5166      17.924121      9071.3655      10112.159    
     48700   328.20938     -3237.6581     -3256.6218      18.963704      9402.4562      10112.159    
     48800   314.50019     -3239.147      -3257.3186      18.171596      9064.6656      10112.159    
     48900   287.02764     -3240.2683     -3256.8526      16.584252      8924.1683      10112.159    
     49000   296.24608     -3239.9792     -3257.0961      17.116886      9307.7335      10112.159    
     49100   305.03736     -3239.5407     -3257.1655      17.62484       9255.9197      10112.159    
     49200   303.20665     -3239.4441     -3256.9631      17.519064      8865.9096      10112.159    
     49300   299.50935     -3239.7353     -3257.0408      17.305436      9136.4737      10112.159    
     49400   271.43444     -3240.7972     -3256.4805      15.683288      8928.3972      10112.159    
     49500   298.59807     -3240.8874     -3258.1401      17.252783      8889.007       10112.159    
     49600   309.47539     -3240.1155     -3257.9967      17.881267      8769.1656      10112.159    
     49700   315.66734     -3238.562      -3256.801       18.239033      9382.3637      10112.159    
     49800   284.84223     -3238.6604     -3255.1184      16.45798       9751.55        10112.159    
     49900   311.37013     -3239.2003     -3257.1911      17.990744      8765.7659      10112.159    
     50000   320.54618     -3239.6842     -3258.2051      18.520929      9086.1039      10112.159    
     50100   294.01693     -3240.2081     -3257.1962      16.988088      9161.5001      10112.159    
     50200   296.90658     -3240.1222     -3257.2773      17.15505       9090.2975      10112.159    
     50300   299.46698     -3239.4991     -3256.802       17.302988      9204.1509      10112.159    
     50400   317.56246     -3238.0942     -3256.4427      18.348532      9413.2117      10112.159    
     50500   307.38337     -3238.045      -3255.8054      17.760391      9371.373       10112.159    
     50600   305.70927     -3239.6223     -3257.286       17.663663      9196.7268      10112.159    
     50700   283.90708     -3240.7007     -3257.1047      16.403948      9022.857       10112.159    
     50800   302.14126     -3240.3499     -3257.8074      17.457506      8960.396       10112.159    
     50900   315.31785     -3239.3615     -3257.5803      18.21884       8917.0129      10112.159    
     51000   299.92765     -3238.9523     -3256.2819      17.329605      9330.857       10112.159    
     51100   290.38632     -3239.7551     -3256.5334      16.778314      9172.7089      10112.159    
     51200   301.52084     -3241.2784     -3258.7         17.421658      8690.0033      10112.159    
     51300   276.46735     -3241.7934     -3257.7675      15.974086      8674.1223      10112.159    
     51400   286.4229      -3241.029      -3257.5783      16.54931       8771.8401      10112.159    
     51500   302.80043     -3240.0683     -3257.5639      17.495592      8964.1316      10112.159    
     51600   296.04249     -3239.4601     -3256.5652      17.105123      9245.8927      10112.159    
     51700   315.36921     -3238.5475     -3256.7693      18.221807      9360.2975      10112.159    
     51800   299.69661     -3239.1957     -3256.512       17.316256      9323.0959      10112.159    
     51900   295.29671     -3240.828      -3257.8901      17.062032      8574.2907      10112.159    
     52000   303.13009     -3240.9387     -3258.4533      17.51464       8672.5475      10112.159    
     52100   294.99423     -3240.2602     -3257.3047      17.044556      9007.3404      10112.159    
     52200   297.09455     -3239.282      -3256.4479      17.16591       9309.9525      10112.159    
     52300   307.7116      -3239.2242     -3257.0035      17.779356      9127.6607      10112.159    
     52400   308.51864     -3239.6586     -3257.4846      17.825986      8758.9316      10112.159    
     52500   298.44826     -3240.445      -3257.6892      17.244127      8963.1741      10112.159    
     52600   274.29981     -3241.5677     -3257.4165      15.848847      8833.1758      10112.159    
     52700   286.10511     -3242.7054     -3259.2364      16.530949      8349.6508      10112.159    
     52800   277.03753     -3242.3032     -3258.3102      16.00703       8739.8018      10112.159    
     52900   281.79638     -3240.6132     -3256.8952      16.281993      8899.5135      10112.159    
     53000   311.21002     -3239.7182     -3257.6997      17.981492      8770.1519      10112.159    
     53100   304.2561      -3239.3719     -3256.9516      17.5797        9043.4794      10112.159    
     53200   304.90506     -3238.8846     -3256.5018      17.617196      8998.127       10112.159    
     53300   303.98704     -3239.353      -3256.9172      17.564154      9067.2358      10112.159    
     53400   294.86401     -3240.8669     -3257.9039      17.037032      8635.6709      10112.159    
     53500   284.65781     -3241.2205     -3257.6679      16.447325      8662.271       10112.159    
     53600   299.33107     -3240.3344     -3257.6295      17.295135      8748.2935      10112.159    
     53700   303.32614     -3239.2374     -3256.7634      17.525968      8878.7836      10112.159    
     53800   320.74049     -3237.8732     -3256.4054      18.532156      9197.234       10112.159    
     53900   339.41676     -3235.9375     -3255.5487      19.611257      9657.0763      10112.159    
     54000   302.23067     -3237.8578     -3255.3205      17.462672      9733.7626      10112.159    
     54100   323.99063     -3239.0071     -3257.727       18.719947      9098.8225      10112.159    
     54200   279.02316     -3240.6377     -3256.7594      16.121759      8939.6301      10112.159    
     54300   290.80058     -3240.7357     -3257.5379      16.802249      8722.4764      10112.159    
     54400   299.47199     -3240.0344     -3257.3377      17.303277      9170.1877      10112.159    
     54500   305.21918     -3238.7922     -3256.4275      17.635346      9279.2323      10112.159    
     54600   313.1389      -3238.7343     -3256.8272      18.092942      9238.941       10112.159    
     54700   293.5694      -3239.4303     -3256.3925      16.96223       9226.67        10112.159    
     54800   312.22752     -3239.6052     -3257.6455      18.040283      8715.3466      10112.159    
     54900   296.92907     -3240.3295     -3257.4858      17.156349      8613.9056      10112.159    
     55000   303.50998     -3240.2829     -3257.8195      17.53659       9051.3131      10112.159    
     55100   286.90136     -3239.9159     -3256.4928      16.576956      9288.707       10112.159    
     55200   319.33614     -3238.0737     -3256.5247      18.451014      9425.8783      10112.159    
     55300   317.14235     -3238.0773     -3256.4016      18.324258      9285.294       10112.159    
     55400   299.9465      -3238.8376     -3256.1683      17.330694      9227.1036      10112.159    
     55500   315.44055     -3239.6517     -3257.8777      18.22593       8541.9713      10112.159    
     55600   295.64329     -3240.5188     -3257.6009      17.082058      8933.5781      10112.159    
     55700   281.03316     -3240.4537     -3256.6915      16.237895      8926.4358      10112.159    
     55800   290.36568     -3239.5875     -3256.3646      16.777121      9032.6442      10112.159    
     55900   327.34851     -3237.7574     -3256.6713      18.913963      9245.8231      10112.159    
     56000   321.10831     -3237.7518     -3256.3052      18.553408      9531.1316      10112.159    
     56100   318.66897     -3238.7175     -3257.1299      18.412465      8849.2938      10112.159    
     56200   294.3882      -3239.5266     -3256.5361      17.009539      9099.2799      10112.159    
     56300   295.19737     -3240.1844     -3257.2407      17.056293      8987.6402      10112.159    
     56400   294.78622     -3240.6348     -3257.6674      17.032537      8762.3326      10112.159    
     56500   308.82364     -3240.1808     -3258.0244      17.843609      8771.0084      10112.159    
     56600   312.33221     -3238.8223     -3256.8687      18.046332      9116.8446      10112.159    
     56700   305.97739     -3238.0708     -3255.75        17.679155      9552.6798      10112.159    
     56800   304.20323     -3238.9527     -3256.5294      17.576645      9103.0148      10112.159    
     56900   299.69631     -3240.2175     -3257.5337      17.316238      8838.6631      10112.159    
     57000   309.89587     -3240.2421     -3258.1476      17.905562      8665.4685      10112.159    
     57100   287.33616     -3240.6418     -3257.2439      16.602078      8953.3542      10112.159    
     57200   295.26879     -3240.0483     -3257.1087      17.06042       9021.9921      10112.159    
     57300   305.09262     -3238.6789     -3256.3069      17.628033      9328.8191      10112.159    
     57400   311.07679     -3238.7955     -3256.7693      17.973794      9037.0362      10112.159    
     57500   315.75537     -3239.6771     -3257.9212      18.244119      8641.898       10112.159    
     57600   285.5086      -3240.8434     -3257.3399      16.496482      8809.8862      10112.159    
     57700   294.50141     -3240.5737     -3257.5898      17.016081      8839.9624      10112.159    
     57800   290.73487     -3240.2894     -3257.0878      16.798453      9107.9406      10112.159    
     57900   313.23842     -3239.3293     -3257.428       18.098692      8804.5565      10112.159    
     58000   301.47955     -3238.8351     -3256.2544      17.419273      9203.9521      10112.159    
     58100   302.76251     -3239.3795     -3256.8729      17.493401      9198.9954      10112.159    
     58200   307.62032     -3241.0375     -3258.8116      17.774082      8535.3844      10112.159    
     58300   275.45706     -3241.4976     -3257.4133      15.915712      8684.436       10112.159    
     58400   283.94535     -3240.7108     -3257.117       16.406159      8922.0987      10112.159    
     58500   320.09661     -3239.8539     -3258.3488      18.494953      9127.9982      10112.159    
     58600   280.43804     -3239.8402     -3256.0437      16.20351       8823.4631      10112.159    
     58700   315.94772     -3239.1344     -3257.3896      18.255233      9230.586       10112.159    
     58800   303.35904     -3239.4282     -3256.9561      17.527868      9078.4323      10112.159    
     58900   288.82361     -3239.7933     -3256.4813      16.688021      8987.0037      10112.159    
     59000   308.98796     -3240.1287     -3257.9819      17.853103      8688.3764      10112.159    
     59100   290.65632     -3240.2603     -3257.0543      16.793914      9150.8952      10112.159    
     59200   312.76085     -3239.6198     -3257.6909      18.071098      8915.9286      10112.159    
     59300   285.31306     -3239.9234     -3256.4086      16.485185      9012.4422      10112.159    
     59400   304.56249     -3239.5521     -3257.1495      17.597403      8920.6958      10112.159    
     59500   299.7346      -3239.7025     -3257.021       17.318451      9101.9665      10112.159    
     59600   300.88645     -3239.7082     -3257.0932      17.385004      9033.0254      10112.159    
     59700   302.41307     -3239.7746     -3257.2478      17.473211      9025.3983      10112.159    
     59800   289.53988     -3240.4393     -3257.1687      16.729407      8729.6738      10112.159    
     59900   292.60695     -3241.2397     -3258.1463      16.90662       8510.4299      10112.159    
     60000   296.61735     -3241.5451     -3258.6835      17.138338      8407.6009      10112.159    
     60100   280.2143      -3240.4891     -3256.6797      16.190582      9150.9558      10112.159    
     60200   309.91428     -3239.1055     -3257.0121      17.906626      9349.3328      10112.159    
     60300   300.64881     -3239.1944     -3256.5657      17.371273      8871.6378      10112.159    
     60400   307.42843     -3239.6806     -3257.4436      17.762995      8849.3503      10112.159    
     60500   278.12764     -3241.1962     -3257.2662      16.070016      8828.4228      10112.159    
     60600   293.63181     -3241.0213     -3257.9872      16.965836      8740.9091      10112.159    
     60700   307.36526     -3240.2774     -3258.0368      17.759345      8683.7585      10112.159    
     60800   287.57989     -3240.1055     -3256.7217      16.61616       8881.7223      10112.159    
     60900   318.3071      -3239.6004     -3257.992       18.391557      8742.8371      10112.159    
     61000   291.56444     -3239.9115     -3256.7579      16.846385      8667.0879      10112.159    
     61100   292.22094     -3239.866      -3256.7503      16.884317      9247.1592      10112.159    
     61200   300.14713     -3239.5603     -3256.9025      17.342287      8818.7703      10112.159    
     61300   314.03943     -3239.1958     -3257.3408      18.144973      9288.7993      10112.159    
     61400   295.98181     -3239.8214     -3256.923       17.101617      8811.3529      10112.159    
     61500   286.84384     -3240.5073     -3257.0809      16.573632      8709.5927      10112.159    
     61600   301.72285     -3240.4615     -3257.8949      17.433331      8876.0472      10112.159    
     61700   293.29013     -3240.2262     -3257.1722      16.946094      8930.8652      10112.159    
     61800   319.56335     -3238.8838     -3257.3479      18.464142      8806.5145      10112.159    
     61900   303.66269     -3238.8783     -3256.4237      17.545413      9432.1326      10112.159    
     62000   292.75763     -3240.1111     -3257.0265      16.915326      8820.378       10112.159    
     62100   290.82647     -3241.1429     -3257.9467      16.803746      8361.9783      10112.159    
     62200   311.56168     -3240.616      -3258.6178      18.001811      8393.3843      10112.159    
     62300   285.68275     -3240.2356     -3256.7422      16.506545      8888.4182      10112.159    
     62400   307.71262     -3239.5635     -3257.3429      17.779415      9312.2387      10112.159    
     62500   288.46387     -3239.9052     -3256.5725      16.667236      8991.9335      10112.159    
     62600   332.84142     -3239.365      -3258.5963      19.231339      8695.1334      10112.159    
     62700   287.6028      -3238.921      -3255.5385      16.617484      9409.0147      10112.159    
     62800   309.78488     -3238.4534     -3256.3526      17.899149      9315.6442      10112.159    
     62900   303.97445     -3239.3275     -3256.8909      17.563426      9072.1446      10112.159    
     63000   309.28771     -3240.4059     -3258.2763      17.870423      8862.6156      10112.159    
     63100   272.04092     -3241.349      -3257.0674      15.71833       9005.1207      10112.159    
     63200   302.46263     -3240.6199     -3258.0959      17.476075      8657.2932      10112.159    
     63300   288.28045     -3240.2795     -3256.9361      16.656638      8753.8033      10112.159    
     63400   300.36365     -3239.8217     -3257.1765      17.354797      8852.0363      10112.159    
     63500   312.58415     -3239.345      -3257.4059      18.060889      9050.174       10112.159    
     63600   294.49439     -3239.8637     -3256.8794      17.015675      9060.9583      10112.159    
     63700   283.15069     -3241.3842     -3257.7444      16.360244      8586.4443      10112.159    
     63800   285.80277     -3242.7624     -3259.2759      16.51348       8203.2534      10112.159    
     63900   284.25696     -3242.2088     -3258.633       16.424164      8492.5671      10112.159    
     64000   289.33501     -3240.4358     -3257.1534      16.71757       9013.7401      10112.159    
     64100   288.9421      -3239.7198     -3256.4147      16.694868      9149.7782      10112.159    
     64200   322.97114     -3238.5775     -3257.2386      18.661042      8923.4667      10112.159    
     64300   304.54555     -3238.9871     -3256.5836      17.596424      9000.8611      10112.159    
     64400   295.79486     -3240.249      -3257.3398      17.090815      8789.8013      10112.159    
     64500   298.11439     -3240.8053     -3258.0302      17.224836      8573.4916      10112.159    
     64600   292.53297     -3240.5095     -3257.4119      16.902346      8680.9859      10112.159    
     64700   303.89281     -3239.5043     -3257.063       17.558709      9255.1012      10112.159    
     64800   306.29616     -3239.4911     -3257.1887      17.697573      8971.5258      10112.159    
     64900   299.24083     -3239.8357     -3257.1256      17.289921      8954.322       10112.159    
     65000   303.56518     -3240.0174     -3257.5571      17.539779      8773.0422      10112.159    
     65100   288.29478     -3240.1245     -3256.782       16.657466      8935.6613      10112.159    
     65200   310.74275     -3239.6374     -3257.5919      17.954494      9054.6054      10112.159    
     65300   288.90974     -3239.7431     -3256.4361      16.692998      8947.388       10112.159    
     65400   317.0716      -3239.0067     -3257.3269      18.32017       9179.6074      10112.159    
     65500   308.36763     -3239.5164     -3257.3337      17.817261      8845.9259      10112.159    
     65600   286.45721     -3240.8475     -3257.3988      16.551293      8402.6416      10112.159    
     65700   278.66546     -3241.2854     -3257.3865      16.101091      9070.9072      10112.159    
     65800   305.22218     -3240.1408     -3257.7763      17.635519      8541.2526      10112.159    
     65900   329.20438     -3238.1653     -3257.1865      19.021193      9070.383       10112.159    
     66000   307.1875      -3238.6785     -3256.4275      17.749074      9230.1833      10112.159    
     66100   292.4778      -3239.9512     -3256.8503      16.899158      8932.6866      10112.159    
     66200   293.74941     -3240.5423     -3257.5149      16.972631      8675.6579      10112.159    
     66300   295.16114     -3240.5898     -3257.644       17.054199      8662.3371      10112.159    
     66400   300.77425     -3239.9204     -3257.2989      17.378521      8772.3358      10112.159    
     66500   314.13215     -3238.3658     -3256.5161      18.150331      9353.3484      10112.159    
     66600   314.83085     -3238.359      -3256.5497      18.190701      9225.408       10112.159    
     66700   298.45941     -3239.5272     -3256.7719      17.244771      9092.4904      10112.159    
     66800   303.77943     -3240.3207     -3257.8729      17.552158      8718.3963      10112.159    
     66900   290.83228     -3240.4625     -3257.2665      16.804081      8853.7715      10112.159    
     67000   299.21801     -3240.194      -3257.4826      17.288603      8455.4348      10112.159    
     67100   299.98114     -3239.8042     -3257.1369      17.332696      8849.6008      10112.159    
     67200   317.10699     -3238.0892     -3256.4114      18.322215      9327.4912      10112.159    
     67300   311.70225     -3238.0335     -3256.0434      18.009933      9260.0348      10112.159    
     67400   314.72837     -3239.0868     -3257.2716      18.18478       8973.9301      10112.159    
     67500   292.40892     -3239.7757     -3256.6709      16.895178      8819.4788      10112.159    
     67600   312.5087      -3239.7405     -3257.7971      18.056529      8904.9957      10112.159    
     67700   287.63749     -3240.5991     -3257.2186      16.619489      9221.08        10112.159    
     67800   273.40926     -3241.6176     -3257.415       15.797392      8433.1278      10112.159    
     67900   300.26895     -3241.7187     -3259.068       17.349325      8523.9572      10112.159    
     68000   286.81453     -3240.7451     -3257.3171      16.571939      8643.9209      10112.159    
     68100   308.67145     -3239.2651     -3257.0999      17.834816      9332.9997      10112.159    
     68200   293.85855     -3239.2996     -3256.2785      16.978937      9126.1504      10112.159    
     68300   314.73959     -3239.4796     -3257.665       18.185428      8507.3304      10112.159    
     68400   289.05461     -3240.6053     -3257.3067      16.701369      9028.3653      10112.159    
     68500   285.2871      -3241.3205     -3257.8042      16.483685      8660.4068      10112.159    
     68600   283.18125     -3241.5603     -3257.9223      16.36201       8815.8731      10112.159    
     68700   311.05139     -3240.22       -3258.1923      17.972327      8607.8766      10112.159    
     68800   309.79973     -3238.9372     -3256.8373      17.900007      9316.3375      10112.159    
     68900   303.04026     -3238.8598     -3256.3693      17.50945       9127.3395      10112.159    
     69000   292.41061     -3239.8709     -3256.7662      16.895276      9163.8739      10112.159    
     69100   297.48621     -3240.3575     -3257.546       17.18854       8823.8968      10112.159    
     69200   297.21102     -3240.4881     -3257.6608      17.17264       8587.5502      10112.159    
     69300   299.08711     -3240.587      -3257.868       17.281039      8687.054       10112.159    
     69400   292.2717      -3240.2418     -3257.129       16.88725       8967.5285      10112.159    
     69500   285.22552     -3239.6948     -3256.1749      16.480126      8932.2385      10112.159    
     69600   327.51539     -3238.7138     -3257.6375      18.923605      9273.2962      10112.159    
     69700   309.05724     -3239.1078     -3256.9649      17.857106      8899.3936      10112.159    
     69800   293.70017     -3240.4602     -3257.43        16.969786      8843.5692      10112.159    
     69900   288.31104     -3241.2532     -3257.9116      16.658405      8885.0853      10112.159    
     70000   289.27814     -3240.9475     -3257.6618      16.714284      8819.6516      10112.159    
     70100   294.9129      -3240.2174     -3257.2573      17.039857      8964.5367      10112.159    
     70200   309.07875     -3239.7141     -3257.5725      17.858349      8805.0341      10112.159    
     70300   305.19347     -3239.6245     -3257.2583      17.63386       9179.0491      10112.159    
     70400   295.22635     -3239.8448     -3256.9028      17.057967      8945.262       10112.159    
     70500   295.85775     -3240.3461     -3257.4406      17.094449      9125.2262      10112.159    
     70600   285.75139     -3241.4986     -3258.0091      16.510511      8697.8095      10112.159    
     70700   294.32075     -3241.5763     -3258.5819      17.005642      8314.2327      10112.159    
     70800   288.44451     -3240.2215     -3256.8876      16.666117      8866.772       10112.159    
     70900   301.0888      -3239.3016     -3256.6983      17.396696      9156.5331      10112.159    
     71000   308.55401     -3239.301      -3257.129       17.82803       8989.2743      10112.159    
     71100   281.03106     -3240.3078     -3256.5456      16.237774      9152.3788      10112.159    
     71200   309.12456     -3240.5715     -3258.4325      17.860996      8603.6875      10112.159    
     71300   307.2235      -3240.6482     -3258.3994      17.751154      8346.6801      10112.159    
     71400   283.59082     -3240.2576     -3256.6433      16.385675      9125.5168      10112.159    
     71500   302.16289     -3239.2098     -3256.6686      17.458756      9332.0985      10112.159    
     71600   312.55329     -3238.8244     -3256.8835      18.059106      9050.69        10112.159    
     71700   306.68974     -3239.2416     -3256.9619      17.720314      9240.3035      10112.159    
     71800   295.57117     -3240.9062     -3257.9841      17.077891      8940.0738      10112.159    
     71900   289.03047     -3241.1648     -3257.8648      16.699974      8733.3636      10112.159    
     72000   291.33314     -3240.4874     -3257.3204      16.83302       8930.9971      10112.159    
     72100   304.73894     -3239.6453     -3257.2529      17.607598      9194.3394      10112.159    
     72200   310.05321     -3238.747      -3256.6617      17.914653      9450.4208      10112.159    
     72300   330.32512     -3236.738      -3255.8239      19.085949      9500.6813      10112.159    
     72400   318.51503     -3237.0608     -3255.4644      18.403571      9602.6056      10112.159    
     72500   310.53376     -3238.2681     -3256.2105      17.942419      9266.0258      10112.159    
     72600   304.97656     -3239.3813     -3257.0026      17.621327      9147.2817      10112.159    
     72700   307.79159     -3240.429      -3258.2129      17.783978      8575.0723      10112.159    
     72800   281.5852      -3241.075      -3257.3448      16.269792      8862.9177      10112.159    
     72900   296.29528     -3240.2184     -3257.3381      17.119729      8720.9574      10112.159    
     73000   311.40588     -3238.9121     -3256.9049      17.992809      8930.6602      10112.159    
     73100   293.17724     -3239.1008     -3256.0404      16.939571      9563.6907      10112.159    
     73200   311.93775     -3239.1825     -3257.206       18.02354       9044.6171      10112.159    
     73300   292.76257     -3240.2043     -3257.1199      16.915612      8839.8695      10112.159    
     73400   293.91208     -3240.8273     -3257.8094      16.98203       8840.2205      10112.159    
     73500   299.96717     -3240.6135     -3257.9454      17.331888      8926.9343      10112.159    
     73600   308.64714     -3238.8625     -3256.6959      17.833411      9196.2976      10112.159    
     73700   310.05742     -3238.197      -3256.1119      17.914896      9559.4501      10112.159    
     73800   305.14292     -3239.0743     -3256.7052      17.63094       9063.0471      10112.159    
     73900   292.07823     -3240.2277     -3257.1038      16.876071      8717.3102      10112.159    
     74000   292.77512     -3240.4174     -3257.3337      16.916337      8878.1721      10112.159    
     74100   291.12991     -3240.3694     -3257.1906      16.821278      9045.838       10112.159    
     74200   315.90824     -3239.2228     -3257.4757      18.252952      8891.9379      10112.159    
     74300   327.67062     -3237.6104     -3256.5429      18.932574      9254.0966      10112.159    
     74400   297.78563     -3238.3075     -3255.5133      17.205841      9512.1878      10112.159    
     74500   322.24658     -3239.0125     -3257.6317      18.619177      9102.2435      10112.159    
     74600   297.38727     -3240.0305     -3257.2133      17.182824      9175.6292      10112.159    
     74700   296.42208     -3240.4004     -3257.5274      17.127056      9061.4802      10112.159    
     74800   302.71982     -3240.4428     -3257.9337      17.490934      8716.1695      10112.159    
     74900   300.74266     -3239.5017     -3256.8784      17.376696      9204.9386      10112.159    
     75000   298.91993     -3238.3633     -3255.6347      17.27138       9559.9472      10112.159    
     75100   333.41534     -3238.2348     -3257.4993      19.2645        9148.7562      10112.159    
     75200   303.17287     -3239.8942     -3257.4113      17.517111      8801.8344      10112.159    
     75300   293.51375     -3240.4177     -3257.3767      16.959014      8685.5757      10112.159    
     75400   291.36133     -3240.0913     -3256.9259      16.834649      9029.8162      10112.159    
[...]
    281800   286.99086     -3241.0151     -3257.5972      16.582126      8650.9824      10112.159    
    281900   282.69955     -3240.9603     -3257.2945      16.334178      8967.6154      10112.159    
    282000   313.81511     -3239.3183     -3257.4503      18.132012      8691.4722      10112.159    
    282100   306.14767     -3238.9971     -3256.686       17.688994      9024.1026      10112.159    
    282200   291.90618     -3239.8504     -3256.7166      16.86613       9188.5248      10112.159    
    282300   286.49927     -3240.4988     -3257.0525      16.553723      9333.9186      10112.159    
    282400   289.1409      -3240.2367     -3256.9431      16.706354      9367.0898      10112.159    
    282500   326.21352     -3238.9434     -3257.7918      18.848384      8927.9331      10112.159    
    282600   332.27748     -3237.0345     -3256.2333      19.198755      9741.9924      10112.159    
    282700   316.15068     -3237.1235     -3255.3905      18.26696       9862.1249      10112.159    
    282800   302.40029     -3238.4504     -3255.9229      17.472472      9619.9352      10112.159    
    282900   303.80362     -3239.695      -3257.2486      17.553556      9033.0816      10112.159    
    283000   291.1558      -3240.3013     -3257.1241      16.822774      8736.2297      10112.159    
    283100   311.94306     -3240.1513     -3258.1751      18.023847      8957.8172      10112.159    
    283200   285.48884     -3240.7099     -3257.2053      16.495341      9328.7315      10112.159    
    283300   286.53201     -3240.6451     -3257.2007      16.555614      9472.0309      10112.159    
    283400   296.90419     -3239.7156     -3256.8705      17.154912      8937.3931      10112.159    
    283500   328.41731     -3238.5619     -3257.5376      18.975717      9404.7887      10112.159    
    283600   310.69786     -3239.0602     -3257.0121      17.9519        9054.9761      10112.159    
    283700   287.06207     -3240.3725     -3256.9588      16.586241      8887.4501      10112.159    
    283800   292.09513     -3240.7482     -3257.6252      16.877048      8900.5852      10112.159    
    283900   290.63084     -3240.3674     -3257.1599      16.792442      8643.1268      10112.159    
    284000   310.17581     -3239.8136     -3257.7353      17.921737      9040.9519      10112.159    
    284100   274.84256     -3239.9439     -3255.8241      15.880206      9432.5671      10112.159    
    284200   321.39525     -3238.5121     -3257.0821      18.569988      9058.0577      10112.159    
    284300   316.56818     -3238.5734     -3256.8645      18.291083      9032.9833      10112.159    
    284400   282.55534     -3240.519      -3256.8448      16.325845      8888.3542      10112.159    
    284500   298.85652     -3241.0261     -3258.2938      17.267716      8596.6261      10112.159    
    284600   293.16216     -3240.8707     -3257.8094      16.9387        8738.3017      10112.159    
    284700   303.19408     -3239.4524     -3256.9707      17.518337      8946.1035      10112.159    
    284800   313.6173      -3239.0688     -3257.1894      18.120583      9179.7721      10112.159    
    284900   287.4118      -3239.5648     -3256.1713      16.606448      9245.5056      10112.159    
    285000   308.09981     -3239.9268     -3257.7286      17.801786      8930.3896      10112.159    
    285100   299.94997     -3240.5013     -3257.8322      17.330895      8490.1091      10112.159    
    285200   303.83554     -3240.3533     -3257.9087      17.5554        8708.3408      10112.159    
    285300   294.11802     -3239.9312     -3256.9252      16.993929      9012.0554      10112.159    
    285400   305.84325     -3238.9238     -3256.5952      17.671404      8799.0837      10112.159    
    285500   302.21861     -3238.9992     -3256.4612      17.461975      9009.0946      10112.159    
    285600   302.06398     -3240.017      -3257.4701      17.453041      8746.9912      10112.159    
    285700   287.9551      -3241.051      -3257.6889      16.63784       8854.8297      10112.159    
    285800   283.49328     -3241.1854     -3257.5655      16.380039      8902.1569      10112.159    
    285900   313.50725     -3239.3284     -3257.4426      18.114225      9011.208       10112.159    
    286000   334.42528     -3238.2543     -3257.5772      19.322853      8949.1413      10112.159    
    286100   290.05524     -3238.8111     -3255.5703      16.759184      8936.3128      10112.159    
    286200   299.66023     -3239.9326     -3257.2468      17.314154      9108.5201      10112.159    
    286300   290.72196     -3240.3874     -3257.1851      16.797707      8793.1834      10112.159    
    286400   319.026       -3239.7293     -3258.1624      18.433094      8680.2135      10112.159    
    286500   293.95206     -3239.9356     -3256.92        16.98434       8967.4201      10112.159    
    286600   292.00221     -3240.1792     -3257.0508      16.871679      9077.7594      10112.159    
    286700   296.07135     -3240.7952     -3257.902       17.106791      8828.2983      10112.159    
    286800   288.5087      -3240.9794     -3257.6493      16.669826      8629.3519      10112.159    
    286900   304.88385     -3239.8989     -3257.5148      17.615971      8746.8474      10112.159    
    287000   300.85602     -3238.7732     -3256.1565      17.383245      9607.1077      10112.159    
    287100   323.20162     -3238.3601     -3257.0345      18.674359      9006.1912      10112.159    
    287200   299.6758      -3239.2517     -3256.5667      17.315053      9035.0292      10112.159    
    287300   306.98169     -3239.6304     -3257.3676      17.737183      9115.5842      10112.159    
    287400   293.71615     -3240.2653     -3257.236       16.970709      8606.1529      10112.159    
    287500   308.77081     -3240.1529     -3257.9934      17.840557      8819.2167      10112.159    
    287600   311.70516     -3239.5964     -3257.6065      18.010101      8992.6737      10112.159    
    287700   291.95416     -3238.8263     -3255.6952      16.868902      9513.4426      10112.159    
    287800   320.98729     -3238.1209     -3256.6673      18.546416      8833.1107      10112.159    
    287900   306.31539     -3239.3299     -3257.0286      17.698684      9154.2615      10112.159    
    288000   291.38457     -3240.1355     -3256.9715      16.835992      9020.6258      10112.159    
    288100   297.5192      -3240.2801     -3257.4705      17.190446      8914.3057      10112.159    
    288200   296.77236     -3240.2189     -3257.3662      17.147295      8949.5839      10112.159    
    288300   293.09614     -3239.8828     -3256.8177      16.934885      8766.7973      10112.159    
    288400   326.86952     -3238.0358     -3256.9221      18.886287      9016.5769      10112.159    
    288500   317.08703     -3237.7886     -3256.1097      18.321062      9377.8334      10112.159    
    288600   299.93918     -3239.2606     -3256.5909      17.330271      9277.7428      10112.159    
    288700   295.94036     -3240.0081     -3257.1074      17.099222      8877.1796      10112.159    
    288800   298.29435     -3240.1235     -3257.3587      17.235234      8817.3378      10112.159    
    288900   300.56515     -3240.1506     -3257.5171      17.36644       8564.9726      10112.159    
    289000   313.41265     -3239.8588     -3257.9675      18.108759      8496.8983      10112.159    
    289100   306.67896     -3239.2091     -3256.9287      17.719691      8859.6193      10112.159    
    289200   310.06979     -3238.8376     -3256.7532      17.915611      9227.3111      10112.159    
    289300   292.67706     -3239.6339     -3256.5446      16.910671      8955.2386      10112.159    
    289400   283.66008     -3241.1272     -3257.5169      16.389676      8555.2902      10112.159    
    289500   307.94585     -3241.2017     -3258.9946      17.792891      8516.4078      10112.159    
    289600   282.46009     -3240.7129     -3257.0333      16.320342      9128.8963      10112.159    
    289700   301.74694     -3239.8008     -3257.2355      17.434722      9106.9228      10112.159    
    289800   291.36888     -3239.8488     -3256.6839      16.835085      9073.7281      10112.159    
    289900   309.99107     -3239.6873     -3257.5984      17.911063      8855.9353      10112.159    
    290000   301.96393     -3240.1123     -3257.5596      17.44726       8767.4526      10112.159    
    290100   282.43007     -3241.1853     -3257.5039      16.318607      8531.884       10112.159    
    290200   287.93641     -3241.3397     -3257.9764      16.63676       8579.7364      10112.159    
    290300   288.52657     -3240.0028     -3256.6737      16.670859      9201.6875      10112.159    
    290400   308.34933     -3239.0445     -3256.8607      17.816204      9035.3801      10112.159    
    290500   312.68112     -3239.1808     -3257.2473      18.066491      9060.5034      10112.159    
    290600   307.36933     -3240.0713     -3257.8309      17.75958       8775.2976      10112.159    
    290700   268.81718     -3241.3292     -3256.8613      15.532065      9245.549       10112.159    
    290800   292.39888     -3240.9179     -3257.8125      16.894598      8978.1951      10112.159    
    290900   302.67483     -3240.2416     -3257.73        17.488335      8586.6101      10112.159    
    291000   293.57351     -3240.0746     -3257.037       16.962468      8951.0303      10112.159    
    291100   309.67289     -3239.6616     -3257.5543      17.892678      8727.6824      10112.159    
    291200   304.14606     -3239.3861     -3256.9594      17.573342      9291.5001      10112.159    
    291300   313.22553     -3239.1601     -3257.258       18.097947      9110.9818      10112.159    
    291400   291.62433     -3239.5845     -3256.4343      16.849845      9037.005       10112.159    
    291500   290.95279     -3240.1378     -3256.9489      16.811044      8942.1333      10112.159    
    291600   296.67873     -3240.704      -3257.8459      17.141885      8720.1283      10112.159    
    291700   287.66451     -3241.4666     -3258.0877      16.62105       8378.658       10112.159    
    291800   305.48374     -3240.524      -3258.1746      17.650632      8858.8287      10112.159    
    291900   293.80861     -3239.1821     -3256.1582      16.976052      9392.7016      10112.159    
    292000   315.28332     -3238.9583     -3257.1752      18.216845      9242.0937      10112.159    
    292100   310.10343     -3239.4638     -3257.3814      17.917554      9111.601       10112.159    
    292200   293.78121     -3240.0398     -3257.0143      16.974468      9049.5733      10112.159    
    292300   296.91755     -3240.1945     -3257.3502      17.155684      8937.6106      10112.159    
    292400   288.39231     -3240.4426     -3257.1057      16.663102      9086.0043      10112.159    
    292500   301.87128     -3240.3453     -3257.7872      17.441907      8737.5483      10112.159    
    292600   301.42067     -3239.9007     -3257.3166      17.415871      8793.257       10112.159    
    292700   301.24497     -3239.2932     -3256.6989      17.405719      8938.0463      10112.159    
    292800   307.72229     -3238.7073     -3256.4872      17.779974      9271.9855      10112.159    
    292900   301.2518      -3239.4817     -3256.8878      17.406113      9001.0177      10112.159    
    293000   304.84878     -3241.0557     -3258.6696      17.613945      8473.3508      10112.159    
    293100   280.45883     -3241.5691     -3257.7738      16.204711      8772.9382      10112.159    
    293200   299.19148     -3240.6655     -3257.9526      17.28707       8697.3124      10112.159    
    293300   296.68769     -3240.078      -3257.2204      17.142403      9202.307       10112.159    
    293400   292.87258     -3239.6017     -3256.5237      16.921968      9431.787       10112.159    
    293500   307.1938      -3239.2648     -3257.0142      17.749438      8845.1623      10112.159    
    293600   297.69612     -3240.5721     -3257.7728      17.200669      8547.6396      10112.159    
    293700   289.47507     -3241.4739     -3258.1996      16.725662      8666.7309      10112.159    
    293800   277.87736     -3240.9367     -3256.9922      16.055555      8671.824       10112.159    
    293900   307.81451     -3239.5746     -3257.3599      17.785302      9105.5635      10112.159    
    294000   308.31372     -3239.3631     -3257.1772      17.814146      8799.1057      10112.159    
    294100   297.51114     -3239.4833     -3256.6733      17.189981      9063.7538      10112.159    
    294200   299.06534     -3239.6208     -3256.9005      17.279782      8908.019       10112.159    
    294300   292.97048     -3241.0453     -3257.973       16.927625      8616.6077      10112.159    
    294400   280.2394      -3242.2427     -3258.4348      16.192032      8524.5465      10112.159    
    294500   297.89437     -3241.335      -3258.5471      17.212124      8579.792       10112.159    
    294600   296.37559     -3240.2789     -3257.4033      17.12437       8918.6662      10112.159    
    294700   292.38406     -3239.5522     -3256.4459      16.893742      9245.8795      10112.159    
    294800   306.37515     -3239.362      -3257.0641      17.702137      8708.7968      10112.159    
    294900   288.17102     -3240.1147     -3256.765       16.650315      8529.3058      10112.159    
    295000   320.94525     -3239.7346     -3258.2786      18.543987      8594.9984      10112.159    
    295100   305.40951     -3238.7008     -3256.3471      17.646343      9458.0203      10112.159    
    295200   300.58666     -3238.3367     -3255.7044      17.367682      8941.3735      10112.159    
    295300   307.28206     -3239.0876     -3256.8422      17.754538      8898.4703      10112.159    
    295400   303.84949     -3240.5005     -3258.0567      17.556206      8746.2717      10112.159    
    295500   276.29168     -3240.8117     -3256.7757      15.963935      8412.0963      10112.159    
    295600   306.51035     -3239.922      -3257.632       17.709949      8794.2223      10112.159    
    295700   307.43599     -3239.5981     -3257.3616      17.763432      8696.2641      10112.159    
    295800   292.58309     -3239.8103     -3256.7155      16.905241      8949.6023      10112.159    
    295900   295.5653      -3239.76       -3256.8375      17.077552      8912.9041      10112.159    
    296000   309.34117     -3239.7053     -3257.5788      17.873512      8558.2904      10112.159    
    296100   294.27596     -3240.0218     -3257.0249      17.003055      8888.1417      10112.159    
    296200   303.01635     -3239.8003     -3257.3084      17.508068      8912.5824      10112.159    
    296300   324.20839     -3239.2542     -3257.9868      18.732529      8670.5138      10112.159    
    296400   293.88339     -3239.7213     -3256.7016      16.980372      8967.8291      10112.159    
    296500   278.82414     -3240.564      -3256.6742      16.110259      8795.8088      10112.159    
    296600   297.66909     -3240.5186     -3257.7177      17.199107      8841.3246      10112.159    
    296700   319.54014     -3239.6872     -3258.15        18.462801      8920.7023      10112.159    
    296800   301.35595     -3238.9456     -3256.3578      17.412131      8988.4342      10112.159    
    296900   302.15556     -3238.2359     -3255.6942      17.458332      9501.0791      10112.159    
    297000   305.69655     -3238.5697     -3256.2326      17.662928      9354.732       10112.159    
    297100   299.48018     -3240.1084     -3257.4122      17.30375       9023.2729      10112.159    
    297200   303.54004     -3240.8124     -3258.3507      17.538327      8567.6         10112.159    
    297300   278.36301     -3240.945      -3257.0286      16.083616      8761.3308      10112.159    
    297400   305.06094     -3239.4086     -3257.0348      17.626203      9263.7859      10112.159    
    297500   316.22252     -3239.1443     -3257.4154      18.271111      8921.3189      10112.159    
    297600   304.96936     -3239.5025     -3257.1234      17.620911      8872.452       10112.159    
    297700   298.65536     -3240.0966     -3257.3527      17.256093      8989.7312      10112.159    
    297800   274.76262     -3241.0107     -3256.8862      15.875588      9128.3062      10112.159    
    297900   315.77222     -3239.944      -3258.1891      18.245093      8668.3873      10112.159    
    298000   303.96768     -3238.768      -3256.331       17.563035      9201.7289      10112.159    
    298100   308.68201     -3238.8512     -3256.6867      17.835426      9064.7924      10112.159    
    298200   291.79586     -3240.1812     -3257.041       16.859756      8515.3611      10112.159    
    298300   295.76073     -3241.0737     -3258.1625      17.088843      8612.7285      10112.159    
    298400   287.15955     -3240.8962     -3257.4881      16.591873      8601.8256      10112.159    
    298500   296.80264     -3240.3285     -3257.4776      17.149044      8873.4547      10112.159    
    298600   296.50772     -3239.5495     -3256.6815      17.132004      9130.0801      10112.159    
    298700   324.61896     -3238.4971     -3257.2533      18.756251      9226.4573      10112.159    
    298800   290.69692     -3239.2133     -3256.0096      16.79626       9415.8699      10112.159    
    298900   300.55263     -3240.8869     -3258.2527      17.365716      8714.0213      10112.159    
    299000   283.8871      -3241.5563     -3257.9591      16.402794      8496.2298      10112.159    
    299100   299.84643     -3240.7126     -3258.0375      17.324912      8814.8551      10112.159    
    299200   303.64657     -3239.6637     -3257.2082      17.544481      9064.5732      10112.159    
    299300   311.24486     -3238.9253     -3256.9089      17.983505      9021.3027      10112.159    
    299400   305.47408     -3239.2584     -3256.9085      17.650074      8916.0218      10112.159    
    299500   289.93484     -3240.8037     -3257.5559      16.752228      8873.3135      10112.159    
    299600   284.0172      -3241.7181     -3258.1284      16.41031       8561.5765      10112.159    
    299700   274.20154     -3241.5785     -3257.4217      15.843169      8740.5779      10112.159    
    299800   303.14151     -3240.5438     -3258.0591      17.5153        8713.4388      10112.159    
    299900   294.59053     -3240.2834     -3257.3047      17.02123       8540.0302      10112.159    
    300000   311.53922     -3239.4694     -3257.4699      18.000513      9092.3379      10112.159    
Loop time of 2326.53 on 20 procs for 300000 steps with 448 atoms

Performance: 11.141 ns/day, 2.154 hours/ns, 128.947 timesteps/s, 57.768 katom-step/s
99.9% CPU use with 20 MPI tasks x 1 OpenMP threads

MPI task timing breakdown:
Section |  min time  |  avg time  |  max time  |%varavg| %total
---------------------------------------------------------------
Pair    | 1696.8     | 1990.5     | 2249       | 405.5 | 85.55
Neigh   | 19.924     | 24.642     | 36.564     |  78.9 |  1.06
Comm    | 37.939     | 308.26     | 606.92     |1050.2 | 13.25
Output  | 0.32809    | 0.52045    | 0.58155    |   7.1 |  0.02
Modify  | 1.9085     | 2.3897     | 2.7096     |  16.5 |  0.10
Other   |            | 0.258      |            |       |  0.01

Nlocal:           22.4 ave          24 max          17 min
Histogram: 1 1 1 0 2 0 0 2 2 11
Nghost:            498 ave         526 max         464 min
Histogram: 4 0 0 1 5 2 0 0 2 6
Neighs:              0 ave           0 max           0 min
Histogram: 20 0 0 0 0 0 0 0 0 0
FullNghs:       1284.3 ave        1388 max         975 min
Histogram: 1 1 0 2 1 0 0 3 1 11

Total # of neighbors = 25686
Ave neighs/atom = 57.334821
Neighbor list builds = 300000
Dangerous builds not checked
Total wall time: 0:38:46
