LAMMPS (27 Jun 2024)
OMP_NUM_THREADS environment is not set. Defaulting to 1 thread. (src/comm.cpp:98)
  using 1 OpenMP thread(s) per MPI task
Reading data file ...
  orthogonal box = (0 0 0) to (22.422218 22.19224 20.321894)
  5 by 2 by 2 MPI processor grid
  reading atoms ...
  448 atoms
  read_data CPU = 0.004 seconds
**************** Begin of POD Potentials ****************
species: Hf 
periodic boundary conditions: 1 1 1
number of environment clusters: 8
number of principal compoments: 2
inner cut-off radius: 1
outer cut-off radius: 5
cut-off function type: 1
gaussian_exponents: 
polynomial_degrees: 
bessel polynomial degree: 4
inverse polynomial degree: 10
one-body potential: 1
two-body radial basis functions: 8
three-body radial basis functions: 8
three-body angular degree: 6
four-body radial basis functions: 7
four-body angular degree: 5
five-body radial basis functions: 0
five-body angular degree: 0
six-body radial basis functions: 0
six-body angular degree: 0
seven-body radial basis functions: 0
seven-body angular degree: 0
number of local descriptors per element for one-body potential: 1
number of local descriptors per element for two-body potential: 8
number of local descriptors per element for three-body potential: 56
number of local descriptors per element for four-body potential: 112
number of local descriptors per element for five-body potential: 0
number of local descriptors per element for six-body potential: 0
number of local descriptors per element for seven-body potential: 0
number of local descriptors per element for all potentials: 177
number of global descriptors: 1409
**************** End of POD Potentials ****************

**************** Begin of Model Coefficients ****************
total number of coefficients for POD potential: 1409
total number of elements for PCA projection matrix: 352
total number of elements for PCA centroids: 16
**************** End of Model Coefficients ****************


CITE-CITE-CITE-CITE-CITE-CITE-CITE-CITE-CITE-CITE-CITE-CITE-CITE

Your simulation uses code contributions which should be cited:
- Type Label Framework: https://doi.org/10.1021/acs.jpcb.3c08419
The log file lists these citations in BibTeX format.

CITE-CITE-CITE-CITE-CITE-CITE-CITE-CITE-CITE-CITE-CITE-CITE-CITE

Neighbor list info ...
  update: every = 1 steps, delay = 0 steps, check = no
  max neighbors/atom: 2000, page size: 100000
  master list distance cutoff = 7
  ghost atom cutoff = 7
  binsize = 3.5, bins = 7 7 6
  1 neighbor lists, perpetual/occasional/extra = 1 0 0
  (1) pair pod, perpetual
      attributes: full, newton on
      pair build: full/bin/atomonly
      stencil: full/bin/3d
      bin: standard
Setting up Verlet run ...
  Unit style    : metal
  Current step  : 0
  Time step     : 0.001
Per MPI rank memory allocation (min/avg/max) = 2.586 | 2.586 | 2.586 Mbytes
   Step          Temp          TotEng         PotEng         KinEng         Press          Volume    
         0   300           -3263.9145     -3281.2483      17.333785      1830.9177      10112.159    
       100   92.976833     -3263.0493     -3268.4214      5.3721349      3687.8016      10112.159    
       200   157.18845     -3259.7694     -3268.8517      9.0822361      4589.6437      10112.159    
       300   210.67807     -3255.8601     -3268.033       12.172828      4970.8543      10112.159    
       400   275.32841     -3251.8258     -3267.7341      15.908279      5039.0016      10112.159    
       500   324.73114     -3247.8853     -3266.6481      18.762733      5830.9792      10112.159    
       600   278.11169     -3245.3597     -3261.4288      16.069094      7465.2724      10112.159    
       700   290.66724     -3243.873      -3260.6676      16.794545      7996.0784      10112.159    
       800   319.22827     -3245.1029     -3263.5477      18.444781      6924.3852      10112.159    
       900   302.50504     -3247.0417     -3264.5202      17.478525      6507.7473      10112.159    
      1000   299.67743     -3248.0938     -3265.4089      17.315148      5980.8145      10112.159    
      1100   286.23806     -3247.932      -3264.4707      16.53863       6799.7345      10112.159    
      1200   294.35165     -3246.5391     -3263.5466      17.007428      6763.8646      10112.159    
      1300   302.61334     -3245.4727     -3262.9575      17.484783      7278.0737      10112.159    
      1400   311.80159     -3245.1105     -3263.1262      18.015673      6988.3551      10112.159    
      1500   292.75432     -3246.0221     -3262.9373      16.915135      6947.6849      10112.159    
      1600   335.49784     -3246.394      -3265.7788      19.384825      6259.8374      10112.159    
      1700   275.07258     -3247.6989     -3263.5924      15.893497      6738.8981      10112.159    
      1800   284.49208     -3247.5726     -3264.0103      16.437749      6666.8725      10112.159    
      1900   322.88216     -3246.2403     -3264.8962      18.6559        6492.1782      10112.159    
      2000   294.0374      -3246.1023     -3263.0916      16.989271      6480.2311      10112.159    
      2100   324.47539     -3245.6789     -3264.4268      18.747956      6731.7563      10112.159    
      2200   289.69726     -3245.9204     -3262.6589      16.7385        7241.7738      10112.159    
      2300   271.75241     -3246.4998     -3262.2014      15.70166       7134.0447      10112.159    
      2400   323.5522      -3246.7777     -3265.4723      18.694615      6577.206       10112.159    
      2500   299.02038     -3247.4721     -3264.7493      17.277184      6147.4071      10112.159    
      2600   302.71209     -3246.8245     -3264.315       17.490488      6331.4113      10112.159    
      2700   304.12265     -3245.6974     -3263.2694      17.571989      7029.686       10112.159    
      2800   292.16961     -3245.4682     -3262.3495      16.881351      6988.4368      10112.159    
      2900   323.97751     -3245.664      -3264.3832      18.719189      6649.1725      10112.159    
      3000   291.43178     -3247.6761     -3264.5148      16.83872       6376.449       10112.159    
      3100   295.22832     -3247.7053     -3264.7634      17.058081      6422.8751      10112.159    
      3200   291.19727     -3246.8672     -3263.6923      16.82517       6800.5212      10112.159    
      3300   305.93278     -3245.7966     -3263.4732      17.676577      6908.9731      10112.159    
      3400   313.53694     -3245.4502     -3263.5662      18.11594       6668.1963      10112.159    
      3500   311.06655     -3245.8239     -3263.7971      17.973203      7067.1416      10112.159    
      3600   293.55552     -3246.4112     -3263.3726      16.961428      6702.0669      10112.159    
      3700   322.033       -3246.2884     -3264.8952      18.606837      6784.9249      10112.159    
      3800   271.51363     -3247.0941     -3262.782       15.687863      6870.2244      10112.159    
      3900   317.66925     -3246.2966     -3264.6513      18.354702      6482.2274      10112.159    
      4000   315.96795     -3244.6071     -3262.8635      18.256402      7181.1003      10112.159    
      4100   315.58355     -3244.45       -3262.6842      18.234192      7485.1229      10112.159    
      4200   309.13651     -3245.7163     -3263.578       17.861686      6872.4         10112.159    
      4300   297.43194     -3246.6352     -3263.8206      17.185405      6530.1132      10112.159    
      4400   319.14919     -3246.6047     -3265.0449      18.440212      6329.2083      10112.159    
      4500   287.07635     -3246.5797     -3263.1668      16.587066      6928.9356      10112.159    
      4600   296.15214     -3245.8174     -3262.9288      17.111459      6654.9546      10112.159    
      4700   316.20025     -3245.5409     -3263.8107      18.269824      6864.7834      10112.159    
      4800   308.41364     -3245.4842     -3263.3041      17.81992       7059.0408      10112.159    
      4900   291.74771     -3246.7134     -3263.5704      16.856974      6661.6943      10112.159    
      5000   300.40452     -3247.009      -3264.3662      17.357159      6702.2077      10112.159    
      5100   287.63747     -3247.1642     -3263.7837      16.619487      6733.1954      10112.159    
      5200   292.29344     -3247.1045     -3263.993       16.888506      6479.7623      10112.159    
      5300   327.2038      -3245.4636     -3264.3692      18.905602      6751.1208      10112.159    
      5400   270.62141     -3245.9023     -3261.5386      15.636312      7461.4469      10112.159    
      5500   320.44894     -3245.8395     -3264.3548      18.515311      6668.3729      10112.159    
      5600   296.14447     -3247.1065     -3264.2175      17.111016      6520.2833      10112.159    
      5700   290.48366     -3247.6139     -3264.3978      16.783938      6398.299       10112.159    
      5800   298.38926     -3246.4829     -3263.7236      17.240718      6791.1911      10112.159    
      5900   291.47952     -3245.0946     -3261.9361      16.841478      7159.8908      10112.159    
      6000   339.90093     -3244.3072     -3263.9464      19.639233      7200.5736      10112.159    
      6100   299.75486     -3245.8986     -3263.2182      17.319622      7007.8977      10112.159    
      6200   301.92772     -3246.5209     -3263.966       17.445168      6571.8953      10112.159    
      6300   294.70176     -3246.7218     -3263.7494      17.027657      6782.0766      10112.159    
      6400   287.9451      -3247.1886     -3263.8259      16.637262      6481.0651      10112.159    
      6500   312.0707      -3247.4685     -3265.4997      18.031222      6276.0642      10112.159    
      6600   288.28993     -3246.6395     -3263.2967      16.657186      6777.3995      10112.159    
      6700   283.1457      -3245.3822     -3261.7421      16.359956      7333.0315      10112.159    
      6800   330.4121      -3245.0666     -3264.1576      19.090975      6855.2472      10112.159    
      6900   290.82465     -3246.3238     -3263.1274      16.80364       6920.3113      10112.159    
      7000   304.01738     -3246.3727     -3263.9386      17.565907      6786.3071      10112.159    
      7100   291.86451     -3246.6269     -3263.4906      16.863723      6848.7739      10112.159    
      7200   288.52954     -3247.2111     -3263.8822      16.67103       6765.3038      10112.159    
      7300   291.61389     -3248.1875     -3265.0367      16.849242      6171.2074      10112.159    
      7400   289.16425     -3248.0606     -3264.7683      16.707704      6517.8411      10112.159    
      7500   295.72975     -3246.3403     -3263.4274      17.087053      6953.3964      10112.159    
      7600   300.2294      -3245.5474     -3262.8944      17.34704       6964.3037      10112.159    
      7700   336.69607     -3245.2668     -3264.7209      19.454058      6765.1257      10112.159    
      7800   280.46164     -3246.803      -3263.0079      16.204873      6885.0797      10112.159    
      7900   301.4803      -3246.7121     -3264.1314      17.419316      6796.734       10112.159    
      8000   278.2668      -3247.019      -3263.0971      16.078057      6974.0148      10112.159    
      8100   318.52498     -3246.1988     -3264.6029      18.404146      6481.668       10112.159    
      8200   312.09242     -3244.8888     -3262.9213      18.032477      7376.1212      10112.159    
      8300   325.16958     -3243.5159     -3262.3039      18.788066      7281.7681      10112.159    
      8400   305.59477     -3244.8819     -3262.5389      17.657047      7551.6659      10112.159    
      8500   302.21381     -3245.9851     -3263.4468      17.461698      6766.5425      10112.159    
      8600   317.3375      -3246.5025     -3264.8381      18.335534      6710.8457      10112.159    
      8700   286.75495     -3247.2192     -3263.7877      16.568496      6549.7234      10112.159    
      8800   290.01513     -3247.1199     -3263.8767      16.756867      6709.1331      10112.159    
      8900   302.92852     -3246.4648     -3263.9678      17.502993      6628.1146      10112.159    
      9000   313.44118     -3245.0117     -3263.1221      18.110407      6939.6864      10112.159    
      9100   306.86481     -3245.1812     -3262.9116      17.730429      6872.7977      10112.159    
      9200   297.2651      -3246.2908     -3263.4666      17.175765      6951.1789      10112.159    
      9300   291.62406     -3246.9535     -3263.8033      16.84983       6703.9854      10112.159    
      9400   293.10106     -3246.9411     -3263.8763      16.93517       6542.5526      10112.159    
      9500   316.57194     -3246.1694     -3264.4607      18.291301      6660.922       10112.159    
      9600   300.87918     -3245.9675     -3263.3521      17.384584      7117.96        10112.159    
      9700   282.89054     -3246.5509     -3262.8961      16.345213      6933.3262      10112.159    
      9800   294.02213     -3247.8162     -3264.8045      16.988388      6594.3308      10112.159    
      9900   287.49763     -3248.4831     -3265.0945      16.611407      6124.7164      10112.159    
     10000   288.05239     -3247.3616     -3264.005       16.643461      6639.1995      10112.159    
     10100   295.5324      -3246.4043     -3263.48        17.075651      6767.7161      10112.159    
     10200   308.73673     -3245.7925     -3263.6311      17.838588      6705.8069      10112.159    
     10300   317.29431     -3245.8091     -3264.1421      18.333038      6821.9175      10112.159    
     10400   281.05936     -3247.129      -3263.3684      16.239409      6799.9811      10112.159    
     10500   292.69327     -3247.187      -3264.0986      16.911608      6466.8823      10112.159    
     10600   301.25404     -3246.8712     -3264.2774      17.406243      6545.3698      10112.159    
     10700   327.50722     -3244.8541     -3263.7773      18.923133      6826.277       10112.159    
     10800   300.43621     -3245.0481     -3262.4071      17.358989      7118.9023      10112.159    
     10900   302.702       -3245.9945     -3263.4844      17.489905      6863.7024      10112.159    
     11000   306.39779     -3247.1556     -3264.859       17.703445      6511.0989      10112.159    
     11100   283.38608     -3247.8061     -3264.18        16.373845      6589.8406      10112.159    
     11200   290.66291     -3246.918      -3263.7123      16.794295      6665.0163      10112.159    
     11300   307.51482     -3245.8778     -3263.6458      17.767986      6871.3045      10112.159    
     11400   304.29168     -3246.0594     -3263.6411      17.581756      6808.9101      10112.159    
     11500   295.08624     -3246.7753     -3263.8251      17.049872      6514.5889      10112.159    
     11600   291.29948     -3246.839      -3263.6701      16.831076      6711.2264      10112.159    
     11700   327.41589     -3245.6298     -3264.5476      18.917856      6573.8368      10112.159    
     11800   296.58567     -3245.0099     -3262.1464      17.136508      7183.0486      10112.159    
     11900   334.08985     -3243.8689     -3263.1724      19.303473      7067.9614      10112.159    
     12000   304.96205     -3245.4875     -3263.108       17.620489      6932.9738      10112.159    
     12100   301.45423     -3246.3633     -3263.7811      17.41781       6621.4761      10112.159    
     12200   293.34723     -3246.9992     -3263.9486      16.949393      6769.337       10112.159    
     12300   299.49458     -3246.9866     -3264.2912      17.304583      6547.2738      10112.159    
     12400   293.35499     -3246.2488     -3263.1987      16.949841      6830.1224      10112.159    
     12500   325.79169     -3244.6469     -3263.4709      18.824011      6936.7645      10112.159    
     12600   317.29446     -3244.8724     -3263.2055      18.333047      7089.2034      10112.159    
     12700   297.54184     -3246.0326     -3263.2244      17.191755      6667.4718      10112.159    
     12800   295.72148     -3246.8765     -3263.9631      17.086576      6489.7447      10112.159    
     12900   288.93972     -3246.9976     -3263.6923      16.69473       6721.4166      10112.159    
     13000   330.76328     -3246.151      -3265.2623      19.111266      6530.8055      10112.159    
     13100   277.5793      -3246.6148     -3262.6531      16.038333      6884.018       10112.159    
     13200   298.2247      -3246.3329     -3263.5641      17.23121       6657.4124      10112.159    
     13300   306.9713      -3246.2862     -3264.0228      17.736582      6812.03        10112.159    
     13400   298.41908     -3246.4994     -3263.7418      17.242441      6478.7837      10112.159    
     13500   298.46057     -3246.4885     -3263.7334      17.244838      6958.1965      10112.159    
     13600   288.4322      -3246.7161     -3263.3815      16.665406      6678.483       10112.159    
     13700   312.56591     -3246.0785     -3264.1384      18.059835      6490.5813      10112.159    
     13800   289.86155     -3246.2891     -3263.0371      16.747993      6883.5576      10112.159    
     13900   306.97525     -3246.4822     -3264.219       17.73681       6538.3921      10112.159    
     14000   283.39633     -3247.4938     -3263.8682      16.374437      6684.1515      10112.159    
     14100   278.43532     -3248.674      -3264.7618      16.087793      6073.2557      10112.159    
     14200   304.59549     -3247.7728     -3265.3721      17.599309      6298.3658      10112.159    
     14300   288.22202     -3246.98       -3263.6332      16.653262      6603.0566      10112.159    
     14400   288.04216     -3246.2833     -3262.9262      16.64287       6920.1025      10112.159    
     14500   319.05156     -3245.5255     -3263.96        18.434571      6659.7674      10112.159    
     14600   295.26798     -3246.327      -3263.3874      17.060373      6775.0006      10112.159    
     14700   287.43347     -3247.8238     -3264.4315      16.6077        6542.5677      10112.159    
     14800   279.46665     -3248.9815     -3265.1289      16.147383      6182.0204      10112.159    
     14900   296.41635     -3247.5463     -3264.673       17.126725      6613.1635      10112.159    
     15000   300.07182     -3246.2918     -3263.6297      17.337935      6731.4387      10112.159    
     15100   299.51701     -3245.8162     -3263.122       17.305879      6873.7862      10112.159    
     15200   311.88865     -3245.3725     -3263.3932      18.020703      7043.2731      10112.159    
     15300   296.79573     -3246.1954     -3263.344       17.148645      6620.6895      10112.159    
     15400   296.62223     -3247.1989     -3264.3375      17.13862       6504.9727      10112.159    
     15500   287.20354     -3247.6232     -3264.2177      16.594415      6573.2412      10112.159    
     15600   305.32238     -3246.3297     -3263.971       17.641309      6664.8407      10112.159    
     15700   302.86306     -3245.1366     -3262.6358      17.499211      7083.5473      10112.159    
     15800   311.29865     -3244.9696     -3262.9562      17.986613      6837.7215      10112.159    
     15900   308.55957     -3246.0306     -3263.8589      17.828351      6794.1813      10112.159    
     16000   278.58811     -3247.5141     -3263.6108      16.096621      6684.6651      10112.159    
     16100   304.21354     -3246.821      -3264.3983      17.577241      6399.8038      10112.159    
     16200   304.23563     -3246.3716     -3263.9501      17.578517      6718.7791      10112.159    
     16300   295.32466     -3246.1071     -3263.1707      17.063648      6515.4405      10112.159    
     16400   324.94708     -3244.6207     -3263.3959      18.77521       7105.0228      10112.159    
     16500   305.74184     -3244.8658     -3262.5313      17.665545      6973.5488      10112.159    
     16600   297.90914     -3246.5875     -3263.8004      17.212977      6858.4845      10112.159    
     16700   298.66623     -3247.0984     -3264.3551      17.256721      6454.296       10112.159    
     16800   281.94653     -3246.9942     -3263.2849      16.290669      6679.0216      10112.159    
     16900   313.61348     -3245.809      -3263.9294      18.120362      6877.9806      10112.159    
     17000   301.83417     -3245.7881     -3263.2278      17.439763      7090.4031      10112.159    
     17100   298.47411     -3246.5619     -3263.8075      17.24562       6799.1745      10112.159    
     17200   282.01492     -3248.3216     -3264.6162      16.294621      6292.2395      10112.159    
     17300   289.01169     -3248.2356     -3264.9345      16.698889      6366.0808      10112.159    
     17400   299.04006     -3246.8411     -3264.1194      17.278321      6403.0418      10112.159    
     17500   297.16548     -3246.2203     -3263.3903      17.170009      6822.9111      10112.159    
     17600   310.70243     -3246.1409     -3264.0931      17.952164      6699.6519      10112.159    
     17700   291.43812     -3246.7448     -3263.5839      16.839086      6633.8284      10112.159    
     17800   308.78244     -3246.7516     -3264.5928      17.841228      6558.7026      10112.159    
     17900   288.80681     -3246.9982     -3263.6853      16.687051      6712.7565      10112.159    
     18000   296.53584     -3246.4774     -3263.611       17.133629      6700.2557      10112.159    
     18100   311.06175     -3245.6723     -3263.6452      17.972925      6743.8102      10112.159    
     18200   305.24479     -3245.2025     -3262.8393      17.636826      6817.6333      10112.159    
     18300   308.96284     -3245.2655     -3263.1171      17.851652      7006.8104      10112.159    
     18400   295.21215     -3246.8597     -3263.9168      17.057147      6553.793       10112.159    
     18500   302.91847     -3247.3019     -3264.8043      17.502413      6492.1077      10112.159    
     18600   287.62146     -3247.0653     -3263.6838      16.618562      6555.487       10112.159    
     18700   309.47287     -3245.5708     -3263.4519      17.881121      6918.4789      10112.159    
     18800   307.28091     -3245.1837     -3262.9382      17.754471      7218.7983      10112.159    
     18900   305.88154     -3245.6242     -3263.2978      17.673617      6937.7578      10112.159    
     19000   301.99476     -3246.028      -3263.477       17.449041      6781.2091      10112.159    
     19100   303.00771     -3246.5085     -3264.0161      17.507569      6558.2721      10112.159    
     19200   291.74081     -3247.407      -3264.2636      16.856575      6349.8074      10112.159    
     19300   290.9146      -3247.8751     -3264.684       16.808838      6372.1007      10112.159    
     19400   289.87617     -3246.8365     -3263.5853      16.748838      6711.6899      10112.159    
     19500   294.25733     -3245.5026     -3262.5046      17.001978      7128.0449      10112.159    
     19600   321.84949     -3245.1813     -3263.7775      18.596233      6639.698       10112.159    
     19700   307.27653     -3246.1552     -3263.9095      17.754218      6653.4253      10112.159    
     19800   285.1139      -3247.3374     -3263.811       16.473677      6461.3546      10112.159    
     19900   289.16606     -3247.5165     -3264.2243      16.707808      6513.7204      10112.159    
     20000   297.35196     -3247.0857     -3264.2664      17.180784      6614.1536      10112.159    
     20100   297.20649     -3246.6472     -3263.8195      17.172379      6698.1805      10112.159    
     20200   313.96576     -3245.8508     -3263.9915      18.140717      6622.5671      10112.159    
     20300   303.49154     -3245.335      -3262.8705      17.535524      6803.3875      10112.159    
     20400   307.38076     -3244.9968     -3262.7571      17.76024       7006.1149      10112.159    
     20500   287.88661     -3246.0141     -3262.6479      16.633882      7195.5602      10112.159    
     20600   301.27216     -3247.2826     -3264.6899      17.40729       6359.9478      10112.159    
     20700   313.43008     -3247.4518     -3265.5615      18.109766      6077.1064      10112.159    
     20800   285.17457     -3247.2058     -3263.683       16.477183      6556.5769      10112.159    
     20900   295.5941      -3245.8891     -3262.9684      17.079216      7207.0946      10112.159    
     21000   296.63488     -3245.3432     -3262.4826      17.139351      7185.1499      10112.159    
     21100   319.84501     -3245.726      -3264.2064      18.480416      6484.4732      10112.159    
     21200   300.67686     -3246.7091     -3264.082       17.372894      6373.3245      10112.159    
     21300   309.57622     -3246.8579     -3264.745       17.887092      6354.5958      10112.159    
     21400   269.9755      -3247.4049     -3263.0039      15.598991      6589.6195      10112.159    
     21500   310.48143     -3246.6513     -3264.5907      17.939395      6601.4472      10112.159    
     21600   297.99201     -3245.6829     -3262.9007      17.217765      6689.58        10112.159    
     21700   328.13793     -3244.5098     -3263.4694      18.959575      6956.9263      10112.159    
     21800   306.25652     -3245.4808     -3263.1761      17.695283      6785.3261      10112.159    
     21900   303.10925     -3245.9383     -3263.4518      17.513436      7042.3199      10112.159    
     22000   313.08932     -3246.2555     -3264.3456      18.090077      6573.715       10112.159    
     22100   282.85955     -3247.2329     -3263.5763      16.343422      6677.9755      10112.159    
     22200   303.60703     -3247.0407     -3264.5829      17.542197      6532.8815      10112.159    
     22300   314.98235     -3245.924      -3264.1234      18.199455      6632.0354      10112.159    
     22400   300.2967      -3244.9107     -3262.2617      17.350929      7143.786       10112.159    
     22500   326.03461     -3244.8521     -3263.6901      18.838047      6798.6608      10112.159    
     22600   287.92641     -3246.5638     -3263.2         16.636182      6727.7977      10112.159    
     22700   313.95144     -3246.9454     -3265.0853      18.139889      6297.1435      10112.159    
     22800   288.00774     -3247.2613     -3263.9022      16.640881      6693.0345      10112.159    
     22900   302.83818     -3246.3171     -3263.8149      17.497773      6734.575       10112.159    
     23000   309.09597     -3245.5454     -3263.4048      17.859344      6848.591       10112.159    
     23100   317.71373     -3245.0959     -3263.4532      18.357272      7007.1864      10112.159    
     23200   306.49694     -3244.7617     -3262.4709      17.709174      7161.8116      10112.159    
     23300   296.81494     -3245.6307     -3262.7804      17.149755      7225.2252      10112.159    
     23400   317.70239     -3246.8645     -3265.2211      18.356617      6552.8714      10112.159    
     23500   282.44139     -3247.83       -3264.1492      16.319261      6620.5466      10112.159    
     23600   286.31965     -3247.075      -3263.6183      16.543345      6805.1876      10112.159    
     23700   314.58051     -3246.0269     -3264.2032      18.176237      6619.5123      10112.159    
     23800   295.00786     -3246.0312     -3263.0765      17.045343      6759.3188      10112.159    
     23900   307.91581     -3245.9367     -3263.7278      17.791156      6974.3988      10112.159    
     24000   290.92146     -3247.0841     -3263.8933      16.809234      6670.7071      10112.159    
     24100   297.91635     -3248.0911     -3265.3045      17.213394      6279.9454      10112.159    
     24200   279.83736     -3248.1455     -3264.3143      16.168803      6576.1099      10112.159    
     24300   299.5         -3247.0714     -3264.3763      17.304896      6571.5732      10112.159    
     24400   292.95971     -3246.9178     -3263.8448      16.927002      6838.5218      10112.159    
     24500   295.93454     -3246.3718     -3263.4707      17.098886      6806.2931      10112.159    
     24600   317.4304      -3245.5869     -3263.9278      18.340901      6881.2875      10112.159    
     24700   289.88732     -3246.0334     -3262.7829      16.749482      7056.1939      10112.159    
     24800   300.05502     -3246.7588     -3264.0958      17.336965      6655.175       10112.159    
     24900   297.91861     -3247.7238     -3264.9374      17.213524      6300.803       10112.159    
     25000   283.45221     -3247.6783     -3264.0559      16.377666      6612.9867      10112.159    
     25100   303.26187     -3245.9534     -3263.4756      17.522254      6836.5078      10112.159    
     25200   319.08308     -3244.9645     -3263.4009      18.436392      6973.9549      10112.159    
     25300   304.67677     -3245.5429     -3263.147       17.604006      7191.8934      10112.159    
     25400   303.63368     -3246.0439     -3263.5876      17.543737      6882.3676      10112.159    
     25500   299.93228     -3246.4305     -3263.7603      17.329872      6809.3877      10112.159    
     25600   294.42947     -3247.0296     -3264.0415      17.011924      6801.5104      10112.159    
     25700   282.45749     -3248.3483     -3264.6685      16.320192      6509.0966      10112.159    
     25800   278.34374     -3248.9728     -3265.0553      16.082502      5876.4573      10112.159    
     25900   310.88418     -3247.3936     -3265.3562      17.962666      6370.3984      10112.159    
     26000   297.36116     -3246.4715     -3263.6529      17.181315      6552.5702      10112.159    
     26100   307.12881     -3245.8587     -3263.6044      17.745683      6962.3921      10112.159    
     26200   320.89431     -3245.8226     -3264.3637      18.541044      6911.5395      10112.159    
     26300   280.29101     -3247.044      -3263.239       16.195014      6959.329       10112.159    
     26400   308.01447     -3247.43       -3265.2269      17.796856      6411.43        10112.159    
     26500   269.84882     -3248.728      -3264.3197      15.591672      6605.9176      10112.159    
     26600   288.7377      -3248.2119     -3264.8949      16.683058      6207.2789      10112.159    
     26700   303.86771     -3246.6403     -3264.1976      17.557259      6596.0778      10112.159    
     26800   302.55871     -3245.9962     -3263.4779      17.481626      6700.7291      10112.159    
     26900   287.30487     -3246.158      -3262.7583      16.60027       6899.941       10112.159    
     27000   307.80956     -3246.4675     -3264.2525      17.785016      6798.803       10112.159    
     27100   288.03253     -3247.5931     -3264.2354      16.642314      6587.8348      10112.159    
     27200   279.70499     -3248.4535     -3264.6147      16.161154      6621.1099      10112.159    
     27300   301.29323     -3247.3401     -3264.7486      17.408507      6600.2257      10112.159    
     27400   295.14467     -3245.9692     -3263.0224      17.053248      7069.5175      10112.159    
     27500   305.36665     -3245.687      -3263.3308      17.643866      6945.6183      10112.159    
     27600   319.70451     -3245.9735     -3264.4458      18.472298      6771.4291      10112.159    
     27700   292.83112     -3247.0654     -3263.9849      16.919573      6520.5117      10112.159    
     27800   265.08613     -3248.1784     -3263.4948      15.316487      6641.3844      10112.159    
     27900   287.25832     -3248.3255     -3264.923       16.59758       6401.8273      10112.159    
     28000   304.90996     -3246.4633     -3264.0808      17.617479      6771.3254      10112.159    
     28100   306.59714     -3245.5075     -3263.2225      17.714963      7072.1411      10112.159    
     28200   310.44503     -3245.2364     -3263.1737      17.937292      7169.8213      10112.159    
     28300   297.18661     -3246.4174     -3263.5886      17.17123       6842.1137      10112.159    
     28400   302.63186     -3247.1558     -3264.6417      17.485853      6687.4889      10112.159    
     28500   293.03395     -3247.1915     -3264.1228      16.931292      6843.3783      10112.159    
     28600   297.10997     -3246.6293     -3263.7961      17.166801      6639.0304      10112.159    
     28700   326.15492     -3244.5252     -3263.3702      18.844998      7207.2297      10112.159    
     28800   302.33243     -3244.996      -3262.4646      17.468551      7205.7348      10112.159    
     28900   294.67192     -3245.8785     -3262.9045      17.025933      7103.5999      10112.159    
     29000   302.21208     -3246.6616     -3264.1232      17.461598      6758.2807      10112.159    
     29100   287.49328     -3247.6782     -3264.2894      16.611156      6560.7631      10112.159    
     29200   307.32004     -3247.4243     -3265.1811      17.756732      6513.3552      10112.159    
     29300   282.98002     -3247.14       -3263.4904      16.350383      7085.1925      10112.159    
     29400   302.31701     -3246.3685     -3263.8362      17.46766       6688.2072      10112.159    
     29500   290.65684     -3246.1071     -3262.901       16.793944      6820.9242      10112.159    
     29600   336.20157     -3245.281      -3264.7065      19.425486      6644.159       10112.159    
     29700   297.96577     -3246.1087     -3263.3249      17.216249      6832.1097      10112.159    
     29800   288.99624     -3247.5126     -3264.2106      16.697996      6712.6445      10112.159    
     29900   279.90533     -3247.8383     -3264.011       16.17273       6641.4409      10112.159    
     30000   303.14619     -3246.8201     -3264.3356      17.51557       6510.234       10112.159    
     30100   318.37124     -3245.302      -3263.6973      18.395263      6780.7632      10112.159    
     30200   312.31077     -3245.0771     -3263.1222      18.045093      7033.7666      10112.159    
     30300   302.53621     -3245.8009     -3263.2813      17.480326      6807.572       10112.159    
     30400   301.17542     -3246.7503     -3264.152       17.4017        6936.3408      10112.159    
     30500   272.75725     -3247.6841     -3263.4439      15.759719      6669.3242      10112.159    
     30600   320.32181     -3246.9152     -3265.4232      18.507965      6374.6677      10112.159    
     30700   298.3234      -3246.1831     -3263.42        17.236912      6847.4442      10112.159    
     30800   298.80595     -3244.9553     -3262.2201      17.264794      7156.9993      10112.159    
     30900   310.00111     -3245.0497     -3262.9614      17.911643      7327.8334      10112.159    
     31000   303.91881     -3245.6788     -3263.2391      17.560212      6895.9712      10112.159    
     31100   308.42597     -3246.7797     -3264.6004      17.820632      6488.5171      10112.159    
     31200   287.82162     -3247.5168     -3264.1469      16.630127      6572.9816      10112.159    
     31300   293.19352     -3247.0594     -3263.9999      16.940512      7012.676       10112.159    
     31400   303.18595     -3245.7499     -3263.2678      17.517867      6996.6626      10112.159    
     31500   310.13342     -3244.8058     -3262.7251      17.919287      7264.1734      10112.159    
     31600   311.09884     -3245.335      -3263.3101      17.975069      7096.0554      10112.159    
     31700   304.46577     -3245.7727     -3263.3646      17.591815      6984.8441      10112.159    
     31800   290.03564     -3246.4893     -3263.2473      16.758052      6779.8395      10112.159    
     31900   295.79038     -3247.0648     -3264.1553      17.090557      6731.0414      10112.159    
     32000   300.53993     -3247.2558     -3264.6207      17.364982      6417.1964      10112.159    
     32100   289.3782      -3246.5173     -3263.2374      16.720065      7091.0844      10112.159    
     32200   307.0682      -3245.0553     -3262.7975      17.742181      7300.4459      10112.159    
     32300   301.70085     -3245.3894     -3262.8215      17.432059      7318.6391      10112.159    
     32400   293.24435     -3246.6789     -3263.6224      16.943449      6950.7952      10112.159    
     32500   291.28807     -3247.1756     -3264.006       16.830417      6754.789       10112.159    
     32600   307.47987     -3246.9148     -3264.6808      17.765967      6609.6705      10112.159    
     32700   307.13823     -3246.191      -3263.9372      17.746227      6805.4151      10112.159    
     32800   303.82834     -3244.379      -3261.934       17.554984      7619.5175      10112.159    
     32900   305.80606     -3244.5649     -3262.2342      17.669256      7589.4711      10112.159    
     33000   316.07914     -3246.0107     -3264.2735      18.262827      6970.3405      10112.159    
     33100   299.1984      -3246.7059     -3263.9934      17.287469      6517.9549      10112.159    
     33200   299.67687     -3246.4893     -3263.8044      17.315115      6876.7576      10112.159    
     33300   300.45098     -3246.094      -3263.4538      17.359843      6845.535       10112.159    
     33400   289.29452     -3246.2599     -3262.9752      16.715231      7265.2744      10112.159    
     33500   295.37342     -3246.8413     -3263.9077      17.066465      6639.1138      10112.159    
     33600   309.14782     -3247.2775     -3265.1399      17.86234       6373.4876      10112.159    
     33700   299.401       -3247.2835     -3264.5827      17.299176      6383.5476      10112.159    
     33800   286.10047     -3246.4226     -3262.9533      16.530681      6955.4826      10112.159    
     33900   299.03544     -3245.1879     -3262.466       17.278054      7211.0981      10112.159    
     34000   313.63523     -3244.8734     -3262.995       18.121619      7130.2247      10112.159    
     34100   302.91533     -3246.3185     -3263.8207      17.502231      6611.2357      10112.159    
     34200   291.89833     -3247.6159     -3264.4816      16.865677      6409.3732      10112.159    
     34300   290.12496     -3247.6652     -3264.4284      16.763213      6498.1573      10112.159    
     34400   296.03393     -3246.5544     -3263.659       17.104629      6627.0984      10112.159    
     34500   317.64138     -3245.6869     -3264.04        18.353092      6905.0149      10112.159    
     34600   304.60744     -3246.217      -3263.817       17.6           6629.7753      10112.159    
     34700   288.38098     -3246.9966     -3263.6591      16.662447      6520.0036      10112.159    
     34800   290.15555     -3247.3542     -3264.1192      16.76498       6351.2516      10112.159    
     34900   291.70559     -3247.2816     -3264.1361      16.85454       6647.2131      10112.159    
     35000   298.13819     -3246.5        -3263.7262      17.226212      6688.1458      10112.159    
     35100   323.77701     -3245.3092     -3264.0168      18.707604      6955.0486      10112.159    
     35200   294.16983     -3245.4994     -3262.4963      16.996922      7388.665       10112.159    
     35300   298.16533     -3246.4305     -3263.6583      17.22778       6856.7756      10112.159    
     35400   288.8924      -3247.7881     -3264.4801      16.691996      6455.1718      10112.159    
     35500   295.71986     -3247.6821     -3264.7685      17.086482      6511.566       10112.159    
     35600   300.55379     -3246.8645     -3264.2303      17.365783      6566.3828      10112.159    
     35700   317.34792     -3245.9424     -3264.2785      18.336136      6776.1501      10112.159    
     35800   288.52017     -3246.3714     -3263.0418      16.670489      7218.038       10112.159    
     35900   307.06269     -3246.2591     -3264.001       17.741863      6738.8004      10112.159    
     36000   302.71367     -3246.3069     -3263.7974      17.490579      6536.7661      10112.159    
     36100   301.74514     -3246.806      -3264.2406      17.434619      6716.4999      10112.159    
     36200   302.4472      -3247.3924     -3264.8676      17.475183      6529.4655      10112.159    
     36300   271.27196     -3247.481      -3263.1549      15.6739        6866.3457      10112.159    
     36400   304.77161     -3246.0185     -3263.628       17.609486      7062.0249      10112.159    
     36500   316.47604     -3245.65       -3263.9357      18.285759      6809.3267      10112.159    
     36600   305.49354     -3245.9844     -3263.6356      17.651198      6875.4229      10112.159    
     36700   300.91767     -3246.3254     -3263.7122      17.386808      6766.8389      10112.159    
     36800   284.64045     -3248.263      -3264.7093      16.446321      6540.2523      10112.159    
     36900   282.23989     -3248.5303     -3264.8379      16.307619      6318.6104      10112.159    
     37000   271.93205     -3247.4266     -3263.1387      15.712039      6964.8748      10112.159    
     37100   316.97369     -3246.1264     -3264.4409      18.314513      6797.8847      10112.159    
     37200   303.01869     -3246.1878     -3263.696       17.508203      6698.8238      10112.159    
     37300   300.3476      -3246.3074     -3263.6613      17.353869      6681.2687      10112.159    
     37400   300.44693     -3246.774      -3264.1336      17.359609      6583.9466      10112.159    
     37500   282.55961     -3247.8034     -3264.1295      16.326092      6452.8851      10112.159    
     37600   292.02261     -3247.697      -3264.5699      16.872857      6564.819       10112.159    
     37700   308.19126     -3246.0484     -3263.8555      17.80707       6734.852       10112.159    
     37800   317.80272     -3245.4168     -3263.7792      18.362414      7073.3027      10112.159    
     37900   294.75683     -3246.0709     -3263.1018      17.030839      7125.9502      10112.159    
     38000   294.98158     -3246.49       -3263.5338      17.043825      7047.2751      10112.159    
     38100   311.26341     -3246.4964     -3264.481       17.984577      6667.6535      10112.159    
     38200   266.98811     -3247.9232     -3263.3495      15.426382      6744.2329      10112.159    
     38300   292.81635     -3248.6224     -3265.5411      16.918719      6116.5543      10112.159    
     38400   298.21314     -3247.7046     -3264.9352      17.230542      6562.8255      10112.159    
     38500   299.24156     -3246.5048     -3263.7948      17.289963      6704.6929      10112.159    
     38600   301.78878     -3246.2198     -3263.657       17.43714       7113.1258      10112.159    
     38700   293.05044     -3246.2952     -3263.2274      16.932245      6872.2162      10112.159    
     38800   307.45363     -3246.1825     -3263.947       17.764451      6713.249       10112.159    
     38900   296.61686     -3246.5634     -3263.7017      17.13831       6776.8893      10112.159    
     39000   297.12472     -3247.0018     -3264.1695      17.167654      6960.9841      10112.159    
     39100   291.31939     -3247.4295     -3264.2617      16.832226      6560.2313      10112.159    
     39200   287.06523     -3247.3955     -3263.9819      16.586423      6619.8563      10112.159    
     39300   306.72653     -3245.9208     -3263.6432      17.722439      6904.0602      10112.159    
     39400   305.35912     -3245.2583     -3262.9017      17.643431      6800.5592      10112.159    
     39500   308.48173     -3245.5124     -3263.3363      17.823854      6825.5162      10112.159    
     39600   290.04072     -3247.3326     -3264.091       16.758346      6659.3312      10112.159    
     39700   291.79072     -3247.7427     -3264.6021      16.859459      6364.169       10112.159    
     39800   298.2634      -3246.9417     -3264.1751      17.233446      6604.7064      10112.159    
     39900   310.54411     -3245.7935     -3263.7365      17.943016      6882.5591      10112.159    
     40000   292.86613     -3245.7278     -3262.6494      16.921596      7005.9357      10112.159    
     40100   300.81103     -3246.4741     -3263.8548      17.380646      6650.5747      10112.159    
     40200   281.17595     -3247.6301     -3263.8763      16.246145      6566.114       10112.159    
     40300   303.32514     -3247.3033     -3264.8292      17.525909      6419.6042      10112.159    
     40400   291.32967     -3246.9924     -3263.8253      16.83282       6760.7297      10112.159    
     40500   293.3984      -3246.185      -3263.1374      16.95235       7063.2663      10112.159    
     40600   305.41818     -3245.496      -3263.1428      17.646844      7232.7823      10112.159    
     40700   326.50584     -3244.9452     -3263.8105      18.865274      7058.5603      10112.159    
     40800   303.0595      -3245.309      -3262.8196      17.510561      7271.5835      10112.159    
     40900   296.90019     -3246.6355     -3263.7902      17.154681      6545.6892      10112.159    
     41000   296.63318     -3247.3402     -3264.4794      17.139253      6629.9268      10112.159    
     41100   285.14077     -3247.439      -3263.9142      16.47523       6598.7217      10112.159    
     41200   301.95196     -3246.0472     -3263.4937      17.446569      6970.4924      10112.159    
     41300   318.13268     -3245.1001     -3263.4816      18.381479      6994.8501      10112.159    
     41400   290.08628     -3245.6422     -3262.4032      16.760978      7384.6649      10112.159    
     41500   308.36398     -3246.22       -3264.037       17.81705       6870.2685      10112.159    
     41600   299.193       -3246.7613     -3264.0484      17.287157      6700.3793      10112.159    
     41700   292.72801     -3246.8039     -3263.7175      16.913615      6800.1579      10112.159    
     41800   298.24905     -3246.7251     -3263.9577      17.232617      6675.3298      10112.159    
     41900   309.59046     -3246.3009     -3264.1888      17.887916      6809.8192      10112.159    
     42000   306.04932     -3245.502      -3263.1853      17.683311      6997.735       10112.159    
     42100   317.8245      -3244.2578     -3262.6215      18.363673      7389.6121      10112.159    
     42200   312.08339     -3244.4212     -3262.4532      18.031955      7653.2556      10112.159    
     42300   300.83669     -3246.2934     -3263.6755      17.382129      6972.7124      10112.159    
     42400   302.31085     -3246.844      -3264.3113      17.467305      6718.4316      10112.159    
     42500   292.29662     -3247.0468     -3263.9355      16.88869       6653.1535      10112.159    
     42600   309.2504      -3246.287      -3264.1553      17.868267      6984.9686      10112.159    
     42700   316.123       -3245.238      -3263.5034      18.265361      6956.7463      10112.159    
     42800   304.3862      -3244.8981     -3262.4853      17.587217      7444.0228      10112.159    
     42900   302.59531     -3245.3148     -3262.7985      17.483741      7278.6966      10112.159    
     43000   299.93722     -3246.8549     -3264.1851      17.330158      6691.4779      10112.159    
     43100   300.57495     -3247.4079     -3264.7749      17.367005      6419.6982      10112.159    
     43200   297.55871     -3247.1369     -3264.3297      17.192729      6626.3536      10112.159    
     43300   299.99021     -3245.6788     -3263.012       17.33322       7163.6533      10112.159    
     43400   309.22605     -3244.7389     -3262.6058      17.86686       7160.598       10112.159    
     43500   307.028       -3245.3493     -3263.0892      17.739858      7057.1103      10112.159    
     43600   310.22129     -3246.1119     -3264.0363      17.924364      6826.3392      10112.159    
     43700   299.89657     -3246.8864     -3264.2143      17.327809      6665.7298      10112.159    
     43800   292.77903     -3247.0775     -3263.994       16.916563      6818.8238      10112.159    
     43900   313.55085     -3245.9565     -3264.0733      18.116744      6771.9469      10112.159    
     44000   315.09259     -3244.2242     -3262.43        18.205825      7256.9891      10112.159    
     44100   326.96155     -3244.4208     -3263.3124      18.891604      7151.2551      10112.159    
     44200   301.16691     -3245.8902     -3263.2914      17.401209      6937.8247      10112.159    
     44300   318.46499     -3246.3835     -3264.7842      18.400679      6682.4931      10112.159    
     44400   269.90001     -3247.0795     -3262.6741      15.59463       6937.1403      10112.159    
     44500   313.14391     -3246.2682     -3264.3615      18.093231      6688.9654      10112.159    
     44600   306.43295     -3246.3391     -3264.0445      17.705477      6960.749       10112.159    
     44700   285.81556     -3246.5375     -3263.0517      16.514219      7040.9807      10112.159    
     44800   290.77163     -3246.7847     -3263.5852      16.800577      7000.1718      10112.159    
     44900   302.48512     -3246.8613     -3264.3386      17.477374      6430.696       10112.159    
     45000   307.41645     -3246.4438     -3264.2061      17.762303      6824.1332      10112.159    
     45100   310.55001     -3245.5115     -3263.4548      17.943357      7012.3577      10112.159    
     45200   312.18865     -3244.7906     -3262.8286      18.038037      7235.7429      10112.159    
     45300   291.02322     -3246.1473     -3262.9624      16.815114      7198.802       10112.159    
     45400   305.38382     -3247.1973     -3264.8422      17.644859      6535.8228      10112.159    
     45500   300.84398     -3247.0732     -3264.4557      17.38255       6355.0559      10112.159    
     45600   286.67265     -3246.4731     -3263.0369      16.56374       7052.7006      10112.159    
     45700   316.48991     -3245.2276     -3263.5142      18.286561      6972.8471      10112.159    
     45800   301.8276      -3245.5404     -3262.9798      17.439383      7323.0646      10112.159    
     45900   294.17696     -3246.1387     -3263.136       16.997334      6806.7915      10112.159    
     46000   321.60123     -3245.9905     -3264.5724      18.581889      6759.7949      10112.159    
     46100   299.16102     -3246.7047     -3263.99        17.28531       6547.3078      10112.159    
     46200   287.19122     -3247.0823     -3263.676       16.593704      6976.6272      10112.159    
     46300   304.80885     -3246.0378     -3263.6494      17.611637      6702.9021      10112.159    
     46400   311.15848     -3244.7031     -3262.6816      17.978514      7308.9508      10112.159    
     46500   320.67416     -3244.9228     -3263.4511      18.528324      7026.8072      10112.159    
     46600   310.83175     -3246.4679     -3264.4276      17.959636      6810.2403      10112.159    
     46700   298.18083     -3246.5865     -3263.8152      17.228675      6946.0077      10112.159    
     46800   270.48029     -3246.7738     -3262.402       15.628158      7214.5422      10112.159    
     46900   318.89108     -3246.1681     -3264.5934      18.425299      6462.4226      10112.159    
     47000   317.22546     -3245.9345     -3264.2636      18.32906       6937.0983      10112.159    
     47100   305.46211     -3245.7316     -3263.381       17.649382      6934.3976      10112.159    
     47200   297.95057     -3246.114      -3263.3294      17.215371      7161.5968      10112.159    
     47300   293.74708     -3246.9938     -3263.9663      16.972496      6704.1611      10112.159    
     47400   296.20187     -3247.4896     -3264.6039      17.114332      6740.385       10112.159    
     47500   297.52453     -3247.2817     -3264.4725      17.190754      6567.9087      10112.159    
     47600   319.75338     -3245.6709     -3264.146       18.475121      7020.2365      10112.159    
     47700   296.45164     -3245.5032     -3262.6319      17.128764      7185.219       10112.159    
     47800   292.70292     -3246.131      -3263.0432      16.912165      7129.6106      10112.159    
     47900   292.3547      -3247.5644     -3264.4564      16.892045      6702.976       10112.159    
     48000   292.14025     -3247.8436     -3264.7233      16.879655      6425.2693      10112.159    
     48100   301.16531     -3247.2791     -3264.6802      17.401116      6808.753       10112.159    
     48200   287.63148     -3247.0462     -3263.6653      16.619141      6785.1116      10112.159    
     48300   300.33755     -3246.0774     -3263.4307      17.353289      7049.2321      10112.159    
     48400   316.481       -3245.3103     -3263.5963      18.286046      6961.0295      10112.159    
     48500   309.39864     -3245.9874     -3263.8643      17.876832      6913.1474      10112.159    
     48600   293.40874     -3246.5151     -3263.468       16.952947      6836.9951      10112.159    
     48700   299.17593     -3246.5241     -3263.8103      17.286171      6730.0273      10112.159    
     48800   286.22451     -3246.97       -3263.5078      16.537848      6816.8704      10112.159    
     48900   292.61217     -3246.9644     -3263.8713      16.906922      6610.1129      10112.159    
     49000   318.59923     -3245.8262     -3264.2346      18.408435      6527.9898      10112.159    
     49100   304.81595     -3244.9633     -3262.5753      17.612047      7259.8441      10112.159    
     49200   306.65696     -3244.527      -3262.2454      17.71842       7369.9551      10112.159    
     49300   302.8218      -3246.2856     -3263.7825      17.496827      6888.2201      10112.159    
     49400   293.75606     -3247.302      -3264.275       16.973015      6613.7422      10112.159    
     49500   296.22495     -3247.3374     -3264.4531      17.115665      6534.8006      10112.159    
     49600   308.37026     -3246.3854     -3264.2028      17.817413      6729.1351      10112.159    
     49700   288.57211     -3245.5693     -3262.2428      16.67349       7411.7813      10112.159    
     49800   309.01524     -3245.3211     -3263.1757      17.85468       6896.3863      10112.159    
     49900   301.90487     -3246.9463     -3264.3901      17.443848      6755.931       10112.159    
     50000   288.53169     -3248.1616     -3264.8328      16.671155      6611.0459      10112.159    
     50100   283.37338     -3247.5094     -3263.8825      16.373111      6852.0141      10112.159    
     50200   302.244       -3246.2072     -3263.6706      17.463442      6939.1533      10112.159    
     50300   305.59289     -3245.7239     -3263.3809      17.656939      6930.5705      10112.159    
     50400   303.08846     -3245.779      -3263.2913      17.512234      7040.8213      10112.159    
     50500   290.8806      -3247.197      -3264.0039      16.806873      7000.5085      10112.159    
     50600   283.40897     -3248.2211     -3264.5963      16.375168      6243.2016      10112.159    
     50700   289.82894     -3247.3806     -3264.1267      16.746109      6783.0087      10112.159    
     50800   321.83149     -3246.4238     -3265.019       18.595193      6512.9542      10112.159    
     50900   272.92369     -3246.6074     -3262.3767      15.769336      7048.7197      10112.159    
     51000   307.61526     -3245.9457     -3263.7195      17.77379       6827.3984      10112.159    
     51100   302.13436     -3246.2251     -3263.6822      17.457107      6884.532       10112.159    
     51200   313.79161     -3246.7642     -3264.8948      18.130655      6490.5438      10112.159    
     51300   266.28247     -3248.2843     -3263.6699      15.385611      6765.5084      10112.159    
     51400   287.37035     -3247.5609     -3264.165       16.604053      6803.9248      10112.159    
     51500   298.32498     -3246.3585     -3263.5955      17.237004      6968.8766      10112.159    
     51600   332.27093     -3245.5678     -3264.7662      19.198377      6635.9974      10112.159    
     51700   290.20713     -3246.1432     -3262.9111      16.76796       7052.9575      10112.159    
     51800   290.92291     -3246.268      -3263.0773      16.809318      7030.7802      10112.159    
     51900   296.06934     -3246.2381     -3263.3448      17.106675      7120.3282      10112.159    
     52000   322.24862     -3246.0454     -3264.6647      18.619295      6620.971       10112.159    
     52100   288.93693     -3246.6364     -3263.3309      16.694569      7053.4207      10112.159    
     52200   300.16563     -3246.5371     -3263.8805      17.343356      6777.2051      10112.159    
     52300   307.40214     -3246.327      -3264.0885      17.761476      6761.0729      10112.159    
     52400   291.36178     -3246.4278     -3263.2625      16.834675      6866.3459      10112.159    
     52500   285.27192     -3246.7271     -3263.2099      16.482808      6969.5664      10112.159    
     52600   310.56532     -3246.3231     -3264.2674      17.944242      6804.0943      10112.159    
     52700   289.86476     -3246.3555     -3263.1037      16.748179      7295.4719      10112.159    
     52800   298.13763     -3246.8662     -3264.0924      17.226179      6818.1631      10112.159    
     52900   297.40781     -3247.5596     -3264.7436      17.184011      6572.6781      10112.159    
     53000   284.40728     -3247.5473     -3263.9801      16.432849      6685.8929      10112.159    
     53100   297.20125     -3245.9879     -3263.16        17.172075      6994.6244      10112.159    
     53200   320.22252     -3245.0974     -3263.5996      18.502228      7110.7417      10112.159    
     53300   307.88932     -3245.7604     -3263.55        17.789624      6992.5086      10112.159    
     53400   289.4794      -3246.8425     -3263.5684      16.725913      6701.8622      10112.159    
     53500   291.62038     -3247.102      -3263.9516      16.849617      6768.9799      10112.159    
     53600   301.41069     -3246.8738     -3264.2891      17.415294      6883.5259      10112.159    
     53700   293.86775     -3246.611      -3263.5905      16.979468      7016.2958      10112.159    
     53800   306.20576     -3245.9008     -3263.5931      17.69235       7161.5417      10112.159    
     53900   317.38263     -3245.3017     -3263.6398      18.338141      7089.4883      10112.159    
     54000   318.2173      -3245.0036     -3263.39        18.386368      7231.6591      10112.159    
     54100   286.97584     -3246.323      -3262.9042      16.581259      6959.71        10112.159    
     54200   294.80375     -3246.962      -3263.9955      17.03355       6892.9996      10112.159    
     54300   304.87118     -3247.2296     -3264.8449      17.615239      6459.5034      10112.159    
     54400   294.61305     -3247.3577     -3264.3802      17.022532      6386.9254      10112.159    
     54500   305.72737     -3245.8139     -3263.4786      17.664709      7246.6507      10112.159    
     54600   308.97996     -3245.1907     -3263.0433      17.852641      7274.2925      10112.159    
     54700   302.45236     -3245.7573     -3263.2327      17.475481      7117.5668      10112.159    
     54800   300.76448     -3246.7032     -3264.0811      17.377957      6812.0346      10112.159    
     54900   284.92207     -3247.0703     -3263.5329      16.462593      6910.8677      10112.159    
     55000   309.3929      -3246.34       -3264.2165      17.876501      6735.4298      10112.159    
     55100   291.42434     -3246.1452     -3262.9835      16.83829       7072.851       10112.159    
     55200   305.27512     -3246.0183     -3263.6568      17.638578      6914.7931      10112.159    
     55300   300.11169     -3247.0171     -3264.3574      17.340239      6589.4454      10112.159    
     55400   284.32226     -3248.0742     -3264.5022      16.427937      6502.3166      10112.159    
     55500   290.41407     -3247.4978     -3264.2777      16.779917      6741.4864      10112.159    
     55600   308.68958     -3245.8995     -3263.7353      17.835863      6923.4284      10112.159    
     55700   290.15777     -3246.0088     -3262.7739      16.765108      7219.1033      10112.159    
     55800   313.52073     -3246.0384     -3264.1534      18.115004      6764.6791      10112.159    
     55900   294.22408     -3246.9359     -3263.936       17.000057      6818.4972      10112.159    
     56000   290.58365     -3247.8645     -3264.6542      16.789715      6413.176       10112.159    
     56100   280.35637     -3248.5375     -3264.7363      16.198791      6681.0502      10112.159    
     56200   308.61765     -3247.3468     -3265.1785      17.831707      6260.4235      10112.159    
     56300   294.58103     -3246.1476     -3263.1683      17.020681      6865.0428      10112.159    
     56400   306.42375     -3245.5261     -3263.231       17.704945      7011.1635      10112.159    
     56500   303.41577     -3245.946      -3263.4772      17.531146      6984.8671      10112.159    
     56600   299.72047     -3247.375      -3264.6927      17.317634      6314.2558      10112.159    
     56700   284.23703     -3248.2445     -3264.6675      16.423013      6351.8309      10112.159    
     56800   291.23602     -3247.7163     -3264.5437      16.827409      6232.9832      10112.159    
     56900   291.43239     -3247.1227     -3263.9614      16.838755      6764.9694      10112.159    
     57000   308.94629     -3246.0956     -3263.9463      17.850696      6728.6228      10112.159    
     57100   299.17059     -3245.8596     -3263.1455      17.285863      6949.9597      10112.159    
     57200   302.83048     -3246.0538     -3263.5511      17.497329      6941.4074      10112.159    
     57300   304.02672     -3247.1529     -3264.7193      17.566446      6603.4957      10112.159    
     57400   278.39648     -3248.8539     -3264.9395      16.08555       6201.9338      10112.159    
     57500   288.41636     -3247.8973     -3264.5618      16.664491      6427.866       10112.159    
     57600   301.17421     -3246.7        -3264.1017      17.401631      6479.1441      10112.159    
     57700   294.80367     -3246.1911     -3263.2246      17.033545      6823.0038      10112.159    
     57800   325.06197     -3245.3104     -3264.0923      18.781848      6666.9476      10112.159    
     57900   294.9653      -3245.6429     -3262.6857      17.042884      7162.405       10112.159    
     58000   285.11852     -3247.4951     -3263.969       16.473944      6655.421       10112.159    
     58100   293.63614     -3247.8023     -3264.7684      16.966086      6425.5421      10112.159    
     58200   311.13347     -3246.8598     -3264.8368      17.977069      6376.2051      10112.159    
     58300   298.77539     -3245.9464     -3263.2094      17.263028      6935.7517      10112.159    
     58400   303.7722      -3245.3958     -3262.9475      17.551741      6948.7544      10112.159    
     58500   297.0525      -3245.75       -3262.9135      17.163481      6954.8377      10112.159    
     58600   296.29323     -3246.148      -3263.2676      17.119611      6651.2966      10112.159    
     58700   313.98234     -3246.24       -3264.3817      18.141675      6593.3523      10112.159    
     58800   303.00926     -3246.6345     -3264.1422      17.507658      6530.1071      10112.159    
     58900   292.26094     -3246.9952     -3263.8819      16.886628      6795.5192      10112.159    
     59000   279.06808     -3247.4932     -3263.6176      16.124354      6667.0103      10112.159    
     59100   294.25154     -3247.1088     -3264.1104      17.001643      6628.7381      10112.159    
     59200   318.39461     -3245.7155     -3264.1122      18.396613      6836.7888      10112.159    
     59300   316.17343     -3245.3392     -3263.6075      18.268275      7007.9772      10112.159    
     59400   286.90794     -3246.3721     -3262.9495      16.577336      6936.4889      10112.159    
     59500   297.63388     -3246.9364     -3264.1335      17.197073      6465.7781      10112.159    
     59600   299.17203     -3247.1686     -3264.4546      17.285946      6627.8182      10112.159    
     59700   293.55834     -3247.2627     -3264.2243      16.961591      6471.9548      10112.159    
     59800   295.75611     -3246.6265     -3263.715       17.088576      6789.7348      10112.159    
     59900   309.78835     -3245.7206     -3263.62        17.899349      6872.2482      10112.159    
     60000   312.12778     -3245.4839     -3263.5184      18.03452       6905.4162      10112.159    
     60100   287.69409     -3246.4298     -3263.0525      16.622759      6753.7306      10112.159    
     60200   302.7911      -3247.1922     -3264.6872      17.495053      6518.5201      10112.159    
     60300   280.12002     -3248.7468     -3264.9319      16.185135      6218.6594      10112.159    
     60400   291.28939     -3248.4125     -3265.243       16.830493      6204.5098      10112.159    
     60500   281.96287     -3247.4773     -3263.769       16.291613      6725.9345      10112.159    
     60600   301.3837      -3246.6386     -3264.0523      17.413735      6795.5929      10112.159    
     60700   302.84872     -3246.1317     -3263.6301      17.498382      6857.2127      10112.159    
     60800   314.30412     -3245.5299     -3263.6901      18.160267      6955.7776      10112.159    
     60900   296.46609     -3245.4491     -3262.5787      17.129598      7210.2862      10112.159    
     61000   299.65703     -3246.4308     -3263.7448      17.313969      6848.3306      10112.159    
     61100   286.65408     -3247.7309     -3264.2936      16.562668      6557.7484      10112.159    
     61200   293.94253     -3247.4284     -3264.4122      16.983789      6531.8393      10112.159    
     61300   303.31592     -3246.4137     -3263.9391      17.525377      6918.6393      10112.159    
     61400   290.47774     -3245.9117     -3262.6953      16.783596      7033.9181      10112.159    
     61500   304.48528     -3245.8345     -3263.4275      17.592942      7245.1986      10112.159    
     61600   306.41575     -3246.2799     -3263.9843      17.704483      6709.4415      10112.159    
     61700   285.04842     -3246.7939     -3263.2638      16.469894      6794.3131      10112.159    
     61800   301.84316     -3246.5508     -3263.9911      17.440282      6599.2255      10112.159    
     61900   305.14938     -3246.2165     -3263.8478      17.631313      7059.5619      10112.159    
     62000   313.36829     -3245.3645     -3263.4707      18.106195      6843.4973      10112.159    
     62100   312.37184     -3245.4473     -3263.496       18.048621      6912.6183      10112.159    
     62200   284.97752     -3246.7384     -3263.2042      16.465797      6848.2248      10112.159    
     62300   291.59229     -3247.586      -3264.434       16.847994      6623.979       10112.159    
     62400   295.36227     -3247.4701     -3264.5359      17.065821      6300.4835      10112.159    
     62500   307.61015     -3245.5817     -3263.3552      17.773495      7098.7193      10112.159    
     62600   307.82723     -3244.8144     -3262.6004      17.786037      7205.6586      10112.159    
     62700   298.30826     -3245.6836     -3262.9196      17.236038      6868.107       10112.159    
     62800   298.0211      -3246.6964     -3263.9158      17.219446      6875.1802      10112.159    
     62900   305.99533     -3246.9199     -3264.6001      17.680191      6644.7816      10112.159    
     63000   290.02412     -3247.1114     -3263.8688      16.757386      6739.7734      10112.159    
     63100   297.68499     -3246.8123     -3264.0124      17.200026      6736.2378      10112.159    
     63200   307.81839     -3245.6104     -3263.3959      17.785526      7065.4364      10112.159    
     63300   302.64036     -3245.4275     -3262.9138      17.486344      7048.9634      10112.159    
     63400   313.51502     -3246.1542     -3264.2689      18.114673      6470.4665      10112.159    
     63500   287.10754     -3247.7164     -3264.3053      16.588869      6753.6949      10112.159    
     63600   293.36221     -3247.4399     -3264.3901      16.950259      6501.6449      10112.159    
     63700   291.41464     -3246.5681     -3263.4059      16.83773       6991.7894      10112.159    
     63800   302.35337     -3245.8458     -3263.3155      17.469762      6752.7322      10112.159    
     63900   313.37027     -3245.8329     -3263.9392      18.10631       7015.1559      10112.159    
     64000   301.23442     -3246.5024     -3263.9075      17.405109      6814.1282      10112.159    
     64100   288.093       -3246.6495     -3263.2953      16.645808      6976.8724      10112.159    
     64200   310.35629     -3246.1642     -3264.0964      17.932164      6636.5585      10112.159    
     64300   297.57444     -3246.1609     -3263.3545      17.193638      6879.1212      10112.159    
     64400   306.11832     -3245.2878     -3262.9751      17.687298      7186.7478      10112.159    
     64500   316.9576      -3245.5404     -3263.854       18.313583      6894.6826      10112.159    
     64600   283.50634     -3247.0401     -3263.4209      16.380793      6624.0086      10112.159    
     64700   309.22653     -3247.026      -3264.8929      17.866888      6437.2522      10112.159    
     64800   290.56077     -3246.767      -3263.5554      16.788394      6851.3215      10112.159    
     64900   310.30361     -3244.9332     -3262.8624      17.92912       6899.2704      10112.159    
     65000   314.72515     -3244.9956     -3263.1802      18.184594      7055.4822      10112.159    
     65100   313.90324     -3245.7845     -3263.9216      18.137105      6657.8845      10112.159    
     65200   292.78425     -3246.797      -3263.7139      16.916865      7008.6114      10112.159    
     65300   299.2256      -3246.9687     -3264.2577      17.289041      6741.3694      10112.159    
     65400   285.91925     -3246.7216     -3263.2418      16.52021       6821.9392      10112.159    
     65500   330.56828     -3244.6145     -3263.7145      19.099999      6990.1768      10112.159    
     65600   302.72497     -3245.1197     -3262.6109      17.491232      7387.8139      10112.159    
     65700   304.35964     -3246.3167     -3263.9024      17.585683      6723.7941      10112.159    
     65800   290.04509     -3247.0917     -3263.8503      16.758598      6828.3437      10112.159    
     65900   298.44025     -3246.7922     -3264.0359      17.243664      6789.0774      10112.159    
     66000   310.66429     -3245.8193     -3263.7693      17.949961      6921.1678      10112.159    
     66100   308.26267     -3244.8001     -3262.6113      17.811197      7212.5409      10112.159    
     66200   318.11432     -3244.2863     -3262.6667      18.380418      7084.8708      10112.159    
     66300   311.91196     -3245.5814     -3263.6035      18.02205       6908.3348      10112.159    
     66400   295.64691     -3247.0589     -3264.1411      17.082267      6384.6634      10112.159    
     66500   299.34545     -3247.0675     -3264.3635      17.295966      6739.7041      10112.159    
     66600   292.37718     -3246.4804     -3263.3737      16.893344      6985.9605      10112.159    
     66700   301.10222     -3245.3656     -3262.763       17.397471      7298.1138      10112.159    
     66800   331.95211     -3244.0628     -3263.2428      19.179955      6821.1911      10112.159    
     66900   314.15696     -3245.2159     -3263.3676      18.151764      6927.9128      10112.159    
     67000   288.31252     -3246.7111     -3263.3696      16.658491      7084.1754      10112.159    
     67100   297.3803      -3246.8288     -3264.0113      17.182421      6928.9107      10112.159    
     67200   298.80428     -3247.0181     -3264.2828      17.264698      6541.9914      10112.159    
     67300   304.14775     -3246.4084     -3263.9818      17.573439      6854.3234      10112.159    
     67400   306.66244     -3245.5747     -3263.2935      17.718736      7098.0944      10112.159    
     67500   313.31206     -3245.568      -3263.6709      18.102947      7214.0432      10112.159    
     67600   284.27766     -3247.0529     -3263.4783      16.42536       6919.9619      10112.159    
     67700   297.67591     -3247.5415     -3264.741       17.199501      6711.2625      10112.159    
     67800   288.42229     -3247.2024     -3263.8673      16.664834      6635.4508      10112.159    
     67900   310.26492     -3245.6287     -3263.5555      17.926885      6900.9192      10112.159    
     68000   317.22338     -3245.1846     -3263.5136      18.32894       7201.3722      10112.159    
     68100   309.00217     -3245.5766     -3263.4305      17.853924      7269.627       10112.159    
     68200   299.32959     -3246.079      -3263.374       17.29505       7116.5321      10112.159    
     68300   291.76592     -3246.4843     -3263.3424      16.858026      6818.096       10112.159    
     68400   327.3501      -3246.3559     -3265.2699      18.914055      6463.4745      10112.159    
     68500   274.52424     -3247.6056     -3263.4675      15.861814      6563.2201      10112.159    
     68600   282.95308     -3248.283      -3264.6318      16.348826      6517.1264      10112.159    
     68700   282.29604     -3248.2481     -3264.559       16.310863      6687.1455      10112.159    
     68800   303.99473     -3246.538      -3264.1026      17.564598      6673.7178      10112.159    
     68900   306.5209      -3245.528      -3263.2385      17.710559      7073.0086      10112.159    
     69000   311.28773     -3245.3948     -3263.3808      17.985983      7211.2806      10112.159    
     69100   291.60662     -3246.5468     -3263.3956      16.848822      6870.6025      10112.159    
     69200   294.22811     -3247.4991     -3264.4994      17.00029       6700.4269      10112.159    
     69300   293.7409      -3247.6895     -3264.6616      16.972139      6531.033       10112.159    
     69400   300.30836     -3247.1533     -3264.5049      17.351602      6455.4132      10112.159    
     69500   278.10435     -3246.7273     -3262.796       16.068671      6919.5072      10112.159    
     69600   304.27339     -3245.9303     -3263.511       17.580699      6948.8998      10112.159    
     69700   311.38948     -3245.8608     -3263.8527      17.991862      6928.05        10112.159    
     69800   289.47348     -3246.5548     -3263.2803      16.725571      6761.0516      10112.159    
     69900   298.94211     -3247.7965     -3265.0691      17.272661      6600.9816      10112.159    
     70000   282.2085      -3248.1666     -3264.4724      16.305805      6539.572       10112.159    
     70100   297.55471     -3246.8738     -3264.0663      17.192498      6845.7425      10112.159    
     70200   298.94906     -3246.1832     -3263.4563      17.273063      6987.5219      10112.159    
     70300   314.96468     -3246.0826     -3264.2811      18.198434      6904.7875      10112.159    
     70400   294.99658     -3246.87       -3263.9147      17.044692      6736.6359      10112.159    
     70500   287.51329     -3247.1156     -3263.7279      16.612312      6656.0625      10112.159    
     70600   299.31283     -3245.8098     -3263.1039      17.294081      6929.8037      10112.159    
     70700   312.2964      -3244.7165     -3262.7608      18.044263      7373.9423      10112.159    
     70800   315.41137     -3245.2554     -3263.4796      18.224243      7017.9118      10112.159    
     70900   296.03113     -3246.827      -3263.9314      17.104467      6695.8295      10112.159    
     71000   291.14077     -3247.2603     -3264.0822      16.821905      6718.1895      10112.159    
     71100   307.37323     -3246.788      -3264.5478      17.759805      6616.2542      10112.159    
     71200   302.02539     -3246.0166     -3263.4675      17.450811      7192.5606      10112.159    
     71300   301.59245     -3245.3182     -3262.744       17.425796      7196.2379      10112.159    
     71400   303.93596     -3246.0482     -3263.6094      17.561202      6949.8382      10112.159    
     71500   295.8313      -3247.5956     -3264.6886      17.092921      6296.8033      10112.159    
     71600   301.62599     -3247.3024     -3264.7301      17.427734      6644.5743      10112.159    
     71700   289.02302     -3246.3667     -3263.0662      16.699543      6932.1812      10112.159    
     71800   306.56572     -3245.4707     -3263.1838      17.713148      7188.1466      10112.159    
     71900   317.79227     -3245.5914     -3263.9532      18.36181       6805.9648      10112.159    
     72000   294.57202     -3246.1699     -3263.19        17.02016       7096.6284      10112.159    
     72100   298.43182     -3246.4223     -3263.6655      17.243177      7007.0287      10112.159    
     72200   296.56989     -3246.5777     -3263.7133      17.135596      7229.4149      10112.159    
     72300   302.43682     -3246.3816     -3263.8561      17.474583      6816.5229      10112.159    
     72400   300.83164     -3246.0667     -3263.4485      17.381837      7060.936       10112.159    
     72500   312.03482     -3245.8397     -3263.8688      18.029149      6567.5415      10112.159    
     72600   289.90307     -3246.7367     -3263.4871      16.750392      6881.6831      10112.159    
     72700   304.90804     -3247.0314     -3264.6488      17.617368      6682.4071      10112.159    
     72800   286.11056     -3247.2068     -3263.7381      16.531263      7013.9107      10112.159    
     72900   290.72232     -3246.5503     -3263.348       16.797728      6924.7304      10112.159    
     73000   316.53831     -3245.414      -3263.7033      18.289357      7035.1296      10112.159    
     73100   306.84404     -3245.5248     -3263.254       17.729229      7103.6256      10112.159    
     73200   288.75091     -3246.579      -3263.2628      16.683821      6951.3758      10112.159    
     73300   298.23043     -3247.757      -3264.9886      17.231541      6557.0261      10112.159    
     73400   281.37998     -3247.812      -3264.07        16.257934      6618.7996      10112.159    
     73500   301.15655     -3246.8727     -3264.2733      17.40061       6732.8301      10112.159    
     73600   293.12914     -3246.574      -3263.5108      16.936792      7085.9812      10112.159    
     73700   308.68794     -3246.1585     -3263.9943      17.835769      6684.9283      10112.159    
     73800   301.5392      -3246.3157     -3263.7384      17.422719      6670.3491      10112.159    
     73900   289.71669     -3246.9898     -3263.7295      16.739623      6807.108       10112.159    
     74000   297.33413     -3247.5395     -3264.7193      17.179754      6720.4681      10112.159    
     74100   290.73653     -3247.617      -3264.4156      16.798549      6592.9673      10112.159    
     74200   292.91966     -3246.3286     -3263.2533      16.924688      7022.592       10112.159    
     74300   311.32714     -3245.5077     -3263.496       17.988259      7074.8563      10112.159    
     74400   303.78193     -3245.7273     -3263.2796      17.552303      7165.6692      10112.159    
     74500   305.20131     -3246.2653     -3263.8996      17.634313      7094.3212      10112.159    
     74600   282.99777     -3247.989      -3264.3404      16.351409      6481.3101      10112.159    
     74700   289.37292     -3248.239      -3264.9588      16.71976       6363.7169      10112.159    
     74800   287.50656     -3247.6015     -3264.2134      16.611924      6602.2011      10112.159    
     74900   295.96603     -3246.6326     -3263.7333      17.100705      6858.1041      10112.159    
     75000   298.62578     -3245.9581     -3263.2125      17.254384      6900.6228      10112.159    
     75100   309.12009     -3245.5839     -3263.4446      17.860738      6957.7818      10112.159    
     75200   311.3975      -3246.0475     -3264.0398      17.992325      6836.2945      10112.159    
     75300   288.16087     -3247.6916     -3264.3414      16.649729      6610.6069      10112.159    
     75400   296.7883      -3247.7452     -3264.8935      17.148216      6618.9186      10112.159    
[...]
    281800   294.97792     -3246.7661     -3263.8097      17.043614      6600.4617      10112.159    
    281900   311.52106     -3246.5486     -3264.548       17.999464      6736.875       10112.159    
    282000   278.09844     -3246.5001     -3262.5685      16.068329      6999.352       10112.159    
    282100   308.13864     -3245.7672     -3263.5712      17.80403       6721.4061      10112.159    
    282200   324.40352     -3245.3726     -3264.1164      18.743803      6724.9847      10112.159    
    282300   291.47788     -3246.2913     -3263.1327      16.841383      6863.7043      10112.159    
    282400   291.71617     -3247.1712     -3264.0264      16.855152      6745.4888      10112.159    
    282500   282.34625     -3248.0039     -3264.3176      16.313764      6616.653       10112.159    
    282600   308.92334     -3246.8935     -3264.7428      17.84937       6562.4507      10112.159    
    282700   286.39152     -3245.6193     -3262.1668      16.547497      7365.0956      10112.159    
    282800   324.6481      -3244.8673     -3263.6253      18.757935      6999.6963      10112.159    
    282900   305.72146     -3246.1952     -3263.8596      17.664367      6994.0806      10112.159    
    283000   280.83135     -3246.8146     -3263.0408      16.226235      6696.7758      10112.159    
    283100   318.21167     -3245.8768     -3264.2628      18.386043      6860.7191      10112.159    
    283200   295.94819     -3246.2046     -3263.3043      17.099675      6777.0458      10112.159    
    283300   300.82956     -3246.8572     -3264.2389      17.381717      6758.4643      10112.159    
    283400   285.39238     -3248.061      -3264.5507      16.489767      6453.1607      10112.159    
    283500   282.63525     -3249.102      -3265.4325      16.330462      6395.0877      10112.159    
    283600   279.88221     -3248.1992     -3264.3706      16.171394      6283.824       10112.159    
    283700   291.30929     -3246.6881     -3263.5197      16.831643      6823.4821      10112.159    
    283800   310.99566     -3245.8571     -3263.8262      17.969107      6819.6211      10112.159    
    283900   311.48987     -3245.3781     -3263.3758      17.997662      7180.2506      10112.159    
    284000   298.25296     -3246.0444     -3263.2772      17.232842      6904.0475      10112.159    
    284100   294.10691     -3247.1597     -3264.153       16.993287      6603.7899      10112.159    
    284200   288.1026      -3247.4067     -3264.053       16.646362      6607.6479      10112.159    
    284300   318.08709     -3246.6989     -3265.0777      18.378845      6711.09        10112.159    
    284400   287.7112      -3246.4768     -3263.1005      16.623747      6947.014       10112.159    
    284500   308.01946     -3246.2129     -3264.0101      17.797144      6821.2896      10112.159    
    284600   292.03189     -3246.5952     -3263.4686      16.873394      6881.6551      10112.159    
    284700   289.38769     -3246.9856     -3263.7062      16.720614      6845.9694      10112.159    
    284800   301.53238     -3247.3646     -3264.7869      17.422325      6452.8973      10112.159    
    284900   296.00046     -3247.3594     -3264.4621      17.102695      6611.5284      10112.159    
    285000   293.05617     -3246.2699     -3263.2025      16.932576      6940.3419      10112.159    
    285100   303.54329     -3245.2135     -3262.752       17.538514      7337.0488      10112.159    
    285200   310.80131     -3245.4366     -3263.3945      17.957877      7012.4257      10112.159    
    285300   303.26435     -3246.7778     -3264.3002      17.522397      6491.4344      10112.159    
    285400   301.12725     -3247.2434     -3264.6423      17.398917      6522.4135      10112.159    
    285500   292.12462     -3246.8938     -3263.7726      16.878751      6864.1888      10112.159    
    285600   293.85621     -3246.3606     -3263.3394      16.978802      6920.7824      10112.159    
    285700   302.80199     -3245.8537     -3263.3494      17.495682      7159.9362      10112.159    
    285800   323.16013     -3244.6056     -3263.2776      18.671961      7250.2237      10112.159    
    285900   324.89471     -3244.3561     -3263.1283      18.772184      7176.8983      10112.159    
    286000   299.01137     -3246.2433     -3263.5199      17.276663      6810.8017      10112.159    
    286100   282.3947      -3247.0989     -3263.4155      16.316564      6993.5152      10112.159    
    286200   297.49671     -3246.7886     -3263.9778      17.189147      6782.7476      10112.159    
    286300   310.01101     -3245.9982     -3263.9105      17.912215      6785.6944      10112.159    
    286400   311.57603     -3245.2135     -3263.2161      18.00264       7133.4014      10112.159    
    286500   309.42165     -3244.416      -3262.2942      17.878162      7493.6605      10112.159    
    286600   297.80204     -3245.3244     -3262.5312      17.206789      7449.4846      10112.159    
    286700   297.82178     -3246.8928     -3264.1007      17.20793       6694.0519      10112.159    
    286800   311.83014     -3247.0762     -3265.0935      18.017322      6646.5677      10112.159    
    286900   289.1906      -3247.0418     -3263.7511      16.709226      6907.6499      10112.159    
    287000   298.99028     -3245.6923     -3262.9677      17.275445      7285.8303      10112.159    
    287100   298.20084     -3245.1112     -3262.341       17.229831      7530.0175      10112.159    
    287200   322.37161     -3245.3044     -3263.9308      18.626401      6862.8241      10112.159    
    287300   304.87361     -3246.1286     -3263.7439      17.615379      6975.5958      10112.159    
    287400   303.43997     -3246.3732     -3263.9057      17.532544      7099.2107      10112.159    
    287500   297.38088     -3246.6668     -3263.8492      17.182455      6917.6028      10112.159    
    287600   283.85667     -3247.7637     -3264.1647      16.401036      6778.5588      10112.159    
    287700   279.35064     -3248.6067     -3264.7474      16.14068       6514.6548      10112.159    
    287800   295.83529     -3247.4689     -3264.5621      17.093152      6602.6927      10112.159    
    287900   307.19494     -3245.9353     -3263.6849      17.749504      6855.0939      10112.159    
    288000   297.57281     -3245.7831     -3262.9767      17.193544      7079.9657      10112.159    
    288100   305.66846     -3246.1236     -3263.7849      17.661305      7028.933       10112.159    
    288200   295.89448     -3247.3089     -3264.4054      17.096572      6805.9643      10112.159    
    288300   286.5155      -3247.9573     -3264.512       16.554661      6803.7026      10112.159    
    288400   305.23206     -3246.6944     -3264.3305      17.63609       6900.9984      10112.159    
    288500   300.71689     -3245.2705     -3262.6457      17.375207      7430.4987      10112.159    
    288600   306.33865     -3245.3099     -3263.0099      17.700028      6987.7263      10112.159    
    288700   309.37024     -3246.2634     -3264.1386      17.875191      6736.8116      10112.159    
    288800   294.48629     -3247.6024     -3264.6176      17.015207      6374.1902      10112.159    
    288900   279.5458      -3247.5511     -3263.7031      16.151956      6777.4355      10112.159    
    289000   303.66887     -3246.8184     -3264.3642      17.54577       6787.2838      10112.159    
    289100   297.08995     -3246.5394     -3263.705       17.165645      6811.8693      10112.159    
    289200   305.7956      -3245.9324     -3263.6011      17.668651      6892.7364      10112.159    
    289300   320.9766      -3244.7105     -3263.2563      18.545798      7210.6372      10112.159    
    289400   308.72539     -3244.1727     -3262.0106      17.837932      7392.0582      10112.159    
    289500   299.65717     -3245.6742     -3262.9882      17.313977      7077.8944      10112.159    
    289600   301.61126     -3246.8851     -3264.312       17.426883      6715.9986      10112.159    
    289700   303.5854      -3247.0321     -3264.573       17.540947      6609.4116      10112.159    
    289800   302.11564     -3246.6099     -3264.0659      17.456026      6996.7123      10112.159    
    289900   287.73362     -3245.7483     -3262.3734      16.625043      6996.9547      10112.159    
    290000   323.56419     -3244.3999     -3263.0952      18.695307      7045.1717      10112.159    
    290100   313.14586     -3244.9398     -3263.0331      18.093344      7289.5358      10112.159    
    290200   293.69988     -3246.7119     -3263.6817      16.969769      6733.561       10112.159    
    290300   294.00614     -3247.1233     -3264.1108      16.987464      6855.7389      10112.159    
    290400   296.70216     -3246.9934     -3264.1366      17.143239      6683.1367      10112.159    
    290500   308.832       -3246.1155     -3263.9596      17.844092      6682.0681      10112.159    
    290600   308.41912     -3245.3658     -3263.1861      17.820236      7151.8353      10112.159    
    290700   296.79947     -3245.7343     -3262.8831      17.148861      7133.3968      10112.159    
    290800   295.91821     -3247.36       -3264.4579      17.097942      6587.2425      10112.159    
    290900   281.58051     -3248.1697     -3264.4392      16.26952       6674.9297      10112.159    
    291000   285.36008     -3247.5769     -3264.0648      16.487902      6905.8691      10112.159    
    291100   307.09797     -3246.6048     -3264.3487      17.743901      6809.7063      10112.159    
    291200   290.94091     -3246.345      -3263.1554      16.810358      6954.2116      10112.159    
    291300   306.30828     -3245.9081     -3263.6063      17.698273      7010.0253      10112.159    
    291400   285.61689     -3246.5153     -3263.018       16.50274       6989.9469      10112.159    
    291500   295.67425     -3247.6906     -3264.7745      17.083847      6517.2         10112.159    
    291600   283.54059     -3248.6011     -3264.9839      16.382772      6215.0594      10112.159    
    291700   300.27812     -3247.5973     -3264.9471      17.349855      6602.6362      10112.159    
    291800   277.98863     -3246.8853     -3262.9473      16.061984      7177.0509      10112.159    
    291900   306.6122      -3246.3628     -3264.0787      17.715833      6964.1466      10112.159    
    292000   304.23177     -3246.4312     -3264.0095      17.578294      6729.3582      10112.159    
    292100   297.27348     -3246.6236     -3263.7998      17.176249      6893.4609      10112.159    
    292200   311.77702     -3246.4249     -3264.4392      18.014253      6846.0925      10112.159    
    292300   291.61637     -3246.3155     -3263.1649      16.849385      6913.7938      10112.159    
    292400   298.1195      -3245.9682     -3263.1933      17.225131      6951.2449      10112.159    
    292500   318.47806     -3245.8739     -3264.2753      18.401434      6785.4364      10112.159    
    292600   299.84488     -3246.7761     -3264.1009      17.324823      6744.4894      10112.159    
    292700   285.38671     -3247.5295     -3264.0189      16.48944       6769.5398      10112.159    
    292800   287.29752     -3247.5105     -3264.1103      16.599845      6595.6907      10112.159    
    292900   304.89468     -3246.2671     -3263.8837      17.616596      6646.3611      10112.159    
    293000   331.3124      -3244.9675     -3264.1104      19.142994      6856.8898      10112.159    
    293100   314.63428     -3245.2575     -3263.4369      18.179344      7012.3068      10112.159    
    293200   294.10271     -3246.2886     -3263.2816      16.993044      6894.1057      10112.159    
    293300   301.85009     -3246.5119     -3263.9526      17.440682      6806.7833      10112.159    
    293400   301.12095     -3246.5313     -3263.9299      17.398553      7010.5658      10112.159    
    293500   292.36976     -3246.6226     -3263.5155      16.892916      6590.3247      10112.159    
    293600   311.71562     -3246.135      -3264.1457      18.010706      6773.3883      10112.159    
    293700   309.12452     -3244.9802     -3262.8412      17.860994      7136.7863      10112.159    
    293800   319.14137     -3244.5618     -3263.0016      18.43976       7163.2721      10112.159    
    293900   288.18196     -3246.2557     -3262.9067      16.650948      7235.6153      10112.159    
    294000   298.78762     -3246.6193     -3263.883       17.263735      6791.8752      10112.159    
    294100   315.378       -3246.7138     -3264.9361      18.222315      6501.3452      10112.159    
    294200   287.47291     -3247.2209     -3263.8309      16.609979      6753.475       10112.159    
    294300   304.11496     -3246.3056     -3263.8772      17.571545      6674.9047      10112.159    
    294400   302.12346     -3245.0574     -3262.5139      17.456477      7366.1737      10112.159    
    294500   323.71169     -3244.3001     -3263.004       18.70383       7259.7354      10112.159    
    294600   316.54114     -3245.5841     -3263.8736      18.289521      6933.0064      10112.159    
    294700   296.9018      -3246.4129     -3263.5677      17.154774      6877.9875      10112.159    
    294800   287.41951     -3246.7142     -3263.3211      16.606894      6885.394       10112.159    
    294900   306.26057     -3246.3955     -3264.091       17.695517      7014.9195      10112.159    
    295000   314.07079     -3245.9943     -3264.1411      18.146786      6784.8458      10112.159    
    295100   290.85671     -3246.5052     -3263.3107      16.805492      6947.923       10112.159    
    295200   294.88805     -3247.0242     -3264.0626      17.038421      6867.2342      10112.159    
    295300   291.53989     -3247.5831     -3264.428       16.844966      6524.5112      10112.159    
    295400   298.61131     -3246.9666     -3264.2202      17.253548      6706.7628      10112.159    
    295500   314.445       -3245.6918     -3263.8602      18.168407      6948.8659      10112.159    
    295600   299.6172      -3245.6463     -3262.9579      17.311668      7114.3056      10112.159    
    295700   292.42752     -3246.3418     -3263.2381      16.896253      7203.1871      10112.159    
    295800   291.73001     -3247.992      -3264.848       16.855951      6520.4436      10112.159    
    295900   293.34421     -3247.7961     -3264.7453      16.949219      6589.5976      10112.159    
    296000   291.81343     -3246.894      -3263.7548      16.860771      6764.854       10112.159    
    296100   297.48231     -3246.247      -3263.4354      17.188315      7058.5858      10112.159    
    296200   308.9995      -3246.1072     -3263.961       17.85377       7080.869       10112.159    
    296300   301.13437     -3246.4404     -3263.8397      17.399328      6652.0267      10112.159    
    296400   283.71226     -3247.2153     -3263.608       16.392691      6769.8459      10112.159    
    296500   284.03996     -3248.739      -3265.1506      16.411626      6579.929       10112.159    
    296600   288.22022     -3248.3081     -3264.9613      16.653158      6503.9602      10112.159    
    296700   297.24137     -3247.1368     -3264.3112      17.174394      6614.965       10112.159    
    296800   291.4254      -3246.6982     -3263.5366      16.838351      6784.4917      10112.159    
    296900   298.84579     -3245.834      -3263.1011      17.267096      7235.938       10112.159    
    297000   306.77964     -3245.361      -3263.0865      17.725508      7278.9959      10112.159    
    297100   294.90274     -3246.7091     -3263.7484      17.039269      7004.3154      10112.159    
    297200   289.81765     -3247.8421     -3264.5875      16.745457      6681.9579      10112.159    
    297300   293.46247     -3247.3376     -3264.2937      16.956052      6974.4253      10112.159    
    297400   308.6139      -3246.513      -3264.3445      17.831491      6761.0845      10112.159    
    297500   306.35171     -3245.9807     -3263.6815      17.700783      7257.7782      10112.159    
    297600   310.09546     -3244.322      -3262.2391      17.917094      7720.3188      10112.159    
    297700   310.64388     -3243.86       -3261.8088      17.948781      7748.145       10112.159    
    297800   316.87126     -3244.8945     -3263.2031      18.308595      7324.1894      10112.159    
    297900   312.23887     -3246.0574     -3264.0983      18.040939      6798.6034      10112.159    
    298000   303.1514      -3246.5818     -3264.0976      17.515871      6736.7633      10112.159    
    298100   284.87826     -3247.0423     -3263.5023      16.460062      7063.2885      10112.159    
    298200   298.1471      -3247.2508     -3264.4775      17.226726      6848.1581      10112.159    
    298300   286.15034     -3247.3359     -3263.8694      16.533562      6974.19        10112.159    
    298400   304.97611     -3246.1813     -3263.8026      17.621301      7173.2457      10112.159    
    298500   325.15464     -3245.1909     -3263.9781      18.787203      7229.0329      10112.159    
    298600   293.39813     -3245.4244     -3262.3767      16.952334      7416.8486      10112.159    
    298700   293.2142      -3246.7907     -3263.7324      16.941707      6906.7492      10112.159    
    298800   295.21608     -3247.9979     -3265.0553      17.057374      6620.4004      10112.159    
    298900   297.78595     -3247.5046     -3264.7105      17.205859      6707.1297      10112.159    
    299000   300.82488     -3246.3351     -3263.7166      17.381447      7143.096       10112.159    
    299100   287.39958     -3245.9453     -3262.5511      16.605742      7365.9322      10112.159    
    299200   303.1034      -3245.9385     -3263.4516      17.513097      7190.7771      10112.159    
    299300   308.65357     -3246.5177     -3264.3515      17.833782      6693.6316      10112.159    
    299400   293.27066     -3248.4586     -3265.4035      16.944969      6348.813       10112.159    
    299500   272.77059     -3248.5571     -3264.3176      15.76049       6830.0215      10112.159    
    299600   295.36881     -3247.2198     -3264.286       17.066199      6780.3796      10112.159    
    299700   306.15377     -3246.3583     -3264.0477      17.689346      6946.2812      10112.159    
    299800   298.32746     -3246.0084     -3263.2456      17.237147      7336.4687      10112.159    
    299900   312.39454     -3245.4869     -3263.5368      18.049933      7157.3346      10112.159    
    300000   310.56538     -3245.1855     -3263.1297      17.944246      7079.9013      10112.159    
Loop time of 2285.47 on 20 procs for 300000 steps with 448 atoms

Performance: 11.341 ns/day, 2.116 hours/ns, 131.264 timesteps/s, 58.806 katom-step/s
99.9% CPU use with 20 MPI tasks x 1 OpenMP threads

MPI task timing breakdown:
Section |  min time  |  avg time  |  max time  |%varavg| %total
---------------------------------------------------------------
Pair    | 1743.3     | 1998       | 2185.9     | 412.2 | 87.42
Neigh   | 20.241     | 28.284     | 34.517     | 118.8 |  1.24
Comm    | 62.357     | 256.03     | 519.1      |1190.9 | 11.20
Output  | 0.36647    | 0.57951    | 0.64517    |   7.4 |  0.03
Modify  | 1.9308     | 2.2977     | 2.6347     |  12.6 |  0.10
Other   |            | 0.2879     |            |       |  0.01

Nlocal:           22.4 ave          24 max          18 min
Histogram: 1 2 0 2 0 2 1 0 0 12
Nghost:          495.6 ave         522 max         466 min
Histogram: 4 0 0 6 2 0 0 0 0 8
Neighs:              0 ave           0 max           0 min
Histogram: 20 0 0 0 0 0 0 0 0 0
FullNghs:       1275.9 ave        1373 max        1023 min
Histogram: 1 2 0 2 0 2 1 0 0 12

Total # of neighbors = 25518
Ave neighs/atom = 56.959821
Neighbor list builds = 300000
Dangerous builds not checked
Total wall time: 0:38:05
