ITEM: TIMESTEP
0
ITEM: NUMBER OF ATOMS
630
ITEM: BOX BOUNDS pp pp pp
0.0000000000000000e+00 4.8302314085994816e+01
0.0000000000000000e+00 5.0197237398508086e+01
0.0000000000000000e+00 4.5139087810335219e+01
ITEM: ATOMS id type x y z c_ke_per_atom
809 1     9.64514458    24.14500494    21.33037148 2.03029847e-02
1093 1    12.86621798    18.56720007    16.31475803 6.47765681e-03
1096 1    11.25609533    21.35609164    16.31471273 2.19304268e-02
1097 1    12.86610833    18.56713346    21.33042117 8.27035912e-03
1098 1    11.25573462    17.63735944    23.83824066 1.47645489e-02
1100 1    11.25583715    21.35605932    21.33038426 2.00291389e-04
1101 1    12.86589290    18.56701048    26.34619160 6.66848269e-03
1104 1    11.25565145    21.35598701    26.34621111 2.95601665e-02
1129 1    12.86528174    24.14506859    16.31427670 7.76291489e-04
1130 1    11.25485116    23.21513668    18.82239064 4.03119902e-02
1132 1    11.25541713    26.93406038    16.31448401 2.77012690e-02
1133 1    12.86430521    24.14498356    21.33026457 9.03192717e-02
1134 1    11.25453623    23.21508902    23.83835154 5.32622433e-02
1135 1     9.64514458    26.00413400    23.83830377 4.45994141e-02
1136 1    11.25453623    26.93404992    21.33032372 5.85441202e-02
1137 1    12.86455269    24.14491301    26.34661467 8.45737256e-03
1138 1    11.25541713    23.21507856    28.85419125 2.81210120e-03
1140 1    11.25485116    26.93400226    26.34628462 3.89939812e-02
1141 1    12.86594538    24.14502799    31.36206157 3.39189333e-03
1165 1    12.86556533    29.72302568    16.31456092 1.81193720e-02
1166 1    11.25565145    28.79315193    18.82246415 1.14984652e-02
1169 1    12.86510724    29.72317181    21.33039428 8.12740630e-03
1170 1    11.25583716    28.79307962    23.83829100 1.49911885e-02
1172 1    11.25573462    32.51177950    21.33043459 4.30629438e-04
1173 1    12.86556897    29.72303310    26.34609631 5.88639875e-02
1174 1    11.25609533    28.79304731    28.85396253 1.91481958e-02
1384 1    14.47637826    15.77833311    16.31471620 8.40951827e-02
1385 1    16.08613016    12.98873219    21.33037241 2.11977979e-02
1388 1    14.47621820    15.77811770    21.33038489 2.14511318e-02
1392 1    14.47606243    15.77799600    26.34620838 2.33126197e-02
1417 1    16.08632948    18.56708528    16.31450285 1.89655143e-02
1418 1    14.47574960    17.63716333    18.82257996 3.54823436e-02
1419 1    12.86556896    20.42610584    18.82257895 3.03210784e-03
1420 1    14.47617802    21.35597382    16.31450173 1.53613153e-02
1421 1    16.08632474    18.56695819    21.33040915 7.17499191e-02
1422 1    14.47539903    17.63683019    23.83828047 4.02096163e-02
1423 1    12.86510724    20.42596713    23.83828098 5.14360690e-03
1424 1    14.47606925    21.35603148    21.33040903 5.54563818e-03
1425 1    16.08576974    18.56654667    26.34654307 1.88287240e-03
1426 1    14.47575235    17.63716239    28.85411263 3.13595777e-02
1427 1    12.86556532    20.42611326    28.85411434 1.87737325e-02
1428 1    14.47543381    21.35575814    26.34654405 5.68397063e-02
1429 1    16.08618287    18.56691344    31.36218632 2.71497548e-02
1432 1    14.47595241    21.35593636    31.36218775 7.11592984e-03
1449 1    16.08617246    24.14500992    11.29857879 8.45251311e-03
1450 1    14.47570708    23.21510421    13.80646418 1.93238242e-02
1451 1    12.86594538    26.00411096    13.80661369 6.00799325e-03
1452 1    14.47626364    26.93392692    11.29889180 2.44938535e-03
1453 1    16.08462286    24.14516808    16.31332575 1.15772510e-01
1454 1    14.47359397    23.21504269    18.82204651 2.83812725e-02
1455 1    12.86455269    26.00422593    18.82206059 1.38446011e-02
1456 1    14.47505837    26.93437437    16.31391698 5.95182811e-02
1457 1    16.08316334    24.14508839    21.33003303 4.18212217e-02
1458 1    14.47296880    23.21501958    23.83856043 2.86467098e-02
1459 1    12.86430521    26.00415538    23.83841069 2.80681406e-02
1460 1    14.47296880    26.93411935    21.33011484 2.03898861e-02
1461 1    16.08328214    24.14481599    26.34767765 2.28262839e-01
1462 1    14.47505837    23.21476457    28.85475829 3.07433975e-02
1463 1    12.86528174    26.00407035    28.85439856 4.24113957e-03
1464 1    14.47359397    26.93409624    26.34662875 5.50538194e-02
1465 1    16.08609869    24.14499632    31.36259986 4.04564358e-02
1466 1    14.47626364    23.21521202    33.86978346 2.39822237e-02
1468 1    14.47570709    26.93403473    31.36221108 4.48285428e-03
1485 1    16.08621016    29.72286677    11.29869255 4.77025317e-02
1486 1    14.47595241    28.79320258    13.80648751 4.82437733e-03
1489 1    16.08523102    29.72343712    16.31403293 5.82296348e-02
1490 1    14.47543381    28.79338079    18.82213121 3.41075737e-02
1491 1    12.86589291    31.58212846    18.82248366 3.95240263e-02
1492 1    14.47575236    32.51197655    16.31456263 3.30099328e-02
1493 1    16.08422861    29.72401933    21.33015327 4.29773821e-02
1494 1    14.47606926    28.79310745    23.83826623 4.95969595e-02
1495 1    12.86610833    31.58200548    23.83825408 9.69255314e-03
1496 1    14.47539904    32.51230875    21.33039479 3.20606548e-02
1497 1    16.08512375    29.72350188    26.34604842 6.83125626e-03
1498 1    14.47617802    28.79316512    28.85417353 5.55608561e-03
1499 1    12.86621798    31.58193887    28.85391723 1.02751362e-03
1500 1    14.47574960    32.51197560    26.34609530 3.29923842e-02
1501 1    16.08620457    29.72287369    31.36196667 1.82593104e-02
1525 1    16.08596838    35.30089271    16.31448906 7.77890909e-03
1526 1    14.47606243    34.37114293    18.82246688 1.30312574e-02
1529 1    16.08553518    35.30167183    21.33032539 6.17944905e-03
1530 1    14.47621820    34.37102124    23.83829036 1.33154116e-02
1533 1    16.08573540    35.30142051    26.34628174 4.76349913e-03
1534 1    14.47637826    34.37080583    28.85395906 9.35008708e-03
1705 1    19.30666814    12.98877244    16.31448817 2.50817230e-02
1706 1    17.69628587    12.05929825    18.82243800 3.62435812e-02
1707 1    16.08573539    14.84771842    18.82239352 1.56912167e-02
1708 1    17.69628531    15.77745267    16.31427983 6.79310540e-03
1709 1    19.30621037    12.98800925    21.33032366 5.93055157e-04
1710 1    17.69619472    12.05917914    23.83830089 4.76296639e-02
1711 1    16.08553517    14.84746710    23.83834986 3.41881985e-02
1712 1    17.69571899    15.77664388    21.33026481 1.35832035e-02
1713 1    19.30632838    12.98831035    26.34628039 1.07599636e-03
1715 1    16.08596837    14.84824622    28.85418620 1.08950971e-02
1716 1    17.69578209    15.77689666    26.34661180 2.28341230e-02
1720 1    17.69658289    15.77805473    31.36205755 3.95599703e-03
1737 1    19.30669520    18.56687574    11.29858048 3.33984015e-03
1738 1    17.69614715    17.63710912    13.80646652 2.34289866e-02
1739 1    16.08620457    20.42626525    13.80670859 2.85893574e-02
1740 1    17.69654193    21.35600446    11.29849700 5.24462384e-02
1741 1    19.30605523    18.56544928    16.31332699 5.46831573e-02
1742 1    17.69503687    17.63530201    18.82204765 3.45506541e-02
1743 1    16.08512375    20.42563706    18.82262685 4.73217245e-02
1744 1    17.69660504    21.35603868    16.31368872 3.14124462e-02
1745 1    19.30525470    18.56422236    21.33003296 3.52267473e-03
1746 1    17.69470381    17.63477114    23.83855954 8.40897534e-02
1747 1    16.08422861    20.42511960    23.83852199 1.12528872e-01
1748 1    17.69779182    21.35672283    21.33086592 1.36276102e-02
1749 1    19.30507816    18.56446349    26.34767633 1.48360338e-02
1750 1    17.69552759    17.63671495    28.85475598 2.09675568e-04
1751 1    16.08523102    20.42570182    28.85464234 6.70541291e-03
1752 1    17.69527284    21.35526943    26.34816532 4.29117143e-02
1753 1    19.30664420    18.56681791    31.36259814 2.53111893e-02
1754 1    17.69651782    17.63754446    33.86978114 4.43168318e-02
1755 1    16.08621016    20.42627217    33.86998271 3.59975594e-03
1756 1    17.69564549    21.35548691    31.36292117 1.97984776e-02
1773 1    19.30646846    24.14511595    11.29818866 4.89124862e-03
1774 1    17.69558306    23.21503221    13.80546755 1.75315807e-02
1775 1    16.08609869    26.00414262    13.80607540 6.93894058e-03
1776 1    17.69649513    26.93395133    11.29851168 1.79338577e-02
1777 1    19.30401470    24.14615051    16.31013148 4.01775175e-03
1778 1    17.69077091    23.21481503    18.82082587 2.20301510e-02
1779 1    16.08328214    26.00432294    18.82099761 2.43482847e-02
1780 1    17.69499614    26.93494785    16.31281173 2.15797941e-02
1781 1    19.29999023    24.14759733    21.32849967 3.06494179e-02
1782 1    17.68879532    23.21393184    23.83976402 3.02499520e-02
1783 1    16.08316334    26.00405054    23.83864223 1.19446572e-02
1784 1    17.68879532    26.93520708    21.32891125 2.22368494e-02
1785 1    19.30052845    24.14586461    26.35007175 2.63304968e-02
1786 1    17.69499614    23.21419108    28.85586353 1.07444877e-01
1787 1    16.08462285    26.00397085    28.85534951 3.84244461e-02
1788 1    17.69077091    26.93432390    26.34784940 1.98272690e-02
1789 1    19.30679574    24.14401065    31.36300389 7.74538730e-03
1790 1    17.69649513    23.21518761    33.87016358 3.29821724e-02
1791 1    16.08617246    26.00412902    33.87009647 2.26967539e-02
1792 1    17.69558306    26.93410672    31.36320771 1.99731769e-02
1793 1    19.30676545    24.14491151    36.37777734 2.03549712e-02
1809 1    19.30661530    29.72276940    11.29851241 2.16641734e-02
1810 1    17.69564549    28.79365203    13.80575409 4.05861991e-02
1811 1    16.08618288    31.58222550    13.80648894 2.53147628e-02
1812 1    17.69651782    32.51159448    11.29889412 1.57475235e-02
1813 1    19.30500401    29.72357467    16.31281245 5.15849971e-02
1814 1    17.69527284    28.79386950    18.82050995 8.62967129e-02
1815 1    16.08576974    31.58259226    18.82213219 5.77366802e-03
1816 1    17.69552759    32.51242398    16.31391928 1.91193452e-02
1817 1    19.30168026    29.72881912    21.32891164 3.04723669e-02
1818 1    17.69779182    28.79241610    23.83780934 2.22857495e-02
1819 1    16.08632474    31.58218074    23.83826611 2.24432137e-03
1820 1    17.69470381    32.51436779    21.33011572 6.21995545e-02
1821 1    19.30343299    29.72754942    26.34784915 6.11830977e-02
1822 1    17.69660504    28.79310025    28.85498654 2.55491441e-02
1823 1    16.08632948    31.58205366    28.85417241 2.13238200e-02
1824 1    17.69503687    32.51383692    26.34662761 1.63786888e-01
1825 1    19.30602635    29.72348652    31.36320700 4.27490244e-02
1826 1    17.69654193    28.79313447    33.87017826 3.91849270e-02
1828 1    17.69614715    32.51202982    31.36220874 1.72072483e-02
1846 1    17.69658289    34.37108420    13.80661771 2.88514590e-02
1849 1    19.30623234    35.30117965    16.31428082 2.73146199e-02
1850 1    17.69578209    34.37224227    18.82206346 1.22582390e-01
1853 1    19.30581524    35.30207518    21.33026632 2.33737778e-03
1854 1    17.69571899    34.37249505    23.83841045 2.36688862e-02
1855 1    16.08613016    37.16040674    23.83830285 6.75481010e-03
1856 1    17.69619472    38.08995980    21.33037436 1.72272464e-03
1857 1    19.30600157    35.30189616    26.34661280 1.97503271e-02
1858 1    17.69628531    34.37168626    28.85439543 4.65819952e-02
1861 1    19.30660264    35.30062531    31.36205746 3.95174521e-03
2027 1    19.30660264    14.84851363    13.80661780 5.33051200e-03
2028 1    20.91700267    15.77819395    11.29889468 7.15755265e-03
2029 1    22.52706671    12.98873807    16.31456261 6.23004536e-02
2030 1    20.91681655    12.05944654    18.82246576 2.53020082e-02
2031 1    19.30600157    14.84724277    18.82206246 1.64021813e-02
2032 1    20.91678158    15.77692022    16.31391893 1.05651568e-02
2033 1    22.52695858    12.98826689    21.33039337 1.87677627e-02
2034 1    20.91684475    12.05964606    23.83828848 1.25114400e-02
2035 1    19.30581523    14.84706375    23.83840894 2.05541529e-03
2036 1    20.91551182    15.77523519    21.33011455 2.91745041e-02
2037 1    22.52707096    12.98873966    26.34609351 2.21111071e-02
2038 1    20.91695044    12.05989202    28.85395778 1.88740068e-02
2039 1    19.30623234    14.84795928    28.85439444 8.33539272e-03
2040 1    20.91580515    15.77579096    26.34662639 2.51845150e-02
2044 1    20.91681339    15.77765806    31.36220821 2.85771562e-03
2061 1    22.52714817    18.56699089    11.29851294 2.24245008e-03
2062 1    20.91671495    17.63724279    13.80607730 1.89255142e-02
2063 1    19.30602635    20.42565242    13.80546826 7.00947239e-03
2064 1    20.91693986    21.35568883    11.29818914 6.80766948e-03
2065 1    22.52725893    18.56519103    16.31281243 2.73525574e-02
2066 1    20.91546116    17.63470931    18.82099833 1.13384958e-01
2067 1    19.30343299    20.42158950    18.82082611 1.97763866e-02
2068 1    20.91660865    21.35304399    16.31013173 2.83998619e-02
2069 1    22.52438097    18.55969020    21.32891097 6.83640420e-03
2070 1    20.91516514    17.63474291    23.83864123 1.67942199e-02
2071 1    19.30168026    20.42031980    23.83976362 5.31017724e-02
2072 1    20.91584869    21.34883428    21.32849943 9.30681521e-03
2073 1    22.52460416    18.56184453    26.34784818 2.22972786e-02
2074 1    20.91582660    17.63605116    28.85534743 7.32859564e-03
2075 1    19.30500401    20.42556426    28.85586281 9.34115481e-03
2076 1    20.91461685    21.35016806    26.35007138 1.48348516e-01
2077 1    22.52682416    18.56612405    31.36320640 3.67826536e-02
2078 1    20.91673990    17.63731950    33.87009459 1.55943348e-02
2079 1    19.30661529    20.42636953    33.87016286 2.19905986e-02
2080 1    20.91614508    21.35652555    31.36300336 1.38397197e-02
2084 1    20.91691038    21.35605128    36.37777702 4.39195522e-02
2094 1    20.91692031    23.21529363     8.79088670 6.89270217e-03
2095 1    19.30676545    26.00422743     8.79089792 1.90158568e-02
2097 1    22.52714345    24.14495949    11.29809539 3.06687891e-02
2098 1    20.91620832    23.21488090    13.80434695 1.02085407e-02
2099 1    19.30679574    26.00512829    13.80567137 2.28247705e-02
2100 1    20.91696410    26.93381947    11.29813078 4.04725039e-02
2101 1    22.52542795    24.14396872    16.31024628 5.69922333e-02
2102 1    20.89939910    23.20517480    18.80885270 9.41383035e-02
2103 1    19.30052844    26.00327431    18.81860351 6.80020471e-02
2104 1    20.91782460    26.93332430    16.31562307 3.87851996e-03
2105 1    22.52206396    24.14202700    21.30905478 3.47122086e-02
2106 1    20.90072560    23.20594060    23.83822366 4.72750085e-02
2107 1    19.29999023    26.00154160    23.84017559 5.57119336e-02
2108 1    20.90072560    26.94319833    21.33045161 1.52595679e-02
2109 1    22.52185943    24.14190921    26.34791526 1.32203952e-01
2110 1    20.91782460    23.21581463    28.85305220 4.83789639e-02
2111 1    19.30401470    26.00298842    28.85854378 1.07523254e-01
2112 1    20.89939911    26.94396413    26.35982257 1.31644451e-01
2113 1    22.52670126    24.14470530    31.36305059 1.46850627e-01
2114 1    20.91696409    23.21531946    33.87054449 7.39537702e-03
2115 1    19.30646846    26.00402299    33.87048661 7.83348087e-02
2116 1    20.91620832    26.93425803    31.36432832 1.84421010e-01
2117 1    22.52711372    24.14494372    36.37792859 4.24688267e-03
2120 1    20.91692031    26.93384531    36.37778857 1.70918115e-02
2130 1    20.91691038    28.79308766     8.79089824 2.78635312e-02
2133 1    22.52679890    29.72290260    11.29818934 9.70555723e-03
2134 1    20.91614508    28.79261338    13.80567191 7.00625856e-02
2135 1    19.30664420    31.58232102    13.80607712 1.87279341e-02
2136 1    20.91673990    32.51181944    11.29858067 2.41071242e-02
2137 1    22.52467576    29.72451335    16.31013243 3.49696863e-03
2138 1    20.91461686    28.79897087    18.81860389 7.67064383e-02
2139 1    19.30507816    31.58467544    18.82099893 3.49586767e-02
2140 1    20.91582660    32.51308777    16.31332784 4.27435957e-02
2141 1    22.52141068    29.72727789    21.32850010 2.50281798e-02
2142 1    20.91584869    28.80030465    23.84017583 6.94518753e-02
2143 1    19.30525470    31.58491657    23.83864231 6.65703667e-03
2144 1    20.91516514    32.51439602    21.33003404 3.66837954e-02
2145 1    22.52318074    29.72767872    26.35007164 4.11022738e-02
2146 1    20.91660865    28.79609494    28.85854353 5.62289662e-02
2147 1    19.30605523    31.58368965    28.85534827 4.79686008e-02
2148 1    20.91546116    32.51442962    26.34767693 5.79976940e-03
2149 1    22.52792058    29.72317586    31.36300323 3.43712443e-02
2150 1    20.91693986    28.79345010    33.87048613 2.75684002e-02
2151 1    19.30669520    31.58226320    33.87009478 2.87627186e-02
2152 1    20.91671495    32.51189615    31.36259797 6.27336510e-02
2153 1    22.52712565    29.72274858    36.37777656 7.02936090e-03
2170 1    20.91681340    34.37148087    13.80646706 1.82395183e-02
2173 1    22.52710822    35.30062955    16.31450447 9.27685772e-03
2174 1    20.91580515    34.37334797    18.82204887 9.24769657e-03
2175 1    19.30632838    37.16082858    18.82239487 4.06461213e-03
2176 1    20.91695044    38.08924691    16.31471748 8.59230488e-03
2177 1    22.52700181    35.30069887    21.33041066 3.08641682e-03
2178 1    20.91551182    34.37390373    23.83856071 1.21581947e-02
2179 1    19.30621038    37.16112968    23.83835160 1.36424710e-02
2180 1    20.91684475    38.08949287    21.33038678 2.51986222e-02
2181 1    22.52692195    35.30138739    26.34654344 1.24421189e-02
2182 1    20.91678158    34.37221871    28.85475633 5.04529444e-03
2183 1    19.30666814    37.16036650    28.85418709 1.27410478e-02
2184 1    20.91681655    38.08969239    26.34620950 2.60478333e-02
2185 1    22.52703049    35.30084704    31.36218538 2.39640435e-02
2186 1    20.91700267    34.37094499    33.86978058 2.02914953e-02
2324 1    24.13727227    10.20022313    21.33043275 2.15428069e-02
2351 1    22.52703049    14.84829190    13.80648988 1.99972291e-02
2352 1    24.13727228    15.77798637    11.29869412 1.81180056e-02
2353 1    25.74747787    12.98873806    16.31456261 3.26944627e-03
2354 1    24.13727230    12.05949303    18.82248353 8.42534696e-03
2355 1    22.52692195    14.84775154    18.82213182 9.64740887e-03
2356 1    24.13727232    15.77685012    16.31403356 3.48038599e-02
2357 1    25.74758603    12.98826688    21.33039337 3.93397182e-02
2358 1    24.13727230    12.05974478    23.83825197 4.96920957e-03
2359 1    22.52700181    14.84844006    23.83826460 3.19034623e-03
2360 1    24.13727234    15.77569015    21.33015248 4.86363238e-02
2361 1    25.74747364    12.98873965    26.34609351 9.01643408e-03
2362 1    24.13727229    12.05987510    28.85391470 2.66132506e-03
2363 1    22.52710822    14.84850938    28.85417080 8.40873154e-02
2364 1    24.13727233    15.77672639    26.34604673 2.48214692e-02
2368 1    24.13727230    15.77798003    31.36196514 1.53055865e-02
2383 1    22.52712565    20.42639036     8.79089871 2.66130604e-02
2385 1    25.74739644    18.56699089    11.29851294 1.32865751e-02
2386 1    24.13727232    17.63640645    13.80575510 8.74419242e-03
2387 1    22.52792058    20.42596307    13.80567204 1.80452276e-02
2388 1    24.13727232    21.35607038    11.29813110 1.11685978e-01
2389 1    25.74728576    18.56519103    16.31281242 3.66008596e-02
2390 1    24.13727236    17.63597358    18.82051000 4.28542922e-02
2391 1    22.52318074    20.42146021    18.81860362 2.61277768e-02
2392 1    24.13727237    21.35706188    16.31562316 2.26010793e-02
2393 1    25.75016377    18.55969020    21.32891097 5.24341378e-02
2394 1    24.13727237    17.63888280    23.83780830 2.92271105e-02
2395 1    22.52141068    20.42186104    23.84017517 2.77085454e-02
2396 1    24.13727240    21.33731698    21.33045137 7.39883864e-02
2397 1    25.74994056    18.56184452    26.34784818 7.18290849e-02
2398 1    24.13727234    17.63751555    28.85498510 6.96926231e-03
2399 1    22.52467576    20.42462557    28.85854284 4.67114183e-02
2400 1    24.13727238    21.33578651    26.35982147 2.65692534e-02
2401 1    25.74772049    18.56612405    31.36320640 4.98965063e-03
2402 1    24.13727230    17.63744624    33.87017722 1.77938625e-02
2403 1    22.52679890    20.42623633    33.87048593 2.46954876e-02
2404 1    24.13727234    21.35519794    31.36432794 8.75169385e-02
2408 1    24.13727229    21.35602223    36.37778846 2.28635938e-02
2418 1    24.13727230    23.21531434     8.79074684 6.48184259e-03
2419 1    22.52711372    26.00419522     8.79074668 3.40344001e-02
2421 1    25.74740120    24.14495949    11.29809539 2.86058882e-02
2422 1    24.13727235    23.21483659    13.80562475 2.73270971e-02
2423 1    22.52670126    26.00443364    13.80562468 1.45411601e-01
2424 1    24.13727233    26.93378956    11.29809548 1.36865971e-02
2425 1    25.74911681    24.14396872    16.31024628 1.25662861e-01
2426 1    24.13727240    23.20924492    18.82076011 4.52663006e-02
2427 1    22.52185943    26.00722972    18.82076000 2.65767005e-02
2428 1    24.13727238    26.93577197    16.31024645 6.68548884e-02
2429 1    25.75248086    24.14202700    21.30905478 4.06234795e-02
2430 1    24.13727241    23.20948382    23.85961923 1.91108398e-01
2431 1    22.52206396    26.00711192    23.85962049 8.92617705e-02
2432 1    24.13727241    26.93965510    21.30905604 4.31154658e-02
2433 1    25.75268537    24.14190921    26.34791527 1.17729941e-02
2434 1    24.13727238    23.21336696    28.85842882 1.56650612e-02
2435 1    22.52542794    26.00517021    28.85842899 1.27157385e-01
2436 1    24.13727240    26.93989400    26.34791516 1.17038424e-01
2437 1    25.74784345    24.14470530    31.36305059 3.65397052e-02
2438 1    24.13727233    23.21534937    33.87057979 3.37620521e-02
2439 1    22.52714345    26.00417945    33.87057987 4.51446472e-02
2440 1    24.13727235    26.93430234    31.36305052 3.17653585e-02
2441 1    25.74743088    24.14494372    36.37792859 1.06827099e-02
2444 1    24.13727230    26.93382460    36.37792843 3.02431319e-02
2454 1    24.13727229    28.79311671     8.79088680 2.09002992e-02
2457 1    25.74774573    29.72290261    11.29818934 7.90979020e-02
2458 1    24.13727234    28.79394099    13.80434732 2.13134854e-02
2459 1    22.52682416    31.58301488    13.80546887 2.55551224e-02
2460 1    24.13727230    32.51169270    11.29849804 2.08649265e-02
2461 1    25.74986897    29.72451336    16.31013242 6.05160382e-02
2462 1    24.13727238    28.81335242    18.80885379 8.86324606e-02
2463 1    22.52460416    31.58729440    18.82082708 8.55156252e-02
2464 1    24.13727234    32.51162338    16.31369016 8.88812079e-02
2465 1    25.75313411    29.72727790    21.32850010 5.00511488e-02
2466 1    24.13727240    28.81182194    23.83822389 6.54231408e-02
2467 1    22.52438097    31.58944872    23.83976430 5.86665047e-02
2468 1    24.13727237    32.51025612    21.33086696 3.90917982e-02
2469 1    25.75136403    29.72767873    26.35007164 6.25934797e-02
2470 1    24.13727237    28.79207704    28.85305210 4.80377638e-02
2471 1    22.52725893    31.58394789    28.85586284 4.14737687e-03
2472 1    24.13727236    32.51316534    26.34816526 1.51822346e-01
2473 1    25.74662410    29.72317587    31.36300323 2.31193721e-02
2474 1    24.13727232    28.79306855    33.87054416 2.13382370e-02
2475 1    22.52714817    31.58214804    33.87016232 3.12821336e-02
2476 1    24.13727232    32.51273248    31.36292016 2.56032883e-02
2477 1    25.74741894    29.72274858    36.37777656 3.36592375e-02
2494 1    24.13727230    34.37115890    13.80671012 1.72438158e-02
2497 1    25.74743641    35.30062956    16.31450446 2.29383967e-02
2498 1    24.13727233    34.37241254    18.82262853 1.62679084e-02
2499 1    22.52707096    37.16039927    18.82258175 1.44567616e-02
2500 1    24.13727229    38.08926384    16.31476056 5.46674410e-02
2501 1    25.74754286    35.30069888    21.33041066 9.19643480e-03
2502 1    24.13727234    34.37344877    23.83852278 2.33263898e-02
2503 1    22.52695858    37.16087204    23.83828189 4.25652461e-02
2504 1    24.13727230    38.08939415    21.33042329 6.60421188e-03
2505 1    25.74762270    35.30138740    26.34654344 6.71851094e-03
2506 1    24.13727232    34.37228881    28.85464170 3.85191197e-02
2507 1    22.52706671    37.16040086    28.85411265 5.70631436e-02
2508 1    24.13727230    38.08964590    26.34619172 8.08889708e-03
2509 1    25.74751411    35.30084705    31.36218539 5.64380997e-02
2510 1    24.13727228    34.37115257    33.86998114 8.48874440e-03
2538 1    24.13727227    39.94891580    23.83824251 1.98569248e-02
2675 1    25.74751411    14.84829189    13.80648987 2.86371914e-02
2676 1    27.35754190    15.77819394    11.29889467 9.24461392e-03
2677 1    28.96787644    12.98877241    16.31448816 3.65068582e-03
2678 1    27.35772804    12.05944652    18.82246575 3.92053683e-03
2679 1    25.74762271    14.84775153    18.82213182 8.59445210e-03
2680 1    27.35776305    15.77692020    16.31391892 2.73593023e-02
2681 1    28.96833423    12.98800922    21.33032366 2.97762791e-02
2682 1    27.35769985    12.05964603    23.83828848 3.32175632e-02
2683 1    25.74754287    14.84844004    23.83826460 2.53874067e-02
2684 1    27.35903285    15.77523517    21.33011455 1.04218051e-01
2685 1    28.96821621    12.98831032    26.34628040 3.73916745e-03
2686 1    27.35759414    12.05989201    28.85395778 2.44272898e-02
2687 1    25.74743641    14.84850937    28.85417080 2.15453079e-02
2688 1    27.35873951    15.77579094    26.34662640 3.73969710e-02
2692 1    27.35773120    15.77765804    31.36220821 7.16525921e-03
2707 1    25.74741894    20.42639036     8.79089870 1.22406548e-03
2709 1    28.96784940    18.56687572    11.29858047 8.56378877e-04
2710 1    27.35782969    17.63724277    13.80607729 6.92310622e-02
2711 1    25.74662411    20.42596306    13.80567203 4.92963381e-02
2712 1    27.35760477    21.35568883    11.29818913 3.68355597e-02
2713 1    28.96848945    18.56544926    16.31332698 1.15969469e-01
2714 1    27.35908356    17.63470929    18.82099833 3.35934487e-02
2715 1    25.75136403    20.42146020    18.81860362 2.88607230e-02
2716 1    27.35793608    21.35304399    16.31013172 3.91618320e-02
2717 1    28.96929002    18.56422234    21.33003296 5.63179289e-02
2718 1    27.35937960    17.63474288    23.83864123 3.93152556e-02
2719 1    25.75313411    20.42186103    23.84017517 9.84828411e-02
2720 1    27.35869609    21.34883427    21.32849943 3.17396773e-02
2721 1    28.96946655    18.56446347    26.34767634 9.57678657e-03
2722 1    27.35871809    17.63605114    28.85534743 3.89383482e-02
2723 1    25.74986897    20.42462557    28.85854284 3.08640637e-02
2724 1    27.35992791    21.35016805    26.35007139 7.36067757e-02
2725 1    28.96790044    18.56681790    31.36259815 3.04105484e-02
2726 1    27.35780470    17.63731949    33.87009460 1.54172751e-02
2727 1    25.74774573    20.42623633    33.87048593 3.25729140e-02
2728 1    27.35839961    21.35652555    31.36300336 2.92331155e-03
2732 1    27.35763420    21.35605128    36.37777703 4.19873666e-02
2742 1    27.35762429    23.21529362     8.79088669 3.52763047e-02
2743 1    25.74743088    26.00419522     8.79074667 3.04905504e-02
2745 1    28.96807618    24.14511595    11.29818865 3.06939067e-02
2746 1    27.35833639    23.21488089    13.80434694 2.56797830e-02
2747 1    25.74784345    26.00443363    13.80562467 1.77968301e-02
2748 1    27.35758055    26.93381948    11.29813077 2.66738909e-02
2749 1    28.97053005    24.14615051    16.31013147 2.70917647e-02
2750 1    27.37514569    23.20517478    18.80885269 3.01583524e-03
2751 1    25.75268537    26.00722972    18.82076000 9.65281855e-02
2752 1    27.35672016    26.93332431    16.31562307 1.56096273e-01
2753 1    28.97455457    24.14759733    21.32849967 4.16778001e-02
2754 1    27.37381922    23.20594058    23.83822366 3.93736996e-02
2755 1    25.75248086    26.00711192    23.85962049 6.28647452e-03
2756 1    27.37381922    26.94319834    21.33045161 8.28882220e-02
2757 1    28.97401634    24.14586462    26.35007176 8.15666050e-03
2758 1    27.35672016    23.21581462    28.85305220 5.75269852e-02
2759 1    25.74911681    26.00517021    28.85842899 1.08918309e-01
2760 1    27.37514569    26.94396414    26.35982258 1.92612773e-02
2761 1    28.96774896    24.14401065    31.36300390 7.58799270e-02
2762 1    27.35758055    23.21531946    33.87054450 1.99924940e-03
2763 1    25.74740120    26.00417945    33.87057988 4.06584929e-02
2764 1    27.35833639    26.93425804    31.36432832 4.25014969e-02
2765 1    28.96777914    24.14491151    36.37777735 1.42673846e-02
2768 1    27.35762429    26.93384532    36.37778857 4.77211754e-03
2778 1    27.35763420    28.79308766     8.79089824 6.95943150e-03
2781 1    28.96792933    29.72276942    11.29851240 3.63172334e-02
2782 1    27.35839961    28.79261338    13.80567190 2.66643176e-02
2783 1    25.74772049    31.58301488    13.80546887 5.49081636e-03
2784 1    27.35780470    32.51181945    11.29858066 1.75255814e-02
2785 1    28.96954071    29.72357469    16.31281245 5.48420364e-02
2786 1    27.35992791    28.79897088    18.81860388 2.79049499e-02
2787 1    25.74994056    31.58729440    18.82082708 2.13739774e-02
2788 1    27.35871809    32.51308779    16.31332783 1.86001373e-02
2789 1    28.97286452    29.72881915    21.32891164 1.55856478e-01
2790 1    27.35869609    28.80030465    23.84017584 3.88799960e-02
2791 1    25.75016377    31.58944873    23.83976430 6.40861357e-02
2792 1    27.35937960    32.51439604    21.33003404 2.08414121e-02
2793 1    28.97111177    29.72754945    26.34784916 7.42568893e-02
2794 1    27.35793608    28.79609494    28.85854354 3.67422205e-02
2795 1    25.74728576    31.58394790    28.85586284 1.03141873e-02
2796 1    27.35908356    32.51442964    26.34767693 1.08166563e-01
2797 1    28.96851832    29.72348653    31.36320701 9.01986819e-02
2798 1    27.35760477    28.79345011    33.87048613 8.84081680e-02
2799 1    25.74739644    31.58214805    33.87016233 1.14016705e-02