LAMMPS (27 Jun 2024)
OMP_NUM_THREADS environment is not set. Defaulting to 1 thread. (src/comm.cpp:98)
  using 1 OpenMP thread(s) per MPI task
Reading data file ...
  orthogonal box = (0 0 0) to (22.422218 22.19224 20.321894)
  5 by 2 by 2 MPI processor grid
  reading atoms ...
  448 atoms
  read_data CPU = 0.005 seconds
**************** Begin of POD Potentials ****************
species: Hf 
periodic boundary conditions: 1 1 1
number of environment clusters: 8
number of principal compoments: 2
inner cut-off radius: 1
outer cut-off radius: 5
cut-off function type: 1
gaussian_exponents: 
polynomial_degrees: 
bessel polynomial degree: 4
inverse polynomial degree: 10
one-body potential: 1
two-body radial basis functions: 8
three-body radial basis functions: 8
three-body angular degree: 6
four-body radial basis functions: 7
four-body angular degree: 5
five-body radial basis functions: 0
five-body angular degree: 0
six-body radial basis functions: 0
six-body angular degree: 0
seven-body radial basis functions: 0
seven-body angular degree: 0
number of local descriptors per element for one-body potential: 1
number of local descriptors per element for two-body potential: 8
number of local descriptors per element for three-body potential: 56
number of local descriptors per element for four-body potential: 112
number of local descriptors per element for five-body potential: 0
number of local descriptors per element for six-body potential: 0
number of local descriptors per element for seven-body potential: 0
number of local descriptors per element for all potentials: 177
number of global descriptors: 1409
**************** End of POD Potentials ****************

**************** Begin of Model Coefficients ****************
total number of coefficients for POD potential: 1409
total number of elements for PCA projection matrix: 352
total number of elements for PCA centroids: 16
**************** End of Model Coefficients ****************


CITE-CITE-CITE-CITE-CITE-CITE-CITE-CITE-CITE-CITE-CITE-CITE-CITE

Your simulation uses code contributions which should be cited:
- Type Label Framework: https://doi.org/10.1021/acs.jpcb.3c08419
The log file lists these citations in BibTeX format.

CITE-CITE-CITE-CITE-CITE-CITE-CITE-CITE-CITE-CITE-CITE-CITE-CITE

Neighbor list info ...
  update: every = 1 steps, delay = 0 steps, check = no
  max neighbors/atom: 2000, page size: 100000
  master list distance cutoff = 7
  ghost atom cutoff = 7
  binsize = 3.5, bins = 7 7 6
  1 neighbor lists, perpetual/occasional/extra = 1 0 0
  (1) pair pod, perpetual
      attributes: full, newton on
      pair build: full/bin/atomonly
      stencil: full/bin/3d
      bin: standard
Setting up Verlet run ...
  Unit style    : metal
  Current step  : 0
  Time step     : 0.001
Per MPI rank memory allocation (min/avg/max) = 2.586 | 2.586 | 2.586 Mbytes
   Step          Temp          TotEng         PotEng         KinEng         Press          Volume    
         0   300           -3263.9145     -3281.2483      17.333785      1830.9177      10112.159    
       100   95.737843     -3263.0327     -3268.5643      5.5316641      3693.245       10112.159    
       200   162.50654     -3259.7622     -3269.1517      9.3895115      4663.0566      10112.159    
       300   196.05087     -3255.8642     -3267.1918      11.327679      5107.8071      10112.159    
       400   292.34304     -3251.7707     -3268.6621      16.891372      4988.5738      10112.159    
       500   316.78579     -3247.9594     -3266.263       18.303656      5910.3851      10112.159    
       600   307.09381     -3244.9672     -3262.7108      17.743661      7177.7698      10112.159    
       700   288.34289     -3244.0487     -3260.709       16.660246      8039.4403      10112.159    
       800   288.17456     -3245.7274     -3262.3779      16.65052       7083.2385      10112.159    
       900   314.21498     -3246.8938     -3265.0489      18.155117      6572.5087      10112.159    
      1000   294.63208     -3248.014      -3265.0376      17.023631      6279.9852      10112.159    
      1100   290.51475     -3247.8257     -3264.6115      16.785735      6583.5962      10112.159    
      1200   280.82978     -3246.5607     -3262.7869      16.226144      7083.9328      10112.159    
      1300   295.90704     -3245.2317     -3262.329       17.097297      7430.7937      10112.159    
      1400   310.35414     -3245.0624     -3262.9945      17.93204       6998.8171      10112.159    
      1500   335.56794     -3245.7561     -3265.1449      19.388876      6410.1869      10112.159    
      1600   290.6669      -3247.0556     -3263.8501      16.794526      6640.5779      10112.159    
      1700   288.66583     -3247.5145     -3264.1934      16.678905      6745.2249      10112.159    
      1800   267.19251     -3247.616      -3263.0542      15.438192      6686.6128      10112.159    
      1900   316.70612     -3246.1902     -3264.4893      18.299053      6737.3194      10112.159    
      2000   311.4617      -3245.5225     -3263.5185      17.996034      6545.4026      10112.159    
      2100   328.13568     -3245.1867     -3264.1461      18.959445      6934.6327      10112.159    
      2200   287.82722     -3246.4095     -3263.04        16.630451      7116.4743      10112.159    
      2300   263.88194     -3247.2467     -3262.4936      15.24691       6975.176       10112.159    
      2400   321.66342     -3246.4603     -3265.0458      18.585483      6297.9857      10112.159    
      2500   305.21456     -3246.6602     -3264.2953      17.635079      6500.033       10112.159    
      2600   302.14228     -3246.3917     -3263.8492      17.457565      6869.1758      10112.159    
      2700   283.47867     -3245.9541     -3262.3333      16.379195      7323.6778      10112.159    
      2800   297.90532     -3246.0918     -3263.3045      17.212756      7020.6904      10112.159    
      2900   305.80047     -3247.0788     -3264.7478      17.668932      6337.9905      10112.159    
      3000   290.56464     -3248.0049     -3264.7936      16.788617      6228.2321      10112.159    
      3100   290.28445     -3247.7105     -3264.4829      16.772428      6490.1361      10112.159    
      3200   288.22152     -3246.2207     -3262.8739      16.653233      7034.9131      10112.159    
      3300   308.42903     -3245.5324     -3263.3532      17.820809      6944.9727      10112.159    
      3400   300.7282      -3245.7595     -3263.1353      17.37586       6945.0471      10112.159    
      3500   314.34894     -3246.5844     -3264.7472      18.162857      6675.1095      10112.159    
      3600   280.57014     -3248.3048     -3264.5159      16.211142      6409.499       10112.159    
      3700   296.99167     -3247.7225     -3264.8824      17.159966      6550.4078      10112.159    
      3800   275.36381     -3246.8776     -3262.7879      15.910324      7081.0404      10112.159    
      3900   321.15826     -3245.7716     -3264.3279      18.556295      6759.0432      10112.159    
      4000   319.7689      -3245.7086     -3264.1846      18.476019      6627.4345      10112.159    
      4100   290.38464     -3246.3705     -3263.1487      16.778217      6942.0027      10112.159    
      4200   291.3777      -3246.8893     -3263.7249      16.835595      6810.7867      10112.159    
      4300   277.4792      -3248.394      -3264.4266      16.03255       6375.2785      10112.159    
      4400   298.52272     -3248.6056     -3265.854       17.248429      6078.514       10112.159    
      4500   289.38557     -3247.5573     -3264.2778      16.720491      6337.8535      10112.159    
      4600   290.49521     -3246.5691     -3263.3537      16.784605      6959.7812      10112.159    
      4700   313.57858     -3246.0794     -3264.1978      18.118346      6880.4975      10112.159    
      4800   287.84526     -3246.4445     -3263.076       16.631493      6857.7459      10112.159    
      4900   299.49144     -3246.7169     -3264.0213      17.304401      6570.3573      10112.159    
      5000   282.46601     -3247.6507     -3263.9714      16.320684      6656.4238      10112.159    
      5100   306.71489     -3247.0767     -3264.7985      17.721767      6477.68        10112.159    
      5200   299.84848     -3245.7723     -3263.0973      17.325031      7117.7846      10112.159    
      5300   317.85594     -3244.8851     -3263.2506      18.365489      7123.6062      10112.159    
      5400   291.84427     -3245.9501     -3262.8126      16.862553      7046.0856      10112.159    
      5500   317.82132     -3246.244      -3264.6075      18.363488      6721.2265      10112.159    
      5600   285.55575     -3246.8969     -3263.3961      16.499207      7013.7032      10112.159    
      5700   298.87703     -3246.8539     -3264.1228      17.268901      6716.6343      10112.159    
      5800   290.94332     -3246.8053     -3263.6158      16.810497      6914.966       10112.159    
      5900   299.97817     -3246.2439     -3263.5764      17.332524      6948.1059      10112.159    
      6000   312.43786     -3245.8249     -3263.8774      18.052436      6717.5464      10112.159    
      6100   303.0744      -3245.979      -3263.4904      17.511422      6919.3364      10112.159    
      6200   295.85332     -3246.5094     -3263.6036      17.094193      6645.7238      10112.159    
      6300   273.31724     -3247.2441     -3263.0362      15.792075      6959.8508      10112.159    
      6400   302.73411     -3247.7375     -3265.2293      17.49176       6398.2753      10112.159    
      6500   302.83842     -3247.9338     -3265.4315      17.497788      6151.2349      10112.159    
      6600   303.5795      -3246.3959     -3263.9365      17.540606      6904.4352      10112.159    
      6700   299.98772     -3245.6005     -3262.9336      17.333076      7126.8272      10112.159    
      6800   299.6583      -3245.6774     -3262.9915      17.314042      7119.738       10112.159    
      6900   303.37008     -3246.6829     -3264.2114      17.528507      6703.6777      10112.159    
      7000   306.10224     -3247.5959     -3265.2823      17.686369      6197.7658      10112.159    
      7100   285.84393     -3247.4509     -3263.9668      16.515858      6415.202       10112.159    
      7200   292.43049     -3246.8145     -3263.711       16.896424      6746.6925      10112.159    
      7300   289.97893     -3246.572      -3263.3268      16.754775      6847.9267      10112.159    
      7400   321.95513     -3245.8828     -3264.4851      18.602337      6668.5856      10112.159    
      7500   309.80616     -3245.8767     -3263.7771      17.900378      6852.8262      10112.159    
      7600   278.50825     -3247.1        -3263.192       16.092008      6817.4299      10112.159    
      7700   297.0624      -3247.7856     -3264.9496      17.164053      6462.7931      10112.159    
      7800   285.48675     -3247.8953     -3264.3905      16.49522       6416.6995      10112.159    
      7900   309.3291      -3246.2558     -3264.1286      17.872814      6521.944       10112.159    
      8000   312.5998      -3245.3902     -3263.452       18.061793      6938.7924      10112.159    
      8100   299.21434     -3245.7029     -3262.9913      17.288391      6999.1935      10112.159    
      8200   293.66515     -3246.8274     -3263.7952      16.967763      6680.9946      10112.159    
      8300   289.00173     -3247.3577     -3264.056       16.698313      6570.5404      10112.159    
      8400   303.19026     -3246.9686     -3264.4867      17.518116      6730.4676      10112.159    
      8500   298.70776     -3246.5626     -3263.8217      17.259121      6590.8157      10112.159    
      8600   315.61337     -3244.5027     -3262.7386      18.235915      7216.8536      10112.159    
      8700   303.01667     -3244.7897     -3262.2977      17.508086      7184.2746      10112.159    
      8800   306.58015     -3246.0774     -3263.7914      17.713982      6943.487       10112.159    
      8900   304.02691     -3247.0893     -3264.6557      17.566457      6291.7908      10112.159    
      9000   309.15323     -3246.9942     -3264.8569      17.862653      6367.7838      10112.159    
      9100   275.39551     -3246.8038     -3262.716       15.912155      6834.316       10112.159    
      9200   322.77234     -3245.2307     -3263.8803      18.649555      7007.029       10112.159    
      9300   292.42311     -3245.3573     -3262.2533      16.895998      7002.9894      10112.159    
      9400   320.26687     -3245.4555     -3263.9603      18.504791      6778.0615      10112.159    
      9500   304.51568     -3246.5238     -3264.1185      17.594698      6357.4394      10112.159    
      9600   291.14696     -3247.182      -3264.0043      16.822263      6548.3994      10112.159    
      9700   280.30028     -3247.1697     -3263.3652      16.19555       6930.1067      10112.159    
      9800   330.69551     -3245.3001     -3264.4075      19.10735       6665.1368      10112.159    
      9900   320.44354     -3244.7669     -3263.2819      18.514998      6652.8356      10112.159    
     10000   297.03022     -3245.6645     -3262.8267      17.162194      7038.8581      10112.159    
     10100   296.87857     -3246.4278     -3263.5813      17.153431      6720.8903      10112.159    
     10200   290.99142     -3246.8089     -3263.6222      16.813276      6699.8173      10112.159    
     10300   304.51266     -3246.5988     -3264.1933      17.594524      6504.5525      10112.159    
     10400   311.97362     -3245.9149     -3263.9405      18.025613      6699.5533      10112.159    
     10500   322.24831     -3244.5718     -3263.1911      18.619277      6921.6027      10112.159    
     10600   294.74102     -3245.1072     -3262.1371      17.029925      7145.4436      10112.159    
     10700   318.99003     -3246.1687     -3264.5997      18.431016      6790.2536      10112.159    
     10800   283.70251     -3247.4032     -3263.7953      16.392128      6471.409       10112.159    
     10900   320.34704     -3246.8769     -3265.3863      18.509423      6357.6406      10112.159    
     11000   292.43588     -3246.748      -3263.6448      16.896736      6575.4832      10112.159    
     11100   294.46285     -3245.875      -3262.8888      17.013853      6784.5416      10112.159    
     11200   323.24492     -3244.4564     -3263.1332      18.67686       6982.6695      10112.159    
     11300   330.49271     -3243.9404     -3263.036       19.095633      7211.0928      10112.159    
     11400   286.92592     -3245.8826     -3262.4609      16.578374      7053.6774      10112.159    
     11500   300.38142     -3246.7117     -3264.0676      17.355823      6604.8158      10112.159    
     11600   299.74086     -3247.2851     -3264.604       17.318813      6483.1555      10112.159    
     11700   289.33025     -3247.3934     -3264.1107      16.717295      6577.7616      10112.159    
     11800   289.08396     -3246.3808     -3263.0838      16.703065      6773.091       10112.159    
     11900   324.57001     -3244.7471     -3263.5005      18.753423      7193.9249      10112.159    
     12000   294.54883     -3245.3658     -3262.3846      17.018821      7224.8831      10112.159    
     12100   297.13037     -3246.2953     -3263.4633      17.16798       6731.9091      10112.159    
     12200   311.36672     -3246.7912     -3264.7818      17.990547      6522.2075      10112.159    
     12300   290.38403     -3247.1906     -3263.9688      16.778182      6652.7132      10112.159    
     12400   291.69061     -3246.7128     -3263.5664      16.853675      6665.0656      10112.159    
     12500   303.38782     -3244.4254     -3261.9549      17.529531      7441.9283      10112.159    
     12600   333.3532      -3244.478      -3263.7389      19.260909      7204.5058      10112.159    
     12700   297.9015      -3246.0158     -3263.2284      17.212536      6870.6946      10112.159    
     12800   295.36244     -3246.6922     -3263.758       17.065831      6747.2154      10112.159    
     12900   292.96612     -3247.2172     -3264.1446      16.927373      6705.6325      10112.159    
     13000   294.28034     -3247.3423     -3264.3456      17.003307      6546.3853      10112.159    
     13100   289.1037      -3246.3638     -3263.068       16.704205      6965.9663      10112.159    
     13200   325.86263     -3245.049      -3263.8772      18.82811       6924.6901      10112.159    
     13300   292.93554     -3245.6177     -3262.5433      16.925606      7020.7803      10112.159    
     13400   307.76191     -3246.3886     -3264.1709      17.782263      6794.7874      10112.159    
     13500   282.77222     -3247.6204     -3263.9588      16.338376      6452.3519      10112.159    
     13600   297.19499     -3247.6215     -3264.7932      17.171714      6562.2423      10112.159    
     13700   288.13445     -3247.1386     -3263.7868      16.648203      6692.4673      10112.159    
     13800   314.85612     -3246.1359     -3264.328       18.192161      6540.0105      10112.159    
     13900   289.25772     -3246.2613     -3262.9744      16.713104      6827.4601      10112.159    
     14000   302.77963     -3246.2761     -3263.7705      17.494391      6761.8661      10112.159    
     14100   294.2294      -3247.2654     -3264.2658      17.000364      6552.7882      10112.159    
     14200   299.57939     -3248.3067     -3265.6162      17.309483      6317.6787      10112.159    
     14300   280.32343     -3248.2075     -3264.4044      16.196887      6404.1064      10112.159    
     14400   292.77398     -3246.1589     -3263.0752      16.916271      6954.7348      10112.159    
     14500   311.27228     -3245.7914     -3263.7765      17.98509       6623.2528      10112.159    
     14600   299.13122     -3246.3607     -3263.6443      17.283588      6909.0509      10112.159    
     14700   309.69284     -3246.6828     -3264.5766      17.893831      6594.652       10112.159    
     14800   270.71403     -3247.8961     -3263.5378      15.641663      6605.9096      10112.159    
     14900   297.64272     -3247.473      -3264.6706      17.197584      6445.2281      10112.159    
     15000   309.28434     -3246.0821     -3263.9523      17.870228      6610.2966      10112.159    
     15100   311.27641     -3245.6884     -3263.6737      17.985329      6810.0271      10112.159    
     15200   298.41761     -3246.1131     -3263.3554      17.242356      7000.0688      10112.159    
     15300   293.38155     -3246.5686     -3263.52        16.951376      6787.4335      10112.159    
     15400   296.92459     -3246.9355     -3264.0916      17.156091      6697.5684      10112.159    
     15500   302.08954     -3247.7155     -3265.17        17.454518      6186.3169      10112.159    
     15600   272.8338      -3248.3149     -3264.079       15.764142      6446.2861      10112.159    
     15700   293.71797     -3247.0127     -3263.9835      16.970814      6426.5216      10112.159    
     15800   310.80908     -3245.9944     -3263.9527      17.958327      6775.6283      10112.159    
     15900   302.61891     -3245.7891     -3263.2742      17.485104      6832.5634      10112.159    
     16000   301.30313     -3245.8198     -3263.2289      17.409079      6941.3665      10112.159    
     16100   293.59789     -3247.0314     -3263.9952      16.963876      6634.579       10112.159    
     16200   295.73504     -3248.2388     -3265.3261      17.087359      6251.5438      10112.159    
     16300   292.62641     -3247.7728     -3264.6805      16.907745      6275.5234      10112.159    
     16400   290.84687     -3246.6888     -3263.4937      16.804924      6772.7919      10112.159    
     16500   308.16858     -3245.9786     -3263.7843      17.80576       6687.9357      10112.159    
     16600   306.1526      -3246.0562     -3263.7455      17.689279      6712.4239      10112.159    
     16700   298.65408     -3246.4263     -3263.6823      17.256019      6895.7518      10112.159    
     16800   282.29285     -3247.5272     -3263.8379      16.310679      6713.4019      10112.159    
     16900   291.04494     -3248.5935     -3265.4099      16.816369      6189.9298      10112.159    
     17000   294.21032     -3247.8586     -3264.8578      16.999262      6200.148       10112.159    
     17100   294.12476     -3246.5997     -3263.594       16.994318      6743.574       10112.159    
     17200   290.49374     -3246.2172     -3263.0017      16.78452       7046.9326      10112.159    
     17300   300.02589     -3246.2095     -3263.5448      17.335282      6881.3866      10112.159    
     17400   313.27424     -3246.405      -3264.5058      18.100761      6445.2928      10112.159    
     17500   291.05098     -3247.0315     -3263.8482      16.816718      6746.553       10112.159    
     17600   273.5974      -3248.0128     -3263.821       15.808262      6575.7661      10112.159    
     17700   305.19957     -3247.0406     -3264.6748      17.634213      6627.434       10112.159    
     17800   292.30477     -3246.0529     -3262.942       16.88916       7209.3699      10112.159    
     17900   305.71839     -3245.6563     -3263.3205      17.66419       6844.1839      10112.159    
     18000   298.12605     -3245.9017     -3263.1272      17.22551       7170.039       10112.159    
     18100   313.72204     -3246.228      -3264.3547      18.126635      6518.8452      10112.159    
     18200   294.88379     -3246.8713     -3263.9095      17.038174      6587.094       10112.159    
     18300   286.90354     -3246.7002     -3263.2772      16.577082      6856.5852      10112.159    
     18400   324.29126     -3244.7788     -3263.5161      18.737317      6978.2869      10112.159    
     18500   308.12269     -3244.9487     -3262.7518      17.803109      7004.176       10112.159    
     18600   311.80074     -3245.6548     -3263.6705      18.015624      6866.0989      10112.159    
     18700   311.62004     -3246.1593     -3264.1644      18.005183      6813.6999      10112.159    
     18800   286.13577     -3246.8051     -3263.3378      16.53272       7078.9554      10112.159    
     18900   309.53888     -3246.4239     -3264.3089      17.884935      6770.5389      10112.159    
     19000   301.5653      -3246.1461     -3263.5703      17.424228      7034.8289      10112.159    
     19100   289.38678     -3246.0811     -3262.8017      16.720561      7127.2869      10112.159    
     19200   305.09245     -3246.2399     -3263.8679      17.628023      6594.1463      10112.159    
     19300   305.60774     -3246.5948     -3264.2526      17.657796      6668.0398      10112.159    
     19400   281.62267     -3247.2377     -3263.5097      16.271957      6851.1415      10112.159    
     19500   306.45872     -3247.0777     -3264.7847      17.706965      6725.7458      10112.159    
     19600   298.12945     -3246.5798     -3263.8056      17.225706      6496.8509      10112.159    
     19700   317.70836     -3245.1631     -3263.5201      18.356962      7290.369       10112.159    
     19800   294.13975     -3245.4832     -3262.4784      16.995184      7334.4426      10112.159    
     19900   310.57629     -3246.3003     -3264.2451      17.944876      6809.6826      10112.159    
     20000   288.42434     -3247.8328     -3264.4977      16.664952      6714.534       10112.159    
     20100   294.59621     -3247.6294     -3264.6509      17.021558      6541.0237      10112.159    
     20200   294.49512     -3246.9869     -3264.0026      17.015717      6752.3192      10112.159    
     20300   312.15943     -3245.911      -3263.9474      18.036349      6886.2858      10112.159    
     20400   304.65586     -3245.9177     -3263.5205      17.602798      6969.4207      10112.159    
     20500   296.77893     -3246.3084     -3263.4561      17.147674      6935.4595      10112.159    
     20600   299.38984     -3246.6618     -3263.9603      17.298531      6977.0893      10112.159    
     20700   283.24525     -3247.5049     -3263.8706      16.365708      6826.5973      10112.159    
     20800   295.19383     -3247.3925     -3264.4486      17.056089      6591.2931      10112.159    
     20900   302.09217     -3246.5606     -3264.0153      17.45467       6773.2653      10112.159    
     21000   303.3127      -3245.6575     -3263.1827      17.525191      7256.1914      10112.159    
     21100   302.42889     -3245.5483     -3263.0224      17.474125      6933.2314      10112.159    
     21200   295.92582     -3246.3451     -3263.4434      17.098382      6885.338       10112.159    
     21300   293.49012     -3247.6954     -3264.6531      16.957649      6677.8803      10112.159    
     21400   288.15924     -3247.7457     -3264.3953      16.649635      6416.2492      10112.159    
     21500   292.81836     -3246.5437     -3263.4626      16.918835      6977.5784      10112.159    
     21600   312.42243     -3245.374      -3263.4255      18.051544      7073.3814      10112.159    
     21700   308.53771     -3245.6156     -3263.4427      17.827088      6882.651       10112.159    
     21800   291.819       -3246.4027     -3263.2637      16.861093      7120.4227      10112.159    
     21900   292.0451      -3246.957      -3263.8311      16.874157      6715.6336      10112.159    
     22000   296.74298     -3247.4099     -3264.5555      17.145597      6506.1816      10112.159    
     22100   294.04736     -3247.9605     -3264.9504      16.989846      6372.3135      10112.159    
     22200   279.63643     -3247.7568     -3263.914       16.157193      6688.4943      10112.159    
     22300   307.14557     -3246.3164     -3264.0631      17.746651      6829.6043      10112.159    
     22400   293.58259     -3245.6756     -3262.6386      16.962992      7546.736       10112.159    
     22500   314.03782     -3245.2008     -3263.3457      18.14488       7205.6033      10112.159    
     22600   296.45211     -3246.5297     -3263.6585      17.128791      6771.8035      10112.159    
     22700   302.43905     -3247.6924     -3265.1671      17.474712      6347.2714      10112.159    
     22800   297.02792     -3247.4813     -3264.6433      17.162061      6513.5101      10112.159    
     22900   280.16828     -3247.0245     -3263.2124      16.187923      7156.6089      10112.159    
     23000   283.85508     -3246.1448     -3262.5458      16.400944      7069.3566      10112.159    
     23100   338.46821     -3244.6143     -3264.1708      19.556451      6889.4247      10112.159    
     23200   313.39632     -3245.1539     -3263.2617      18.107815      7015.5978      10112.159    
     23300   309.17056     -3246.0246     -3263.8883      17.863654      6970.9901      10112.159    
     23400   278.75122     -3247.2005     -3263.3065      16.106046      6877.5564      10112.159    
     23500   287.12673     -3247.3674     -3263.9574      16.589977      6647.9374      10112.159    
     23600   305.21882     -3246.6921     -3264.3274      17.635325      6870.0231      10112.159    
     23700   319.95853     -3244.7657     -3263.2527      18.486975      6918.6615      10112.159    
     23800   299.68838     -3244.6527     -3261.9684      17.31578       7537.665       10112.159    
     23900   315.63899     -3245.5414     -3263.7788      18.237395      7203.9867      10112.159    
     24000   293.52871     -3246.7454     -3263.7053      16.959879      6765.38        10112.159    
     24100   303.69943     -3247.0291     -3264.5766      17.547536      6286.3084      10112.159    
     24200   284.73293     -3247.3156     -3263.7672      16.451665      6872.0394      10112.159    
     24300   312.91793     -3245.8059     -3263.8861      18.080174      7009.1423      10112.159    
     24400   298.35843     -3245.0397     -3262.2787      17.238937      7284.5613      10112.159    
     24500   313.91677     -3245.1514     -3263.2893      18.137886      7188.0619      10112.159    
     24600   290.81122     -3247.0174     -3263.8202      16.802864      6767.715       10112.159    
     24700   297.15603     -3247.2806     -3264.45        17.169463      6623.4705      10112.159    
     24800   293.42785     -3246.8499     -3263.804       16.954051      6898.3485      10112.159    
     24900   301.83518     -3245.9501     -3263.3899      17.439821      7174.0062      10112.159    
     25000   285.97523     -3245.8934     -3262.4168      16.523444      7094.9935      10112.159    
     25100   310.47956     -3245.8462     -3263.7855      17.939287      7110.2902      10112.159    
     25200   308.98891     -3246.3145     -3264.1677      17.853159      6873.7707      10112.159    
     25300   288.57959     -3247.4736     -3264.1475      16.673922      6630.4084      10112.159    
     25400   284.36018     -3247.4117     -3263.8419      16.430128      6827.8567      10112.159    
     25500   318.43197     -3245.9573     -3264.3561      18.398772      6569.7977      10112.159    
     25600   307.10943     -3245.922      -3263.6665      17.744563      6778.7468      10112.159    
     25700   310.73894     -3245.9742     -3263.9284      17.954274      6799.1586      10112.159    
     25800   281.52051     -3246.1555     -3262.4216      16.266054      7159.2933      10112.159    
     25900   306.10747     -3246.2544     -3263.9411      17.686671      6775.6861      10112.159    
     26000   297.12933     -3246.404      -3263.5719      17.16792       6797.319       10112.159    
     26100   301.87923     -3246.4165     -3263.8589      17.442366      6564.8656      10112.159    
     26200   301.92954     -3246.6951     -3264.1404      17.445273      6865.0465      10112.159    
     26300   282.22597     -3247.6502     -3263.9571      16.306815      6742.1308      10112.159    
     26400   290.72035     -3247.8174     -3264.615       16.797614      6683.8104      10112.159    
     26500   299.99278     -3246.5668     -3263.9001      17.333368      6734.3769      10112.159    
     26600   295.29191     -3245.8339     -3262.8956      17.061755      7120.0313      10112.159    
     26700   307.8478      -3245.5438     -3263.3311      17.787226      6897.0733      10112.159    
     26800   314.02858     -3245.9137     -3264.058       18.144347      6837.555       10112.159    
     26900   282.23861     -3246.6179     -3262.9254      16.307545      7023.885       10112.159    
     27000   309.66022     -3246.0415     -3263.9334      17.891946      6716.9599      10112.159    
     27100   300.16944     -3245.6991     -3263.0426      17.343576      6862.6769      10112.159    
     27200   311.24426     -3245.8231     -3263.8066      17.983471      6961.8623      10112.159    
     27300   287.83725     -3247.4685     -3264.0995      16.631031      6326.637       10112.159    
     27400   297.66461     -3247.601      -3264.7998      17.198848      6534.195       10112.159    
     27500   290.82875     -3247.0074     -3263.8112      16.803877      6603.2155      10112.159    
     27600   299.01146     -3245.5092     -3262.7858      17.276668      7175.3963      10112.159    
     27700   307.28615     -3244.9072     -3262.662       17.754774      6961.6389      10112.159    
     27800   305.77655     -3245.5123     -3263.1799      17.66755       7084.7909      10112.159    
     27900   308.12127     -3246.51       -3264.3131      17.803027      6651.0649      10112.159    
     28000   283.58187     -3247.5915     -3263.9766      16.385157      6616.2731      10112.159    
     28100   296.12036     -3247.2096     -3264.3192      17.109623      6647.825       10112.159    
     28200   296.09268     -3246.5154     -3263.6235      17.108023      6671.9435      10112.159    
     28300   298.69907     -3246.0687     -3263.3273      17.258619      6805.8378      10112.159    
     28400   305.12642     -3246.143      -3263.7729      17.629986      6928.757       10112.159    
     28500   300.68856     -3246.4809     -3263.8544      17.37357       6677.1056      10112.159    
     28600   297.2852      -3247.0076     -3264.1845      17.176926      6787.4688      10112.159    
     28700   276.8766      -3248.0789     -3264.0767      15.997732      6567.9958      10112.159    
     28800   296.23491     -3247.9479     -3265.0641      17.116241      6562.6532      10112.159    
     28900   299.11108     -3246.3172     -3263.5996      17.282424      6861.1953      10112.159    
     29000   311.64972     -3245.4496     -3263.4565      18.006898      6791.453       10112.159    
     29100   328.82725     -3245.3526     -3264.352       18.999403      6892.6445      10112.159    
     29200   276.0053      -3246.8075     -3262.7549      15.947389      6984.8927      10112.159    
     29300   298.1842      -3247.0828     -3264.3117      17.22887       6801.688       10112.159    
     29400   299.71248     -3246.8766     -3264.1938      17.317173      6612.7035      10112.159    
     29500   310.17477     -3246.0844     -3264.006       17.921677      6904.2419      10112.159    
     29600   294.35922     -3245.865      -3262.8728      17.007865      6893.382       10112.159    
     29700   289.14439     -3246.621      -3263.3276      16.706556      6811.3921      10112.159    
     29800   287.85442     -3247.7203     -3264.3523      16.632022      6506.8555      10112.159    
     29900   303.09479     -3247.4486     -3264.9612      17.5126        6218.1846      10112.159    
     30000   302.28409     -3246.3795     -3263.8453      17.465758      6879.8646      10112.159    
     30100   291.37937     -3245.9181     -3262.7538      16.835692      7306.4777      10112.159    
     30200   316.12132     -3245.3421     -3263.6074      18.265264      7037.1587      10112.159    
     30300   316.93475     -3245.2165     -3263.5287      18.312263      7140.7775      10112.159    
     30400   297.82316     -3246.4113     -3263.6193      17.208009      7095.4603      10112.159    
     30500   308.01194     -3247.1447     -3264.9415      17.796709      6631.6247      10112.159    
     30600   278.52065     -3247.7856     -3263.8784      16.092724      6576.0528      10112.159    
     30700   296.6888      -3246.7974     -3263.9399      17.142467      6730.0752      10112.159    
     30800   321.14011     -3245.2032     -3263.7584      18.555246      6956.2644      10112.159    
     30900   304.56134     -3245.2757     -3262.873       17.597337      7135.8713      10112.159    
     31000   304.35465     -3245.8891     -3263.4745      17.585394      7002.6326      10112.159    
     31100   285.6853      -3247.1595     -3263.6662      16.506692      7056.442       10112.159    
     31200   295.64165     -3247.2005     -3264.2825      17.081963      6753.5468      10112.159    
     31300   291.66357     -3247.006      -3263.8581      16.852113      6789.9243      10112.159    
     31400   311.4085      -3246.2012     -3264.1942      17.992961      6823.6664      10112.159    
     31500   303.62291     -3245.6367     -3263.1798      17.543114      7134.4936      10112.159    
     31600   316.4328      -3244.0975     -3262.3808      18.283261      7622.2575      10112.159    
     31700   319.8687      -3244.2233     -3262.7051      18.481785      7216.8204      10112.159    
     31800   296.9655      -3245.5768     -3262.7352      17.158454      6991.5252      10112.159    
     31900   311.72687     -3246.6248     -3264.6362      18.011356      6568.6683      10112.159    
     32000   300.15375     -3247.1363     -3264.479       17.342669      6504.4555      10112.159    
     32100   291.48611     -3246.8793     -3263.7211      16.841859      6816.7097      10112.159    
     32200   293.59041     -3246.0589     -3263.0223      16.963444      7137.2441      10112.159    
     32300   321.95847     -3244.3303     -3262.9328      18.60253       7377.0679      10112.159    
     32400   321.60457     -3244.6829     -3263.265       18.582082      7091.9474      10112.159    
     32500   296.64072     -3245.9154     -3263.0551      17.139688      7259.8413      10112.159    
     32600   311.85112     -3245.9007     -3263.9192      18.018535      6814.7943      10112.159    
     32700   287.27373     -3246.8944     -3263.4929      16.598471      6645.5279      10112.159    
     32800   301.75213     -3247.0874     -3264.5224      17.435022      6553.953       10112.159    
     32900   287.40245     -3246.8016     -3263.4075      16.605908      6862.7014      10112.159    
     33000   307.14913     -3245.8991     -3263.646       17.746857      6866.8027      10112.159    
     33100   325.80989     -3244.0136     -3262.8386      18.825062      7281.5582      10112.159    
     33200   328.09185     -3243.4331     -3262.39        18.956912      7499.0297      10112.159    
     33300   306.26362     -3245.1429     -3262.8386      17.695693      7038.4581      10112.159    
     33400   308.86976     -3246.0989     -3263.9452      17.846274      6844.9359      10112.159    
     33500   297.52491     -3246.8369     -3264.0276      17.190777      6892.1751      10112.159    
     33600   298.95549     -3247.3569     -3264.6304      17.273434      6267.6855      10112.159    
     33700   302.74641     -3247.3784     -3264.8709      17.492471      6365.8148      10112.159    
     33800   308.23039     -3245.7853     -3263.5946      17.809331      6992.3345      10112.159    
     33900   290.23159     -3245.2161     -3261.9855      16.769374      7043.572       10112.159    
     34000   332.83135     -3245.1934     -3264.4241      19.230758      6704.6593      10112.159    
     34100   288.57792     -3246.1452     -3262.8191      16.673826      6692.3637      10112.159    
     34200   321.99214     -3245.9492     -3264.5537      18.604476      6738.1848      10112.159    
     34300   292.41442     -3246.8991     -3263.7946      16.895496      6700.1253      10112.159    
     34400   276.36803     -3247.4624     -3263.4308      15.968347      6735.1534      10112.159    
     34500   324.90089     -3246.1023     -3264.8749      18.772541      6631.3236      10112.159    
     34600   304.62825     -3244.8602     -3262.4614      17.601202      6968.8943      10112.159    
     34700   321.28042     -3244.1073     -3262.6707      18.563353      7249.3222      10112.159    
     34800   290.13162     -3245.8031     -3262.5667      16.763598      6895.0304      10112.159    
     34900   306.29556     -3247.07       -3264.7675      17.697538      6281.9789      10112.159    
     35000   293.26867     -3247.8399     -3264.7847      16.944854      6388.271       10112.159    
     35100   296.51433     -3247.198      -3264.3304      17.132386      6447.1814      10112.159    
     35200   302.66747     -3246.0153     -3263.5032      17.48791       6886.178       10112.159    
     35300   300.67745     -3245.5974     -3262.9703      17.372928      6831.4588      10112.159    
     35400   301.71437     -3245.8911     -3263.324       17.432841      6891.8242      10112.159    
     35500   287.1081      -3247.7683     -3264.3572      16.588901      6417.592       10112.159    
     35600   276.86024     -3248.197      -3264.1938      15.996787      6273.8049      10112.159    
     35700   303.32922     -3247.2561     -3264.7822      17.526146      6377.6831      10112.159    
     35800   294.51074     -3246.5356     -3263.5522      17.01662       6896.5625      10112.159    
     35900   301.32481     -3245.9136     -3263.324       17.410332      7160.7092      10112.159    
     36000   310.58233     -3245.4018     -3263.347       17.945225      6798.2623      10112.159    
     36100   324.62446     -3244.2136     -3262.9701      18.756569      7336.1866      10112.159    
     36200   301.88687     -3244.9466     -3262.3894      17.442807      7195.2696      10112.159    
     36300   312.19114     -3246.2666     -3264.3048      18.038181      6634.1588      10112.159    
     36400   293.12209     -3247.3554     -3264.2917      16.936385      6595.2327      10112.159    
     36500   292.95492     -3247.2255     -3264.1522      16.926726      6363.5662      10112.159    
     36600   307.37517     -3246.3097     -3264.0696      17.759918      6910.6429      10112.159    
     36700   301.56982     -3246.0436     -3263.4681      17.424489      6852.4829      10112.159    
     36800   297.59431     -3245.9766     -3263.1713      17.194786      7024.0552      10112.159    
     36900   318.03851     -3246.0057     -3264.3817      18.376038      6635.3073      10112.159    
     37000   301.71164     -3246.2203     -3263.653       17.432682      6941.4268      10112.159    
     37100   297.07239     -3246.6552     -3263.8198      17.16463       6816.2085      10112.159    
     37200   287.02807     -3247.1529     -3263.7372      16.584277      6672.3194      10112.159    
     37300   308.66666     -3246.378      -3264.2126      17.834539      6741.3956      10112.159    
     37400   310.6557      -3245.004      -3262.9535      17.949464      7116.0139      10112.159    
     37500   320.54869     -3244.4726     -3262.9936      18.521074      7133.8872      10112.159    
     37600   297.64591     -3245.8437     -3263.0414      17.197768      6798.4343      10112.159    
     37700   298.5646      -3246.6259     -3263.8768      17.250849      6477.6355      10112.159    
     37800   297.47098     -3246.5618     -3263.7495      17.187661      6894.2926      10112.159    
     37900   308.77226     -3245.9431     -3263.7837      17.840641      6588.9855      10112.159    
     38000   302.72195     -3245.7482     -3263.2393      17.491058      7101.886       10112.159    
     38100   299.96484     -3246.1116     -3263.4434      17.331754      6880.8049      10112.159    
     38200   298.26621     -3247.1256     -3264.3592      17.233608      6716.3396      10112.159    
     38300   274.09886     -3248.2804     -3264.1176      15.837236      6357.9214      10112.159    
     38400   306.43696     -3247.5047     -3265.2104      17.705708      6329.3093      10112.159    
     38500   294.25108     -3246.701      -3263.7026      17.001617      6730.362       10112.159    
     38600   285.41653     -3246.5673     -3263.0585      16.491163      6903.1418      10112.159    
     38700   297.74874     -3246.2654     -3263.4691      17.203709      6773.5891      10112.159    
     38800   309.30399     -3245.6388     -3263.5102      17.871363      6846.7067      10112.159    
     38900   319.10587     -3244.8726     -3263.3103      18.437709      6921.7582      10112.159    
     39000   310.43202     -3245.2915     -3263.228       17.93654       7165.7784      10112.159    
     39100   281.11896     -3246.9877     -3263.2305      16.242852      6779.0044      10112.159    
     39200   300.67817     -3247.188      -3264.5609      17.37297       6516.7907      10112.159    
     39300   290.03635     -3246.8027     -3263.5608      16.758093      6418.7252      10112.159    
     39400   315.69468     -3245.5147     -3263.7553      18.240613      6984.9073      10112.159    
     39500   300.78211     -3245.4369     -3262.8159      17.378975      6985.7973      10112.159    
     39600   291.46959     -3246.9198     -3263.7607      16.840905      6665.2872      10112.159    
     39700   303.45887     -3247.8714     -3265.4051      17.533636      6137.2328      10112.159    
     39800   290.24245     -3247.4323     -3264.2023      16.770001      6450.8216      10112.159    
     39900   291.37273     -3246.2172     -3263.0525      16.835308      7075.1664      10112.159    
     40000   323.25785     -3245.6995     -3264.3771      18.677607      6593.642       10112.159    
     40100   293.91234     -3246.2978     -3263.2798      16.982045      6718.4728      10112.159    
     40200   302.2691      -3246.3204     -3263.7853      17.464893      6714.6608      10112.159    
     40300   290.43604     -3246.5483     -3263.3295      16.781187      6946.4628      10112.159    
     40400   301.07546     -3246.5142     -3263.9101      17.395925      6874.6426      10112.159    
     40500   294.10787     -3247.3211     -3264.3145      16.993342      6343.0748      10112.159    
     40600   285.90983     -3247.5132     -3264.0328      16.519665      6723.9047      10112.159    
     40700   296.96331     -3246.6611     -3263.8194      17.158328      6736.6615      10112.159    
     40800   307.7829      -3245.7702     -3263.5537      17.783476      6670.5632      10112.159    
     40900   308.78409     -3245.1231     -3262.9645      17.841324      7099.1458      10112.159    
     41000   291.23011     -3245.9373     -3262.7644      16.827067      6960.9685      10112.159    
     41100   305.34397     -3246.9878     -3264.6303      17.642556      6418.946       10112.159    
     41200   284.50716     -3247.6117     -3264.0504      16.43862       6449.8751      10112.159    
     41300   300.07195     -3247.0862     -3264.4242      17.337943      6535.505       10112.159    
     41400   290.25456     -3246.6052     -3263.3759      16.770701      6940.6556      10112.159    
     41500   300.97345     -3246.2714     -3263.6614      17.39003       6881.7821      10112.159    
     41600   302.3392      -3246.1509     -3263.6199      17.468943      6819.2325      10112.159    
     41700   304.40899     -3245.7294     -3263.3179      17.588534      7044.2401      10112.159    
     41800   308.17148     -3245.5577     -3263.3636      17.805928      6957.2793      10112.159    
     41900   304.70713     -3245.9025     -3263.5083      17.60576       6806.144       10112.159    
     42000   285.28656     -3247.072      -3263.5556      16.483654      6972.0161      10112.159    
     42100   298.11129     -3247.4403     -3264.665       17.224657      6417.406       10112.159    
     42200   292.39159     -3247.2049     -3264.099       16.894177      6578.6453      10112.159    
     42300   307.30825     -3245.4473     -3263.2034      17.756051      6911.5435      10112.159    
     42400   312.96767     -3244.8279     -3262.911       18.083048      7017.4585      10112.159    
     42500   300.95117     -3245.5904     -3262.9791      17.388743      7124.1989      10112.159    
     42600   307.95711     -3246.7088     -3264.5023      17.793541      6548.8827      10112.159    
     42700   302.60217     -3246.9262     -3264.4103      17.484137      6582.7139      10112.159    
     42800   285.11675     -3246.8758     -3263.3496      16.473842      6930.1342      10112.159    
     42900   316.86135     -3246.1336     -3264.4416      18.308022      6768.9394      10112.159    
     43000   304.23713     -3245.7259     -3263.3045      17.578604      6844.2892      10112.159    
     43100   312.43219     -3244.4356     -3262.4877      18.052108      7423.0295      10112.159    
     43200   313.68489     -3244.6983     -3262.8228      18.124488      7173.4317      10112.159    
     43300   306.45557     -3246.5417     -3264.2484      17.706784      6540.6436      10112.159    
     43400   301.39276     -3247.1395     -3264.5538      17.414258      6376.1735      10112.159    
     43500   293.73638     -3246.9874     -3263.9593      16.971878      6405.5605      10112.159    
     43600   295.67662     -3246.1235     -3263.2075      17.083984      7004.6712      10112.159    
     43700   318.75304     -3244.7569     -3263.1742      18.417323      7138.0491      10112.159    
     43800   327.87717     -3244.1468     -3263.0913      18.944508      7256.674       10112.159    
     43900   300.69141     -3246.2311     -3263.6048      17.373735      6665.2106      10112.159    
     44000   294.87582     -3247.0832     -3264.1209      17.037714      6583.8218      10112.159    
     44100   288.25399     -3247.3091     -3263.9642      16.655109      6493.7987      10112.159    
     44200   303.58739     -3246.6575     -3264.1985      17.541062      6691.0375      10112.159    
     44300   312.07193     -3245.1807     -3263.212       18.031293      7054.8706      10112.159    
     44400   308.42524     -3245.0502     -3262.8708      17.82059       7105.4497      10112.159    
     44500   306.22641     -3245.7201     -3263.4136      17.693543      7109.3072      10112.159    
     44600   319.66613     -3246.0807     -3264.5508      18.47008       6899.7511      10112.159    
     44700   286.32764     -3246.998      -3263.5418      16.543806      6940.5265      10112.159    
     44800   299.17018     -3246.7422     -3264.0281      17.285839      6652.764       10112.159    
     44900   293.00128     -3246.5        -3263.4294      16.929404      6899.1651      10112.159    
     45000   322.28726     -3245.854      -3264.4755      18.621528      6601.9453      10112.159    
     45100   287.92409     -3245.9674     -3262.6034      16.636048      7085.6913      10112.159    
     45200   303.96463     -3246.202      -3263.7648      17.562859      7004.5593      10112.159    
     45300   295.96034     -3247.099      -3264.1994      17.100377      6812.0804      10112.159    
     45400   289.73468     -3247.7583     -3264.4989      16.740663      6607.9596      10112.159    
     45500   296.93772     -3247.4012     -3264.558       17.156849      6568.1335      10112.159    
     45600   304.54053     -3245.5934     -3263.1895      17.596134      7029.6066      10112.159    
     45700   298.82236     -3245.6245     -3262.8903      17.265742      7014.2002      10112.159    
     45800   309.74379     -3246.0244     -3263.9212      17.896775      6881.8933      10112.159    
     45900   286.72853     -3247.1577     -3263.7247      16.566969      6847.609       10112.159    
     46000   292.60356     -3247.6957     -3264.6021      16.906425      6614.178       10112.159    
     46100   306.23097     -3246.4787     -3264.1725      17.693806      6730.9575      10112.159    
     46200   309.59047     -3245.2963     -3263.1842      17.887916      6979.242       10112.159    
     46300   297.22244     -3245.6759     -3262.8492      17.1733        7086.0779      10112.159    
     46400   310.50394     -3246.4589     -3264.3996      17.940696      6579.8339      10112.159    
     46500   287.43327     -3247.5484     -3264.1561      16.607689      6648.0509      10112.159    
     46600   300.1947      -3247.3118     -3264.6568      17.345035      6608.0151      10112.159    
     46700   299.42571     -3246.7032     -3264.0038      17.300604      6597.7145      10112.159    
     46800   306.50602     -3245.9884     -3263.6981      17.709698      6929.1263      10112.159    
     46900   297.05091     -3246.0836     -3263.247       17.163389      6974.9613      10112.159    
     47000   311.5859      -3246.0667     -3264.0699      18.00321       6516.4807      10112.159    
     47100   298.23035     -3246.7813     -3264.0128      17.231536      6682.8383      10112.159    
     47200   292.32503     -3247.4981     -3264.3884      16.890331      6534.3184      10112.159    
     47300   293.15229     -3247.4575     -3264.3956      16.938129      6624.0482      10112.159    
     47400   295.41856     -3246.3011     -3263.3702      17.069073      6966.0564      10112.159    
     47500   301.84144     -3245.1437     -3262.5839      17.440182      7222.1008      10112.159    
     47600   320.51608     -3245.0116     -3263.5308      18.51919       6799.1615      10112.159    
     47700   302.36213     -3246.3239     -3263.7941      17.470268      6971.2781      10112.159    
     47800   296.27399     -3247.0248     -3264.1433      17.118499      6653.7156      10112.159    
     47900   296.33776     -3246.958      -3264.0801      17.122184      6835.3808      10112.159    
     48000   298.29834     -3246.5808     -3263.8163      17.235465      6706.3697      10112.159    
     48100   306.36719     -3245.8041     -3263.5058      17.701677      6817.8621      10112.159    
     48200   339.18767     -3244.2787     -3263.8767      19.598021      6913.036       10112.159    
     48300   293.38323     -3244.8896     -3261.8411      16.951473      7464.5455      10112.159    
     48400   308.70559     -3245.931      -3263.7678      17.836788      7016.6121      10112.159    
     48500   302.8901      -3246.4506     -3263.9514      17.500773      6716.2742      10112.159    
     48600   314.44914     -3246.5444     -3264.7131      18.168646      6552.3219      10112.159    
     48700   294.761       -3246.9129     -3263.944       17.03108       6737.3427      10112.159    
     48800   292.83403     -3246.6788     -3263.5985      16.919741      6868.4236      10112.159    
     48900   308.34214     -3245.5712     -3263.387       17.815789      6862.4004      10112.159    
     49000   330.16209     -3244.7532     -3263.8298      19.076529      7106.4545      10112.159    
     49100   304.2096      -3245.6653     -3263.2423      17.577013      6825.3379      10112.159    
     49200   283.40122     -3247.4456     -3263.8203      16.37472       6511.4709      10112.159    
     49300   302.51133     -3247.4308     -3264.9097      17.478888      6537.4884      10112.159    
     49400   293.7653      -3247.1491     -3264.1227      16.973549      6488.2354      10112.159    
     49500   314.11173     -3245.7276     -3263.8768      18.149151      6880.9869      10112.159    
     49600   296.59887     -3245.359      -3262.4962      17.137271      7136.9247      10112.159    
     49700   312.53495     -3245.5279     -3263.5859      18.058046      7084.2969      10112.159    
     49800   292.58977     -3246.5184     -3263.4241      16.905628      6572.8997      10112.159    
     49900   313.67734     -3246.4783     -3264.6023      18.124052      6748.455       10112.159    
     50000   289.66308     -3246.8058     -3263.5423      16.736526      6830.3265      10112.159    
     50100   288.31178     -3246.6383     -3263.2967      16.658448      6792.8354      10112.159    
     50200   321.06148     -3245.2958     -3263.8465      18.550703      6738.4979      10112.159    
     50300   327.20952     -3243.5651     -3262.471       18.905932      7309.7354      10112.159    
     50400   310.18543     -3244.0128     -3261.9351      17.922293      7549.6416      10112.159    
     50500   319.36931     -3245.1767     -3263.6296      18.45293       6994.0512      10112.159    
     50600   304.56768     -3246.1102     -3263.7079      17.597703      6732.0497      10112.159    
     50700   289.62773     -3247.1813     -3263.9157      16.734483      6708.6662      10112.159    
     50800   299.38238     -3247.1341     -3264.4322      17.2981        6547.318       10112.159    
     50900   297.21709     -3246.3807     -3263.5537      17.172991      6830.5188      10112.159    
     51000   316.29014     -3244.79       -3263.0651      18.275018      6944.6089      10112.159    
     51100   315.25759     -3244.0336     -3262.2489      18.215358      7405.5808      10112.159    
     51200   308.80146     -3245.3896     -3263.2319      17.842328      6805.693       10112.159    
     51300   292.56785     -3246.4541     -3263.3585      16.904361      7122.8732      10112.159    
     51400   317.71117     -3246.2035     -3264.5606      18.357124      6522.8936      10112.159    
     51500   286.28226     -3246.7059     -3263.2471      16.541184      6623.7305      10112.159    
     51600   307.10172     -3246.5466     -3264.2908      17.744118      6799.5955      10112.159    
     51700   299.25629     -3246.4363     -3263.7271      17.290814      6853.2634      10112.159    
     51800   283.02918     -3246.5759     -3262.9291      16.353224      6913.3125      10112.159    
     51900   318.55631     -3246.0614     -3264.4673      18.405956      6870.3789      10112.159    
     52000   310.22468     -3246.1491     -3264.0736      17.92456       6627.5819      10112.159    
     52100   299.34727     -3246.2464     -3263.5425      17.296071      6955.8343      10112.159    
     52200   298.47917     -3246.4881     -3263.734       17.245913      6693.8596      10112.159    
     52300   284.87127     -3247.3457     -3263.8053      16.459658      6625.5629      10112.159    
     52400   308.06557     -3247.0337     -3264.8335      17.799808      6481.8175      10112.159    
     52500   303.09744     -3245.8998     -3263.4126      17.512753      6418.0871      10112.159    
     52600   302.98966     -3244.9941     -3262.5006      17.506526      7100.678       10112.159    
     52700   318.87426     -3245.1484     -3263.5727      18.424327      6823.2646      10112.159    
     52800   304.625       -3246.7895     -3264.3905      17.601015      6387.1799      10112.159    
     52900   276.52209     -3247.464      -3263.4413      15.977249      6878.2985      10112.159    
     53000   296.51216     -3246.9531     -3264.0854      17.132261      6430.224       10112.159    
     53100   292.9872      -3246.3953     -3263.3238      16.928591      6697.7753      10112.159    
     53200   340.87595     -3244.9862     -3264.6818      19.695568      6632.5204      10112.159    
     53300   297.04208     -3245.3817     -3262.5446      17.162879      6891.7514      10112.159    
     53400   301.70799     -3246.0384     -3263.4709      17.432472      6951.5083      10112.159    
     53500   289.34747     -3246.5786     -3263.2969      16.71829       6789.9992      10112.159    
     53600   311.53908     -3246.4225     -3264.423       18.000505      6620.9831      10112.159    
     53700   285.79508     -3246.639      -3263.152       16.513035      6751.464       10112.159    
     53800   320.4664      -3245.2725     -3263.7888      18.51632       6795.3005      10112.159    
     53900   317.55334     -3244.4119     -3262.7599      18.348005      7051.9894      10112.159    
     54000   313.43467     -3245.0867     -3263.1968      18.110031      7154.5331      10112.159    
     54100   284.18907     -3246.8093     -3263.2295      16.420241      6875.9533      10112.159    
     54200   305.51912     -3246.9952     -3264.6478      17.652676      6453.8094      10112.159    
     54300   301.41468     -3246.9628     -3264.3783      17.415525      6372.5317      10112.159    
     54400   295.30076     -3246.0524     -3263.1146      17.062267      6991.8989      10112.159    
     54500   307.34531     -3244.5554     -3262.3136      17.758192      7510.6606      10112.159    
     54600   329.49338     -3244.5286     -3263.5665      19.037892      7060.6315      10112.159    
     54700   308.7326      -3245.7546     -3263.5929      17.838349      6959.9362      10112.159    
     54800   292.69497     -3246.2372     -3263.1489      16.911706      7148.5584      10112.159    
     54900   295.8358      -3246.6529     -3263.7461      17.093181      6807.2109      10112.159    
     55000   301.43041     -3247.0462     -3264.4626      17.416433      6561.4912      10112.159    
     55100   298.25364     -3247.4601     -3264.693       17.232882      6389.1371      10112.159    
     55200   283.97951     -3247.7931     -3264.2012      16.408133      6494.0194      10112.159    
     55300   315.2071      -3246.4994     -3264.7118      18.212441      6520.8162      10112.159    
     55400   297.04378     -3245.4305     -3262.5935      17.162977      7006.9981      10112.159    
     55500   304.7618      -3245.2639     -3262.8728      17.608919      7109.7568      10112.159    
     55600   312.45829     -3245.799      -3263.8527      18.053617      6812.8929      10112.159    
     55700   303.28107     -3246.6558     -3264.1791      17.523363      6811.6561      10112.159    
     55800   293.54302     -3246.9859     -3263.9466      16.960706      6643.2979      10112.159    
     55900   284.59102     -3246.8295     -3263.273       16.443465      6766.6508      10112.159    
     56000   302.40663     -3246.2586     -3263.7315      17.472839      6833.8332      10112.159    
     56100   299.6148      -3246.2947     -3263.6062      17.311529      6768.9642      10112.159    
     56200   298.76675     -3246.2671     -3263.5297      17.262529      6961.5645      10112.159    
     56300   299.35771     -3246.4955     -3263.7921      17.296674      6559.5904      10112.159    
     56400   290.39277     -3247.491      -3264.2697      16.778687      6470.4914      10112.159    
     56500   277.06487     -3249.0805     -3265.0891      16.00861       6109.2842      10112.159    
     56600   290.29113     -3248.4381     -3265.2109      16.772814      6300.279       10112.159    
     56700   288.28973     -3246.9351     -3263.5923      16.657175      6772.6766      10112.159    
     56800   298.58045     -3246.316      -3263.5677      17.251765      7020.1912      10112.159    
     56900   303.95744     -3246.0873     -3263.6497      17.562443      6720.0569      10112.159    
     57000   313.98733     -3245.9302     -3264.0722      18.141964      6982.9301      10112.159    
     57100   286.3989      -3246.735      -3263.283       16.547924      6832.8231      10112.159    
     57200   299.7018      -3247.3159     -3264.6325      17.316556      6694.1372      10112.159    
     57300   288.14922     -3247.8368     -3264.4858      16.649056      6495.7809      10112.159    
     57400   293.49882     -3247.5412     -3264.4994      16.958152      6523.3603      10112.159    
     57500   314.46638     -3246.0363     -3264.206       18.169643      6643.8767      10112.159    
     57600   286.14505     -3245.41       -3261.9433      16.533256      7290.2373      10112.159    
     57700   320.44881     -3245.0256     -3263.5409      18.515303      7183.4387      10112.159    
     57800   305.63128     -3245.9027     -3263.5619      17.659157      7071.9948      10112.159    
     57900   299.30915     -3246.3673     -3263.6611      17.293869      6827.2323      10112.159    
     58000   303.90822     -3246.5469     -3264.1065      17.5596        6714.2098      10112.159    
     58100   296.9993      -3246.9194     -3264.0798      17.160407      6624.8985      10112.159    
     58200   288.24982     -3247.5932     -3264.248       16.654869      6450.4875      10112.159    
     58300   280.78099     -3247.6234     -3263.8467      16.223325      6607.9922      10112.159    
     58400   294.876       -3246.4553     -3263.4931      17.037725      6699.3512      10112.159    
     58500   323.9358      -3245.3306     -3264.0474      18.716779      6676.17        10112.159    
     58600   302.47448     -3245.6311     -3263.1079      17.476759      7159.6228      10112.159    
     58700   300.94725     -3246.2299     -3263.6184      17.388517      6813.796       10112.159    
     58800   281.85163     -3248.1339     -3264.4191      16.285186      6466.6722      10112.159    
     58900   286.85518     -3248.5711     -3265.1454      16.574287      6153.7544      10112.159    
     59000   292.29732     -3247.6093     -3264.498       16.88873       6687.4496      10112.159    
     59100   301.54533     -3246.6225     -3264.0456      17.423074      6572.961       10112.159    
     59200   304.34715     -3246.0868     -3263.6718      17.584961      6820.9584      10112.159    
     59300   302.7041      -3245.673      -3263.163       17.490027      6953.7757      10112.159    
     59400   321.71356     -3244.873      -3263.4614      18.588379      7186.7328      10112.159    
     59500   301.66924     -3245.0014     -3262.4317      17.430233      7096.642       10112.159    
     59600   313.40926     -3246.3304     -3264.439       18.108563      6803.1374      10112.159    
     59700   291.60847     -3247.3513     -3264.2002      16.848929      6645.7322      10112.159    
     59800   283.0255      -3247.3964     -3263.7494      16.353011      6939.7335      10112.159    
     59900   313.96718     -3246.2757     -3264.4165      18.140799      6676.8592      10112.159    
     60000   311.10367     -3245.1917     -3263.167       17.975347      7012.359       10112.159    
     60100   311.79954     -3245.1416     -3263.1572      18.015555      7146.1838      10112.159    
     60200   297.11032     -3246.0471     -3263.2139      17.166822      7292.9637      10112.159    
     60300   306.02026     -3246.5318     -3264.2134      17.681632      6518.6607      10112.159    
     60400   311.61168     -3246.9618     -3264.9665      18.0047        6710.2553      10112.159    
     60500   266.32411     -3247.7665     -3263.1545      15.388016      6691.6344      10112.159    
     60600   295.95311     -3246.5134     -3263.6133      17.099959      6875.9052      10112.159    
     60700   317.53181     -3245.2267     -3263.5735      18.346761      7051.1998      10112.159    
     60800   322.32026     -3245.228      -3263.8515      18.623434      6939.5356      10112.159    
     60900   298.33627     -3246.4809     -3263.7186      17.237656      6878.1087      10112.159    
     61000   288.29398     -3247.3434     -3264.0008      16.65742       6798.7731      10112.159    
     61100   291.78439     -3247.1583     -3264.0174      16.859093      6752.7438      10112.159    
     61200   288.80614     -3246.4339     -3263.121       16.687012      6768.2835      10112.159    
     61300   327.21951     -3245.5789     -3264.4854      18.906509      6746.4495      10112.159    
     61400   286.79645     -3246.1266     -3262.6975      16.570894      6888.532       10112.159    
     61500   303.60176     -3246.2797     -3263.8215      17.541893      6771.45        10112.159    
     61600   297.47473     -3246.6437     -3263.8316      17.187877      6969.4361      10112.159    
     61700   289.52352     -3246.538      -3263.2664      16.728462      6804.789       10112.159    
     61800   314.9752      -3245.7922     -3263.9912      18.199042      6930.6233      10112.159    
     61900   326.13808     -3244.5901     -3263.4342      18.844025      6888.0201      10112.159    
     62000   306.92267     -3244.6602     -3262.394       17.733773      7364.9628      10112.159    
     62100   308.55305     -3246.1335     -3263.9615      17.827974      6621.0807      10112.159    
     62200   302.06235     -3246.7589     -3264.2118      17.452947      6899.6562      10112.159    
     62300   296.33509     -3246.754      -3263.8761      17.12203       6546.6035      10112.159    
     62400   307.23088     -3245.9001     -3263.6517      17.75158       6613.9174      10112.159    
     62500   312.74192     -3244.4601     -3262.5301      18.070004      7305.0917      10112.159    
     62600   302.11238     -3245.2994     -3262.7552      17.455837      7455.2243      10112.159    
     62700   310.74457     -3245.8802     -3263.8348      17.954599      6818.2325      10112.159    
     62800   295.49421     -3246.721      -3263.7944      17.073444      6876.3459      10112.159    
     62900   299.8563      -3246.8876     -3264.2131      17.325483      6694.2436      10112.159    
     63000   297.65419     -3246.216      -3263.4143      17.198246      6903.4971      10112.159    
     63100   306.09225     -3245.0281     -3262.7139      17.685791      7156.3187      10112.159    
     63200   322.56318     -3244.3013     -3262.9388      18.63747       7278.9811      10112.159    
     63300   314.02778     -3245.1707     -3263.315       18.144301      6919.0317      10112.159    
     63400   288.31095     -3246.7316     -3263.39        16.6584        6866.9349      10112.159    
     63500   301.73444     -3246.7676     -3264.2016      17.434         6788.2845      10112.159    
     63600   297.02754     -3246.5211     -3263.6831      17.162039      6776.3198      10112.159    
     63700   320.55732     -3245.5029     -3264.0244      18.521573      6855.7309      10112.159    
     63800   302.58308     -3245.6047     -3263.0878      17.483034      6973.6913      10112.159    
     63900   294.06925     -3246.8075     -3263.7986      16.991111      6688.4164      10112.159    
     64000   279.89743     -3248.0105     -3264.1828      16.172273      6511.309       10112.159    
     64100   296.73185     -3247.5141     -3264.659       17.144954      6498.5622      10112.159    
     64200   292.11201     -3246.8776     -3263.7556      16.878023      6913.9069      10112.159    
     64300   305.05119     -3246.3923     -3264.0179      17.62564       6453.3531      10112.159    
     64400   309.35946     -3246.1662     -3264.0407      17.874568      6865.1518      10112.159    
     64500   295.23501     -3246.6335     -3263.692       17.058468      6745.5414      10112.159    
     64600   289.29416     -3247.6387     -3264.354       16.71521       6603.8647      10112.159    
     64700   278.83555     -3248.2511     -3264.362       16.110918      6521.8463      10112.159    
     64800   298.71245     -3247.0112     -3264.2706      17.259392      6845.4822      10112.159    
     64900   299.80325     -3245.8753     -3263.1978      17.322417      6840.0493      10112.159    
     65000   308.65119     -3245.6217     -3263.4553      17.833645      6945.3913      10112.159    
     65100   294.76257     -3246.172      -3263.2032      17.03117       7151.6135      10112.159    
     65200   297.44177     -3247.2301     -3264.4161      17.185972      6553.6945      10112.159    
     65300   290.13917     -3248.5706     -3265.3347      16.764034      6322.3482      10112.159    
     65400   271.15859     -3248.2601     -3263.9274      15.667349      6621.0482      10112.159    
     65500   301.37091     -3247.3641     -3264.7771      17.412995      6748.3822      10112.159    
     65600   289.12685     -3246.8915     -3263.5971      16.705542      6727.1788      10112.159    
     65700   309.71593     -3245.8608     -3263.7559      17.895165      6986.3776      10112.159    
     65800   303.6237      -3245.4739     -3263.017       17.54316       7278.1793      10112.159    
     65900   305.32244     -3245.6        -3263.2413      17.641312      7114.1308      10112.159    
     66000   300.17401     -3247.2033     -3264.5471      17.34384       6583.018       10112.159    
     66100   281.69179     -3248.0091     -3264.285       16.27595       6697.6912      10112.159    
     66200   282.69489     -3247.4568     -3263.7907      16.333908      6781.1762      10112.159    
     66300   303.09329     -3245.9405     -3263.453       17.512513      6811.0156      10112.159    
     66400   312.30372     -3245.6199     -3263.6646      18.044685      7045.2969      10112.159    
     66500   313.77345     -3245.9713     -3264.1009      18.129605      6914.4084      10112.159    
     66600   281.67815     -3247.1136     -3263.3887      16.275162      6848.2381      10112.159    
     66700   286.79627     -3247.4232     -3263.9941      16.570884      6773.1246      10112.159    
     66800   317.61711     -3246.0809     -3264.4326      18.35169       6650.597       10112.159    
     66900   309.37582     -3244.7718     -3262.6473      17.875513      7247.645       10112.159    
     67000   313.38823     -3245.0097     -3263.117       18.107348      7166.0929      10112.159    
     67100   290.77125     -3246.5502     -3263.3508      16.800555      7011.7339      10112.159    
     67200   303.4473      -3246.8737     -3264.4066      17.532968      6756.1074      10112.159    
     67300   304.87343     -3246.7467     -3264.3621      17.615369      6708.5674      10112.159    
     67400   298.71451     -3246.2565     -3263.516       17.259511      6969.1119      10112.159    
     67500   306.80809     -3244.7676     -3262.4947      17.727152      7523.499       10112.159    
     67600   309.32482     -3244.2795     -3262.152       17.872567      7552.6627      10112.159    
     67700   308.63131     -3245.6827     -3263.5152      17.832496      6846.8743      10112.159    
     67800   305.72302     -3246.5376     -3264.2021      17.664458      6568.8202      10112.159    
     67900   309.85783     -3246.4797     -3264.383       17.903364      6695.5768      10112.159    
     68000   281.553       -3246.627      -3262.8949      16.267931      7151.6356      10112.159    
     68100   307.37145     -3246.0994     -3263.8591      17.759702      6884.6218      10112.159    
     68200   314.392       -3245.4235     -3263.5889      18.165345      7013.7973      10112.159    
     68300   311.55248     -3245.3357     -3263.337       18.001279      7002.4763      10112.159    
     68400   300.02627     -3246.2813     -3263.6166      17.335303      7085.899       10112.159    
     68500   288.38059     -3247.383      -3264.0454      16.662424      6559.92        10112.159    
     68600   285.08609     -3247.4437     -3263.9158      16.47207       6835.9429      10112.159    
     68700   304.93023     -3246.1563     -3263.7749      17.61865       7063.1103      10112.159    
     68800   326.89462     -3244.5125     -3263.4003      18.887737      6987.3256      10112.159    
     68900   308.79311     -3245.2221     -3263.064       17.841845      7151.7845      10112.159    
     69000   299.05093     -3246.3573     -3263.6363      17.278949      6931.4349      10112.159    
     69100   294.2165      -3247.1335     -3264.1331      16.999619      6868.4018      10112.159    
     69200   280.4411      -3247.33       -3263.5336      16.203686      6844.3836      10112.159    
     69300   324.71784     -3245.6287     -3264.3907      18.761965      6806.2295      10112.159    
     69400   310.30745     -3245.1408     -3263.0702      17.929343      7074.9443      10112.159    
     69500   307.62148     -3245.4619     -3263.2361      17.774149      7037.0325      10112.159    
     69600   299.69448     -3246.2383     -3263.5545      17.316133      7121.4429      10112.159    
     69700   293.73485     -3246.6427     -3263.6145      16.971789      6792.2775      10112.159    
     69800   306.08189     -3246.5687     -3264.2539      17.685193      7010.1905      10112.159    
     69900   316.79768     -3246.0502     -3264.3545      18.304343      6864.4432      10112.159    
     70000   313.14136     -3244.6927     -3262.7857      18.093084      7114.2374      10112.159    
     70100   306.88903     -3244.9626     -3262.6944      17.731829      7091.3937      10112.159    
     70200   304.12035     -3246.5837     -3264.1555      17.571856      6779.6017      10112.159    
     70300   299.21992     -3247.1577     -3264.4464      17.288713      6560.4665      10112.159    
     70400   300.97949     -3246.898      -3264.2884      17.39038       6808.4742      10112.159    
     70500   297.47102     -3246.1064     -3263.2941      17.187663      6956.4456      10112.159    
     70600   311.63316     -3245.1905     -3263.1965      18.005941      7209.6975      10112.159    
     70700   306.40465     -3246.0207     -3263.7245      17.703842      6788.7506      10112.159    
     70800   299.82667     -3247.6968     -3265.0206      17.323771      6368.5881      10112.159    
     70900   285.2647      -3247.9115     -3264.3939      16.482391      6429.2276      10112.159    
     71000   292.36313     -3246.6296     -3263.5221      16.892532      7021.1447      10112.159    
     71100   300.55718     -3245.8615     -3263.2275      17.365979      7118.28        10112.159    
     71200   307.73009     -3245.9827     -3263.7632      17.780424      6929.6785      10112.159    
     71300   288.75421     -3246.7728     -3263.4568      16.684012      6855.0455      10112.159    
     71400   292.83945     -3247.9218     -3264.8418      16.920054      6421.9667      10112.159    
     71500   287.71679     -3248.8615     -3265.4856      16.62407       6141.4644      10112.159    
     71600   282.94141     -3247.77       -3264.1182      16.348152      6731.8868      10112.159    
     71700   296.74242     -3246.7109     -3263.8565      17.145565      6886.5255      10112.159    
     71800   284.87169     -3246.4864     -3262.9461      16.459683      6956.9292      10112.159    
     71900   328.86929     -3245.6476     -3264.6494      19.001833      6639.0221      10112.159    
     72000   301.71372     -3246.0806     -3263.5134      17.432803      6754.1813      10112.159    
     72100   277.51257     -3247.3038     -3263.3383      16.034478      6951.8225      10112.159    
     72200   287.88185     -3248.056      -3264.6896      16.633607      6562.8591      10112.159    
     72300   304.08782     -3247.6708     -3265.2408      17.569977      6295.576       10112.159    
     72400   314.87446     -3245.6179     -3263.8112      18.193221      6715.7578      10112.159    
     72500   305.68243     -3245.5552     -3263.2173      17.662112      7045.702       10112.159    
     72600   281.97373     -3246.6003     -3262.8925      16.29224       6914.4998      10112.159    
     72700   301.40467     -3247.0266     -3264.4415      17.414947      6608.516       10112.159    
     72800   290.05887     -3247.5244     -3264.2838      16.759394      6546.0523      10112.159    
     72900   308.88993     -3246.7409     -3264.5883      17.847439      6696.7179      10112.159    
     73000   296.03025     -3245.8734     -3262.9778      17.104416      6992.1722      10112.159    
     73100   308.60853     -3245.4016     -3263.2327      17.83118       7118.2932      10112.159    
     73200   316.85896     -3245.4675     -3263.7754      18.307884      7059.3935      10112.159    
     73300   297.05643     -3247.122      -3264.2857      17.163708      6628.3139      10112.159    
     73400   297.19694     -3247.419      -3264.5908      17.171827      6607.01        10112.159    
     73500   294.26034     -3246.8297     -3263.8318      17.002152      6713.9198      10112.159    
     73600   304.38923     -3245.2806     -3262.868       17.587392      7262.4484      10112.159    
     73700   318.08945     -3245.0494     -3263.4283      18.378981      7053.155       10112.159    
     73800   315.01052     -3245.7018     -3263.9029      18.201082      6748.3291      10112.159    
     73900   290.19221     -3246.3509     -3263.118       16.767099      6901.7401      10112.159    
     74000   290.87452     -3246.7503     -3263.5568      16.806522      6914.0841      10112.159    
     74100   298.33268     -3247.3761     -3264.6135      17.237449      6591.682       10112.159    
     74200   276.45007     -3248.4571     -3264.4302      15.973087      6101.8147      10112.159    
     74300   303.5426      -3248.0132     -3265.5517      17.538474      6153.5466      10112.159    
     74400   294.13841     -3246.5799     -3263.575       16.995107      6841.7911      10112.159    
     74500   296.45155     -3245.748      -3262.8768      17.128759      7112.6564      10112.159    
     74600   297.57304     -3245.8525     -3263.0461      17.193557      7078.9511      10112.159    
     74700   295.38806     -3246.4758     -3263.5431      17.067311      6869.6322      10112.159    
     74800   297.01681     -3247.576      -3264.7374      17.161419      6107.1108      10112.159    
     74900   282.28431     -3248.806      -3265.1162      16.310186      6129.5466      10112.159    
     75000   283.62281     -3248.1241     -3264.5116      16.387523      6473.3411      10112.159    
     75100   296.70091     -3247.1105     -3264.2537      17.143166      6646.7941      10112.159    
     75200   289.1431      -3246.5543     -3263.2608      16.706481      6877.5037      10112.159    
     75300   315.80535     -3245.5808     -3263.8279      18.247007      6938.4728      10112.159    
     75400   288.49174     -3246.081      -3262.7499      16.668846      6841.6989      10112.159    
[...]
    281800   299.61742     -3244.9516     -3262.2633      17.31168       7077.5511      10112.159    
    281900   324.99086     -3244.7012     -3263.4789      18.777739      7010.6785      10112.159    
    282000   300.43157     -3246.2537     -3263.6124      17.358721      6955.441       10112.159    
    282100   290.78515     -3247.0585     -3263.8598      16.801358      6937.2151      10112.159    
    282200   299.10749     -3246.9491     -3264.2313      17.282217      6732.1181      10112.159    
    282300   296.95711     -3246.5616     -3263.7196      17.15797       6981.5001      10112.159    
    282400   314.3417      -3244.9894     -3263.1518      18.162438      7058.3054      10112.159    
    282500   321.63301     -3244.066      -3262.6497      18.583725      7450.409       10112.159    
    282600   296.11694     -3245.1086     -3262.218       17.109425      7373.4039      10112.159    
    282700   303.45121     -3246.0033     -3263.5365      17.533194      7028.7996      10112.159    
    282800   306.34085     -3246.4876     -3264.1878      17.700155      6397.6777      10112.159    
    282900   298.19804     -3246.9661     -3264.1957      17.22967       6663.1659      10112.159    
    283000   276.8491      -3247.6128     -3263.609       15.996143      6885.7422      10112.159    
    283100   293.38859     -3247.3557     -3264.3075      16.951783      6776.6492      10112.159    
    283200   298.28879     -3245.9996     -3263.2345      17.234913      6909.9206      10112.159    
    283300   322.7707      -3245.0185     -3263.668       18.64946       7228.9422      10112.159    
    283400   303.96102     -3245.8602     -3263.4229      17.56265       6980.5898      10112.159    
    283500   299.28056     -3246.5574     -3263.8496      17.292217      6893.8401      10112.159    
    283600   315.78851     -3246.362      -3264.608       18.246034      6745.0582      10112.159    
    283700   281.74161     -3246.6563     -3262.9351      16.278829      7198.1276      10112.159    
    283800   312.13643     -3246.3655     -3264.4005      18.03502       6653.9246      10112.159    
    283900   293.59552     -3247.2665     -3264.2302      16.963739      6774.5166      10112.159    
    284000   281.26208     -3248.4722     -3264.7233      16.251122      6123.4337      10112.159    
    284100   280.17827     -3248.0596     -3264.2481      16.1885        6594.1903      10112.159    
    284200   304.41378     -3246.3913     -3263.9801      17.588811      6858.115       10112.159    
    284300   303.60789     -3246.0296     -3263.5718      17.542247      7048.1951      10112.159    
    284400   305.86649     -3245.7647     -3263.4374      17.672747      7078.6182      10112.159    
    284500   301.96118     -3246.0909     -3263.538       17.447101      6960.0038      10112.159    
    284600   293.90427     -3247.6455     -3264.6271      16.981578      6520.256       10112.159    
    284700   297.54441     -3247.7795     -3264.9714      17.191903      6643.6136      10112.159    
    284800   292.72389     -3247.0194     -3263.9328      16.913377      6686.3614      10112.159    
    284900   298.32527     -3246.4126     -3263.6496      17.237021      7095.8915      10112.159    
    285000   301.33876     -3246.2875     -3263.6986      17.411138      7056.966       10112.159    
    285100   314.34588     -3246.1558     -3264.3185      18.16268       6584.7416      10112.159    
    285200   292.70299     -3246.7113     -3263.6235      16.91217       6636.9302      10112.159    
    285300   280.97246     -3247.8376     -3264.072       16.234388      6718.6795      10112.159    
    285400   299.56743     -3247.9553     -3265.2641      17.308792      6337.4138      10112.159    
    285500   296.22413     -3246.5744     -3263.69        17.115618      6777.7971      10112.159    
    285600   313.80818     -3245.5811     -3263.7127      18.131612      7022.0195      10112.159    
    285700   293.36419     -3246.2617     -3263.2121      16.950373      7099.6377      10112.159    
    285800   302.21617     -3246.6835     -3264.1454      17.461834      6801.9316      10112.159    
    285900   293.15692     -3246.7005     -3263.6389      16.938397      6816.8819      10112.159    
    286000   307.13973     -3245.54       -3263.2863      17.746314      6900.0187      10112.159    
    286100   310.78991     -3244.9814     -3262.9386      17.957219      7324.0381      10112.159    
    286200   303.85037     -3245.6771     -3263.2334      17.556257      6987.0528      10112.159    
    286300   296.17107     -3247.1075     -3264.2201      17.112552      6622.336       10112.159    
    286400   302.34861     -3247.2592     -3264.7287      17.469487      6416.613       10112.159    
    286500   275.87444     -3247.1936     -3263.1334      15.939828      7049.5738      10112.159    
    286600   308.57628     -3245.3793     -3263.2086      17.829317      6941.605       10112.159    
    286700   318.26907     -3244.7964     -3263.1858      18.389359      7047.8982      10112.159    
    286800   327.14606     -3245.2767     -3264.179       18.902266      6900.2018      10112.159    
    286900   288.69007     -3246.4881     -3263.1684      16.680306      7060.301       10112.159    
    287000   306.45754     -3246.5298     -3264.2367      17.706898      6916.8418      10112.159    
    287100   291.38824     -3246.7797     -3263.6159      16.836204      7043.4872      10112.159    
    287200   307.64521     -3246.3242     -3264.0997      17.77552       6692.6537      10112.159    
    287300   313.61827     -3245.2811     -3263.4017      18.120639      7024.1664      10112.159    
    287400   312.69657     -3244.8959     -3262.9633      18.067384      7205.0062      10112.159    
    287500   295.98954     -3246.0579     -3263.16        17.102064      6982.8371      10112.159    
    287600   299.18913     -3247.1954     -3264.4823      17.286934      6734.006       10112.159    
    287700   295.64109     -3247.2748     -3264.3567      17.081931      6673.0497      10112.159    
    287800   292.01233     -3246.6102     -3263.4824      16.872264      6816.5599      10112.159    
    287900   303.76352     -3245.6629     -3263.2141      17.551239      6809.9055      10112.159    
    288000   325.05092     -3244.6091     -3263.3903      18.78121       6949.0561      10112.159    
    288100   316.31157     -3243.4187     -3261.695       18.276257      7544.5454      10112.159    
    288200   311.83217     -3244.881      -3262.8984      18.01744       6986.0289      10112.159    
    288300   305.09344     -3246.0706     -3263.6987      17.628081      6750.8757      10112.159    
    288400   297.61551     -3246.7505     -3263.9465      17.196011      6702.6747      10112.159    
    288500   285.67914     -3247.3335     -3263.8398      16.506337      6639.8582      10112.159    
    288600   289.54508     -3247.2104     -3263.9401      16.729708      6554.136       10112.159    
    288700   309.06672     -3245.8342     -3263.6919      17.857654      6872.6535      10112.159    
    288800   317.03631     -3244.7946     -3263.1127      18.318131      6984.1366      10112.159    
    288900   312.94232     -3244.8386     -3262.9202      18.081584      7173.5012      10112.159    
    289000   269.8864      -3246.8217     -3262.4155      15.593843      7020.0041      10112.159    
    289100   304.27885     -3247.1769     -3264.7579      17.581014      6535.2546      10112.159    
    289200   288.88648     -3247.7709     -3264.4626      16.691654      6537.5683      10112.159    
    289300   314.84074     -3246.6552     -3264.8464      18.191273      6394.6069      10112.159    
    289400   293.43949     -3246.0775     -3263.0322      16.954724      7061.1816      10112.159    
    289500   287.0772      -3245.958      -3262.5451      16.587116      7298.8628      10112.159    
    289600   311.1101      -3245.9177     -3263.8934      17.975719      6743.8209      10112.159    
    289700   285.04385     -3247.5889     -3264.0585      16.46963       6655.0359      10112.159    
    289800   304.3457      -3247.802      -3265.3869      17.584877      6239.2477      10112.159    
    289900   275.75172     -3247.3683     -3263.3011      15.932737      6764.8633      10112.159    
    290000   312.19853     -3245.7919     -3263.8305      18.038608      6988.8225      10112.159    
    290100   289.88995     -3246.0958     -3262.8455      16.749634      7027.8854      10112.159    
    290200   316.88901     -3245.9969     -3264.3065      18.30962       6839.3693      10112.159    
    290300   291.69384     -3246.829      -3263.6829      16.853861      7016.561       10112.159    
    290400   287.52186     -3247.6552     -3264.268       16.612807      6533.3206      10112.159    
    290500   279.56379     -3248.2318     -3264.3848      16.152996      6492.4585      10112.159    
    290600   301.72657     -3247.6055     -3265.039       17.433545      6382.3093      10112.159    
    290700   294.64376     -3246.173      -3263.1973      17.024306      6887.7267      10112.159    
    290800   310.83181     -3245.4789     -3263.4386      17.95964       7042.849       10112.159    
    290900   303.12371     -3245.8385     -3263.3527      17.514271      7023.6808      10112.159    
    291000   292.07156     -3247.1789     -3264.0546      16.875686      6881.0038      10112.159    
    291100   280.3434      -3248.21       -3264.408       16.198041      6613.2025      10112.159    
    291200   309.26792     -3247.4827     -3265.352       17.869279      6356.7788      10112.159    
    291300   289.50806     -3247.0957     -3263.8232      16.727569      6703.3543      10112.159    
    291400   303.8817      -3245.9719     -3263.5299      17.558067      6759.7194      10112.159    
    291500   300.15416     -3245.725      -3263.0677      17.342693      6905.0036      10112.159    
    291600   316.30528     -3245.8525     -3264.1284      18.275893      6757.2449      10112.159    
    291700   300.49487     -3246.9588     -3264.3212      17.362379      6565.5989      10112.159    
    291800   282.87245     -3248.6751     -3265.0193      16.344168      6437.796       10112.159    
    291900   290.07469     -3248.0877     -3264.848       16.760308      6506.73        10112.159    
    292000   272.64886     -3247.0459     -3262.7994      15.753456      7146.2457      10112.159    
    292100   313.39207     -3245.9402     -3264.0478      18.10757       6751.8167      10112.159    
    292200   309.32874     -3246.048      -3263.9208      17.872793      6792.8921      10112.159    
    292300   300.86018     -3246.388      -3263.7714      17.383486      6973.3076      10112.159    
    292400   288.87572     -3247.263      -3263.9541      16.691032      6640.1641      10112.159    
    292500   288.21936     -3248.0918     -3264.7449      16.653109      6690.3645      10112.159    
    292600   306.65009     -3247.371      -3265.089       17.718023      6253.6396      10112.159    
    292700   288.61067     -3245.7938     -3262.4695      16.675718      7049.0374      10112.159    
    292800   330.97757     -3245.0056     -3264.1292      19.123648      6779.5599      10112.159    
    292900   287.10672     -3245.9575     -3262.5463      16.588821      7375.4008      10112.159    
    293000   295.80919     -3246.5204     -3263.6121      17.091643      6873.6129      10112.159    
    293100   291.2558      -3247.2337     -3264.0623      16.828552      6544.5038      10112.159    
    293200   299.19815     -3247.658      -3264.9455      17.287455      6375.3436      10112.159    
    293300   291.87691     -3248.1197     -3264.9841      16.864439      6381.923       10112.159    
    293400   288.44784     -3247.1884     -3263.8547      16.66631       6921.7189      10112.159    
    293500   314.16915     -3245.7038     -3263.8562      18.152469      6891.142       10112.159    
    293600   304.38019     -3245.6454     -3263.2323      17.58687       6879.2729      10112.159    
    293700   303.71376     -3246.2399     -3263.7883      17.548364      6825.799       10112.159    
    293800   291.32434     -3247.7269     -3264.5594      16.832512      6571.7432      10112.159    
    293900   275.94557     -3247.9652     -3263.9091      15.943938      6510.2336      10112.159    
    294000   300.99493     -3247.385      -3264.7763      17.391272      6351.2023      10112.159    
    294100   289.71191     -3246.8602     -3263.5995      16.739347      6649.0652      10112.159    
    294200   318.80206     -3245.714      -3264.1342      18.420155      6693.8198      10112.159    
    294300   291.85183     -3246.2371     -3263.1001      16.86299       7178.9383      10112.159    
    294400   315.05629     -3246.1839     -3264.3877      18.203727      6530.9993      10112.159    
    294500   296.12423     -3246.6941     -3263.8039      17.109846      6745.9023      10112.159    
    294600   290.48526     -3247.4144     -3264.1984      16.78403       6624.3952      10112.159    
    294700   286.90183     -3248.4906     -3265.0676      16.576982      6293.1049      10112.159    
    294800   284.05271     -3248.2161     -3264.6285      16.412362      6470.8035      10112.159    
    294900   287.23822     -3246.767      -3263.3634      16.596419      6648.6839      10112.159    
    295000   308.80349     -3245.9288     -3263.7712      17.842445      6679.139       10112.159    
    295100   313.23515     -3245.8707     -3263.9692      18.098503      6801.8475      10112.159    
    295200   289.92234     -3246.758      -3263.5095      16.751506      6633.1069      10112.159    
    295300   293.4787      -3247.7388     -3264.6958      16.956989      6503.4054      10112.159    
    295400   283.84989     -3248.6933     -3265.0939      16.400644      6359.0743      10112.159    
    295500   274.83904     -3248.8283     -3264.7083      15.880003      6346.1685      10112.159    
    295600   296.05737     -3247.0987     -3264.2047      17.105983      6528.3141      10112.159    
    295700   290.2118      -3246.3584     -3263.1266      16.76823       6781.9402      10112.159    
    295800   312.01753     -3245.5886     -3263.6168      18.02815       6921.3545      10112.159    
    295900   303.85809     -3245.7035     -3263.2602      17.556703      7023.6216      10112.159    
    296000   296.31602     -3246.8049     -3263.9258      17.120927      6681.8591      10112.159    
    296100   282.00133     -3248.0197     -3264.3135      16.293835      6422.5069      10112.159    
    296200   290.82291     -3247.5259     -3264.3294      16.80354       6506.672       10112.159    
    296300   309.05144     -3246.4169     -3264.2736      17.856771      6662.8762      10112.159    
    296400   301.23779     -3245.8166     -3263.2219      17.405304      7199.012       10112.159    
    296500   284.79622     -3246.1036     -3262.5589      16.455322      7142.9986      10112.159    
    296600   307.99379     -3246.3276     -3264.1233      17.795661      6486.1399      10112.159    
    296700   311.07532     -3246.6276     -3264.6013      17.97371       6599.649       10112.159    
    296800   295.37403     -3246.9643     -3264.0308      17.0665        6677.6432      10112.159    
    296900   277.36529     -3247.7873     -3263.8132      16.025968      6602.9044      10112.159    
    297000   292.87887     -3247.5764     -3264.4987      16.922332      6452.4897      10112.159    
    297100   307.22003     -3246.182      -3263.9329      17.750954      6833.4123      10112.159    
    297200   317.30315     -3245.2799     -3263.6135      18.333549      6811.8596      10112.159    
    297300   293.30205     -3245.9348     -3262.8815      16.946783      7095.7617      10112.159    
    297400   307.25591     -3246.3492     -3264.1022      17.753027      6713.1743      10112.159    
    297500   285.44345     -3246.8679     -3263.3607      16.492718      6903.2423      10112.159    
    297600   296.84677     -3246.6711     -3263.8227      17.151594      6657.9433      10112.159    
    297700   300.20338     -3246.4983     -3263.8439      17.345537      6756.278       10112.159    
    297800   299.07506     -3246.3943     -3263.6746      17.280343      6737.1462      10112.159    
    297900   293.60621     -3246.5538     -3263.5181      16.964357      6590.689       10112.159    
    298000   294.35082     -3247.2815     -3264.2889      17.00738       6629.3832      10112.159    
    298100   301.31855     -3247.9453     -3265.3553      17.40997       6258.6214      10112.159    
    298200   282.64947     -3247.9366     -3264.2679      16.331284      6435.7464      10112.159    
    298300   300.31837     -3246.2339     -3263.5861      17.35218       6856.5055      10112.159    
    298400   295.38677     -3245.965      -3263.0322      17.067236      6941.6282      10112.159    
    298500   308.9549      -3246.112      -3263.9632      17.851193      6804.3302      10112.159    
    298600   300.0997      -3246.858      -3264.1976      17.339546      6643.1837      10112.159    
    298700   289.53983     -3248.1192     -3264.8486      16.729404      6199.4731      10112.159    
    298800   282.03018     -3248.5177     -3264.8132      16.295502      6523.8033      10112.159    
    298900   291.58096     -3246.7154     -3263.5627      16.847339      6821.63        10112.159    
    299000   327.62702     -3245.8335     -3264.7635      18.930055      6708.4462      10112.159    
    299100   296.0686      -3246.3652     -3263.4719      17.106632      6966.2047      10112.159    
    299200   292.93987     -3246.9103     -3263.8361      16.925856      6692.5741      10112.159    
    299300   285.72096     -3247.4221     -3263.9308      16.508753      6605.2059      10112.159    
    299400   303.50926     -3246.2877     -3263.8243      17.536548      6812.2936      10112.159    
    299500   330.09942     -3245.0223     -3264.0952      19.072908      7171.8498      10112.159    
    299600   304.4436      -3245.6573     -3263.2478      17.590533      7088.2152      10112.159    
    299700   286.88675     -3246.5255     -3263.1016      16.576111      7090.96        10112.159    
    299800   300.10139     -3246.6779     -3264.0176      17.339644      6765.6012      10112.159    
    299900   297.07411     -3246.6683     -3263.8331      17.16473       7055.7721      10112.159    
    300000   292.40411     -3246.4745     -3263.3694      16.8949        6781.0271      10112.159    
Loop time of 2258.08 on 20 procs for 300000 steps with 448 atoms

Performance: 11.479 ns/day, 2.091 hours/ns, 132.856 timesteps/s, 59.520 katom-step/s
99.9% CPU use with 20 MPI tasks x 1 OpenMP threads

MPI task timing breakdown:
Section |  min time  |  avg time  |  max time  |%varavg| %total
---------------------------------------------------------------
Pair    | 1743.4     | 1997.5     | 2163.4     | 416.5 | 88.46
Neigh   | 20.267     | 28.47      | 34.717     | 121.2 |  1.26
Comm    | 58.829     | 228.96     | 491.38     |1273.0 | 10.14
Output  | 0.35182    | 0.59307    | 0.65961    |   8.1 |  0.03
Modify  | 2.0776     | 2.2582     | 2.4895     |   7.5 |  0.10
Other   |            | 0.2868     |            |       |  0.01

Nlocal:           22.4 ave          24 max          18 min
Histogram: 1 2 0 2 0 2 1 0 0 12
Nghost:          495.3 ave         522 max         466 min
Histogram: 4 0 0 8 0 0 0 0 0 8
Neighs:              0 ave           0 max           0 min
Histogram: 20 0 0 0 0 0 0 0 0 0
FullNghs:       1279.9 ave        1383 max        1030 min
Histogram: 1 2 0 2 1 1 1 0 0 12

Total # of neighbors = 25598
Ave neighs/atom = 57.138393
Neighbor list builds = 300000
Dangerous builds not checked
Total wall time: 0:37:38
