LAMMPS (27 Jun 2024)
OMP_NUM_THREADS environment is not set. Defaulting to 1 thread. (src/comm.cpp:98)
  using 1 OpenMP thread(s) per MPI task
Reading data file ...
  orthogonal box = (0 0 0) to (44.844435 44.38448 40.643788)
  5 by 2 by 2 MPI processor grid
  reading atoms ...
  3584 atoms
  read_data CPU = 0.021 seconds
**************** Begin of POD Potentials ****************
species: Hf 
periodic boundary conditions: 1 1 1
number of environment clusters: 8
number of principal compoments: 2
inner cut-off radius: 1
outer cut-off radius: 5
cut-off function type: 1
gaussian_exponents: 
polynomial_degrees: 
bessel polynomial degree: 4
inverse polynomial degree: 10
one-body potential: 1
two-body radial basis functions: 8
three-body radial basis functions: 8
three-body angular degree: 6
four-body radial basis functions: 7
four-body angular degree: 5
five-body radial basis functions: 0
five-body angular degree: 0
six-body radial basis functions: 0
six-body angular degree: 0
seven-body radial basis functions: 0
seven-body angular degree: 0
number of local descriptors per element for one-body potential: 1
number of local descriptors per element for two-body potential: 8
number of local descriptors per element for three-body potential: 56
number of local descriptors per element for four-body potential: 112
number of local descriptors per element for five-body potential: 0
number of local descriptors per element for six-body potential: 0
number of local descriptors per element for seven-body potential: 0
number of local descriptors per element for all potentials: 177
number of global descriptors: 1409
**************** End of POD Potentials ****************

**************** Begin of Model Coefficients ****************
total number of coefficients for POD potential: 1409
total number of elements for PCA projection matrix: 352
total number of elements for PCA centroids: 16
**************** End of Model Coefficients ****************


CITE-CITE-CITE-CITE-CITE-CITE-CITE-CITE-CITE-CITE-CITE-CITE-CITE

Your simulation uses code contributions which should be cited:
- Type Label Framework: https://doi.org/10.1021/acs.jpcb.3c08419
The log file lists these citations in BibTeX format.

CITE-CITE-CITE-CITE-CITE-CITE-CITE-CITE-CITE-CITE-CITE-CITE-CITE

Neighbor list info ...
  update: every = 1 steps, delay = 0 steps, check = no
  max neighbors/atom: 2000, page size: 100000
  master list distance cutoff = 7
  ghost atom cutoff = 7
  binsize = 3.5, bins = 13 13 12
  1 neighbor lists, perpetual/occasional/extra = 1 0 0
  (1) pair pod, perpetual
      attributes: full, newton on
      pair build: full/bin/atomonly
      stencil: full/bin/3d
      bin: standard
Setting up Verlet run ...
  Unit style    : metal
  Current step  : 0
  Time step     : 0.001
Per MPI rank memory allocation (min/avg/max) = 2.609 | 2.61 | 2.613 Mbytes
   Step          Temp          TotEng         PotEng         KinEng         Press          Volume    
         0   300           -25853.672     -25992.614      138.94173      27705.402      80897.271    
       100   325.00566     -25876.548     -26027.07       150.52283      9690.062       80897.271    
       200   236.72068     -25885.463     -25995.097      109.6346       10889.588      80897.271    
       300   348.26824     -25877.595     -26038.892      161.29664      9099.9519      80897.271    
       400   342.79944     -25897.266     -26056.03       158.76382      9046.9412      80897.271    
       500   329.84074     -25913.448     -26066.21       152.76214      8457.0978      80897.271    
       600   291.6281      -25922.607     -26057.671      135.06438      8465.1052      80897.271    
       700   281.61584     -25923.51      -26053.938      130.42731      9054.4121      80897.271    
       800   301.7911      -25919.283     -26059.054      139.77126      8577.3101      80897.271    
       900   294.21941     -25916.598     -26052.863      136.26451      8687.0154      80897.271    
      1000   319.39988     -25913.029     -26060.956      147.92657      8517.2412      80897.271    
      1100   299.62861     -25915.083     -26053.852      138.76973      8819.4331      80897.271    
      1200   300.75392     -25919.057     -26058.348      139.2909       8652.029       80897.271    
      1300   288.9372      -25923.07      -26056.888      133.81811      8306.4639      80897.271    
      1400   297.4567      -25921.002     -26058.766      137.76383      8718.3787      80897.271    
      1500   299.76635     -25917.533     -26056.367      138.83352      8648.9758      80897.271    
      1600   313.86059     -25913.097     -26058.458      145.36111      8566.8762      80897.271    
      1700   299.86041     -25913.579     -26052.456      138.87708      8904.5146      80897.271    
      1800   291.66988     -25916.393     -26051.477      135.08372      8876.6058      80897.271    
      1900   299.77223     -25920.17      -26059.007      138.83624      8874.3448      80897.271    
      2000   290.9476      -25923.574     -26058.324      134.74921      8332.8933      80897.271    
      2100   314.28772     -25919.489     -26065.048      145.55893      8546.903       80897.271    
      2200   288.82331     -25917.857     -26051.622      133.76537      8743.9476      80897.271    
      2300   305.05255     -25913.481     -26054.763      141.28177      8779.0501      80897.271    
      2400   295.34294     -25915.51      -26052.294      136.78486      8926.4612      80897.271    
      2500   303.94525     -25917.23      -26057.999      140.76893      8796.9688      80897.271    
      2600   297.75425     -25920.494     -26058.396      137.90163      8519.8152      80897.271    
      2700   301.40336     -25921.102     -26060.693      139.59168      8549.79        80897.271    
      2800   292.60181     -25918.919     -26054.434      135.51534      8808.6729      80897.271    
      2900   302.90378     -25915.848     -26056.135      140.28658      8870.2395      80897.271    
      3000   299.57649     -25916.328     -26055.073      138.74559      8789.7903      80897.271    
      3100   304.33902     -25916.808     -26057.759      140.9513       8875.2553      80897.271    
      3200   289.83814     -25919.945     -26054.18       134.23537      8888.0279      80897.271    
      3300   301.49791     -25919.375     -26059.011      139.63547      8724.24        80897.271    
      3400   298.02243     -25918.787     -26056.813      138.02584      8635.9104      80897.271    
      3500   307.57094     -25915.982     -26058.43       142.44813      8672.7743      80897.271    
      3600   302.24099     -25914.344     -26054.323      139.97962      8824.5194      80897.271    
      3700   301.70656     -25913.474     -26053.206      139.7321       8835.1801      80897.271    
      3800   301.01083     -25917.268     -26056.678      139.40988      8722.448       80897.271    
      3900   301.66598     -25920.352     -26060.065      139.71331      8697.6431      80897.271    
      4000   291.408       -25921.814     -26056.777      134.96244      8695.5752      80897.271    
      4100   309.04369     -25918.13      -26061.26       143.13022      8671.137       80897.271    
      4200   296.66037     -25917.739     -26055.134      137.39502      8613.2771      80897.271    
      4300   301.73009     -25917.057     -26056.8        139.743        8922.1347      80897.271    
      4400   301.26605     -25917.631     -26057.159      139.52809      8920.0538      80897.271    
      4500   296.20694     -25921.404     -26058.59       137.18502      8611.6712      80897.271    
      4600   293.39642     -25924.374     -26060.257      135.88335      8527.4085      80897.271    
      4700   300.25082     -25921.237     -26060.295      139.05789      8802.7189      80897.271    
      4800   296.16072     -25920.005     -26057.169      137.16361      8617.6084      80897.271    
      4900   303.95542     -25917.605     -26058.379      140.77364      8635.2286      80897.271    
      5000   298.27848     -25916.403     -26054.548      138.14443      8972.1163      80897.271    
      5100   303.85339     -25912.964     -26053.69       140.72638      8879.7278      80897.271    
      5200   306.47085     -25911.236     -26053.175      141.93863      8864.9439      80897.271    
      5300   304.16228     -25915.068     -26055.938      140.86945      8824.1663      80897.271    
      5400   308.26619     -25917.889     -26060.659      142.77013      8680.9669      80897.271    
      5500   297.78056     -25919.561     -26057.475      137.91382      8798.4141      80897.271    
      5600   296.78706     -25918.475     -26055.928      137.45369      8908.264       80897.271    
      5700   301.75281     -25916.925     -26056.679      139.75353      8754.8997      80897.271    
      5800   305.9966      -25916.906     -26058.625      141.71899      8547.6737      80897.271    
      5900   298.33829     -25917.942     -26056.115      138.17213      8860.5722      80897.271    
      6000   299.89985     -25918.96      -26057.855      138.89535      8850.6868      80897.271    
      6100   289.04588     -25922.685     -26056.553      133.86845      8642.1852      80897.271    
      6200   302.22584     -25921.293     -26061.266      139.97261      8698.551       80897.271    
      6300   296.51365     -25918.403     -26055.73       137.32706      8816.6852      80897.271    
      6400   305.70941     -25916.848     -26058.434      141.58598      8652.3643      80897.271    
      6500   292.72242     -25917.37      -26052.942      135.5712       9018.2036      80897.271    
      6600   310.4112      -25916.855     -26060.618      143.76356      8919.9844      80897.271    
      6700   292.84787     -25919.346     -26054.976      135.6293       8843.6426      80897.271    
      6800   304.30113     -25918.234     -26059.168      140.93375      8661.4403      80897.271    
      6900   297.03601     -25918.667     -26056.236      137.56899      8817.1926      80897.271    
      7000   301.78048     -25917.258     -26057.024      139.76634      8926.3266      80897.271    
      7100   301.78073     -25915.662     -26055.428      139.76645      8941.7236      80897.271    
      7200   301.18618     -25914.385     -26053.876      139.4911       8981.3711      80897.271    
      7300   304.12302     -25917.198     -26058.049      140.85126      8754.2177      80897.271    
      7400   293.85402     -25921.063     -26057.159      136.09528      8952.6416      80897.271    
      7500   301.86339     -25920.14      -26059.945      139.80474      8830.1612      80897.271    
      7600   298.91631     -25919.238     -26057.678      138.43983      8807.0791      80897.271    
      7700   306.32466     -25914.63      -26056.501      141.87092      8767.9966      80897.271    
      7800   297.85065     -25914.716     -26052.662      137.94628      8954.4661      80897.271    
      7900   301.57277     -25915.929     -26055.599      139.67014      9035.504       80897.271    
      8000   304.26801     -25918.453     -26059.372      140.91841      8719.1819      80897.271    
      8100   297.88052     -25920.711     -26058.671      137.96012      8732.2352      80897.271    
      8200   298.85512     -25920.558     -26058.97       138.41149      8893.91        80897.271    
      8300   293.8014      -25919.903     -26055.974      136.07091      8900.0938      80897.271    
      8400   302.99072     -25918.341     -26058.668      140.32685      8929.8147      80897.271    
      8500   301.926       -25918.379     -26058.213      139.83374      8738.2858      80897.271    
      8600   294.50223     -25919.085     -26055.481      136.3955       9063.2169      80897.271    
      8700   297.81673     -25917.218     -26055.148      137.93057      8923.722       80897.271    
      8800   302.37556     -25914.848     -26054.89       140.04194      8686.7051      80897.271    
      8900   310.19398     -25913.734     -26057.397      143.66296      9088.6757      80897.271    
      9000   297.78557     -25916.885     -26054.801      137.91614      9183.5278      80897.271    
      9100   297.39546     -25920.113     -26057.848      137.73547      8743.1832      80897.271    
      9200   299.29911     -25920.022     -26058.639      138.61712      8831.0949      80897.271    
      9300   302.71267     -25918.194     -26058.392      140.19808      8921.6224      80897.271    
      9400   300.69034     -25914.443     -26053.704      139.26145      8964.6077      80897.271    
      9500   306.23848     -25911.746     -26053.577      141.83101      8936.7451      80897.271    
      9600   302.17751     -25914.349     -26054.299      139.95022      9023.0403      80897.271    
      9700   302.25941     -25916.959     -26056.947      139.98815      8946.4919      80897.271    
      9800   299.93355     -25918.352     -26057.262      138.91096      8814.0192      80897.271    
      9900   300.87042     -25918.603     -26057.948      139.34486      8945.2351      80897.271    
     10000   297.16577     -25919.653     -26057.282      137.62909      8816.1944      80897.271    
     10100   294.76123     -25921.936     -26058.452      136.51545      8788.9491      80897.271    
     10200   300.6214      -25921.218     -26060.447      139.22953      8792.8629      80897.271    
     10300   296.85359     -25917.743     -26055.227      137.48451      8960.095       80897.271    
     10400   306.69501     -25914.66      -26056.702      142.04245      8847.5443      80897.271    
     10500   303.28638     -25916.442     -26056.906      140.46378      8968.9842      80897.271    
     10600   303.91975     -25917.744     -26058.501      140.75712      8823.3138      80897.271    
     10700   291.05432     -25919.616     -26054.415      134.79863      8824.6572      80897.271    
     10800   305.45286     -25918.348     -26059.815      141.46716      8688.1587      80897.271    
     10900   302.87623     -25918.207     -26058.481      140.27382      8855.4732      80897.271    
     11000   300.33942     -25918.639     -26057.737      139.09893      8866.7558      80897.271    
     11100   299.41325     -25918.633     -26057.303      138.66998      8876.1816      80897.271    
     11200   302.16267     -25917.271     -26057.214      139.94335      8963.0244      80897.271    
     11300   303.75825     -25914.425     -26055.107      140.68232      8921.8547      80897.271    
     11400   307.54304     -25912.209     -26054.645      142.43521      9132.4473      80897.271    
     11500   301.36825     -25914.858     -26054.434      139.57542      8911.487       80897.271    
     11600   301.42232     -25918.69      -26058.29       139.60046      8891.162       80897.271    
     11700   295.58677     -25920.753     -26057.651      136.89779      8950.2489      80897.271    
     11800   301.22387     -25919.506     -26059.014      139.50855      8939.8487      80897.271    
     11900   298.69906     -25917.707     -26056.046      138.33922      9049.3592      80897.271    
     12000   304.41547     -25914.28      -26055.267      140.9867       8932.6923      80897.271    
     12100   312.3104      -25909.732     -26054.375      144.64316      9148.076       80897.271    
     12200   300.96573     -25912.905     -26052.294      139.389        9066.4473      80897.271    
     12300   306.57742     -25915.761     -26057.749      141.98799      8880.3119      80897.271    
     12400   298.76371     -25918.975     -26057.344      138.36916      8924.401       80897.271    
     12500   297.84847     -25919.833     -26057.778      137.94527      8842.4218      80897.271    
     12600   300.95865     -25918.94      -26058.326      139.38572      8760.9511      80897.271    
     12700   304.23326     -25915.714     -26056.616      140.90232      8932.0874      80897.271    
     12800   304.10581     -25912.785     -26053.629      140.84329      9050.1712      80897.271    
     12900   307.14546     -25914.484     -26056.735      142.25107      9066.3833      80897.271    
     13000   298.70531     -25918.696     -26057.039      138.34211      8900.9314      80897.271    
     13100   300.44721     -25918.887     -26058.036      139.14885      8719.1578      80897.271    
     13200   297.95572     -25919.628     -26057.623      137.99494      8870.491       80897.271    
     13300   298.56767     -25919.001     -26057.279      138.27836      8840.6629      80897.271    
     13400   307.8531      -25915.185     -26057.764      142.57881      8921.9091      80897.271    
     13500   296.01211     -25915.688     -26052.783      137.09478      8945.1116      80897.271    
     13600   304.96357     -25917.061     -26058.302      141.24055      8897.9303      80897.271    
     13700   300.11334     -25922.381     -26061.376      138.99422      8742.3219      80897.271    
     13800   298.56312     -25921.97      -26060.246      138.27625      8737.5395      80897.271    
     13900   297.59675     -25918.839     -26056.668      137.82869      8882.5772      80897.271    
     14000   297.89543     -25916.823     -26054.79       137.96702      8960.7211      80897.271    
     14100   307.81653     -25915.982     -26058.544      142.56187      8865.5673      80897.271    
     14200   301.52383     -25919.198     -26058.845      139.64747      8699.6664      80897.271    
     14300   295.7748      -25924.206     -26061.191      136.98488      8796.1225      80897.271    
     14400   285.57411     -25924.013     -26056.273      132.26054      8833.8326      80897.271    
     14500   300.08582     -25920.031     -26059.012      138.98147      8881.7041      80897.271    
     14600   304.21964     -25917.899     -26058.795      140.89601      8887.6921      80897.271    
     14700   302.82884     -25916.785     -26057.037      140.25188      8906.5543      80897.271    
     14800   301.41693     -25915.867     -26055.465      139.59796      8989.9699      80897.271    
     14900   300.71225     -25916.98      -26056.252      139.2716       8958.8793      80897.271    
     15000   295.9798      -25920.292     -26057.372      137.07982      8723.9149      80897.271    
     15100   299.30182     -25920.715     -26059.334      138.61838      8765.9764      80897.271    
     15200   297.28338     -25920.291     -26057.975      137.68356      8799.4297      80897.271    
     15300   303.1672      -25916.471     -26056.88       140.40858      8877.4202      80897.271    
     15400   301.86249     -25914.855     -26054.659      139.80432      8958.0428      80897.271    
     15500   301.89153     -25916.821     -26056.639      139.81777      8851.8016      80897.271    
     15600   298.56797     -25920.598     -26058.876      138.2785       8887.0437      80897.271    
     15700   293.34576     -25921.605     -26057.465      135.85989      8741.6736      80897.271    
     15800   297.17834     -25920.166     -26057.801      137.63491      8792.7002      80897.271    
     15900   305.7411      -25917.582     -26059.182      141.60066      8884.976       80897.271    
     16000   301.26161     -25917.827     -26057.353      139.52603      8905.4757      80897.271    
     16100   295.03751     -25919.528     -26056.172      136.64341      8857.734       80897.271    
     16200   304.82276     -25919.945     -26061.12       141.17534      8784.439       80897.271    
     16300   293.39165     -25922.373     -26058.255      135.88115      8802.7495      80897.271    
     16400   299.15754     -25919.845     -26058.396      138.55155      8822.2583      80897.271    
     16500   301.34359     -25917.746     -26057.31       139.564        8942.3435      80897.271    
     16600   299.88824     -25917.735     -26056.625      138.88997      8859.7403      80897.271    
     16700   300.01531     -25917.542     -26056.491      138.94882      8938.8142      80897.271    
     16800   303.74219     -25918.849     -26059.524      140.67488      8919.6113      80897.271    
     16900   294.40933     -25921.543     -26057.895      136.35247      8730.6232      80897.271    
     17000   296.45389     -25920.499     -26057.799      137.29939      8814.469       80897.271    
     17100   302.83352     -25916.669     -26056.923      140.25404      9013.5654      80897.271    
     17200   297.77545     -25915.013     -26052.925      137.91145      9079.7431      80897.271    
     17300   306.3127      -25914.911     -26056.777      141.86539      9064.364       80897.271    
     17400   297.81381     -25920.715     -26058.644      137.92922      8854.6462      80897.271    
     17500   298.11397     -25921.704     -26059.772      138.06824      8817.6461      80897.271    
     17600   296.73824     -25920.362     -26057.793      137.43108      8823.8995      80897.271    
     17700   298.48475     -25915.937     -26054.177      138.23996      8975.1373      80897.271    
     17800   306.63309     -25915.187     -26057.201      142.01377      8930.2924      80897.271    
     17900   302.536       -25917.614     -26057.73       140.11625      8910.3139      80897.271    
     18000   297.31        -25919.289     -26056.985      137.69588      8978.5613      80897.271    
     18100   292.7472      -25920.13      -26055.713      135.58268      8919.7066      80897.271    
     18200   302.68381     -25917.647     -26057.831      140.18471      8841.1143      80897.271    
     18300   306.77471     -25913.655     -26055.735      142.07936      9014.6367      80897.271    
     18400   307.72886     -25913.737     -26056.258      142.52127      9083.3105      80897.271    
     18500   290.71783     -25918.727     -26053.37       134.6428       8912.5468      80897.271    
     18600   303.1517      -25919.286     -26059.688      140.40141      8895.2175      80897.271    
     18700   297.33073     -25920.725     -26058.43       137.70549      8770.7579      80897.271    
     18800   305.49656     -25918.196     -26059.683      141.4874       8857.2185      80897.271    
     18900   300.37778     -25916.059     -26055.176      139.11669      8983.1917      80897.271    
     19000   299.00043     -25916.347     -26054.826      138.47879      8926.3256      80897.271    
     19100   297.62394     -25921.534     -26059.375      137.84128      8850.6926      80897.271    
     19200   296.45332     -25922.805     -26060.104      137.29912      8870.5164      80897.271    
     19300   293.63534     -25920.832     -26056.826      135.99401      8742.4961      80897.271    
     19400   306.09594     -25916.558     -26058.323      141.765        8817.0196      80897.271    
     19500   303.72949     -25915.953     -26056.622      140.669        8965.7599      80897.271    
     19600   298.90018     -25917.776     -26056.209      138.43236      8941.3759      80897.271    
     19700   299.39537     -25920.735     -26059.397      138.6617       8796.264       80897.271    
     19800   297.40667     -25922.497     -26060.238      137.74066      8795.9544      80897.271    
     19900   302.61928     -25920.689     -26060.844      140.15482      8823.4513      80897.271    
     20000   295.08728     -25920.127     -26056.794      136.66646      8963.1179      80897.271    
     20100   297.01364     -25917.787     -26055.346      137.55863      8902.7112      80897.271    
     20200   302.80531     -25916.051     -26056.292      140.24098      8932.8988      80897.271    
     20300   305.23301     -25916.687     -26058.052      141.36534      8978.0657      80897.271    
     20400   297.14852     -25920.928     -26058.549      137.6211       8916.5213      80897.271    
     20500   296.1796      -25922.762     -26059.935      137.17235      8704.1216      80897.271    
     20600   294.57359     -25921.332     -26057.761      136.42855      8896.1101      80897.271    
     20700   298.77858     -25917.847     -26056.223      138.37604      8891.382       80897.271    
     20800   304.23779     -25916.29      -26057.195      140.90442      8912.3985      80897.271    
     20900   302.39076     -25917.146     -26057.195      140.04899      8992.7108      80897.271    
     21000   294.42426     -25920.161     -26056.52       136.35939      8783.6251      80897.271    
     21100   300.60118     -25920.178     -26059.398      139.22016      8735.0451      80897.271    
     21200   300.13191     -25918.216     -26057.219      139.00282      8907.3489      80897.271    
     21300   306.6963      -25912.935     -26054.978      142.04305      9153.0412      80897.271    
     21400   304.88485     -25913.788     -26054.992      141.2041       8956.9743      80897.271    
     21500   304.31879     -25916.414     -26057.356      140.94193      8855.7007      80897.271    
     21600   298.46407     -25918.949     -26057.179      138.23038      8738.1012      80897.271    
     21700   301.82317     -25918.834     -26058.62       139.78611      8865.798       80897.271    
     21800   302.30087     -25918.937     -26058.944      140.00735      8905.6282      80897.271    
     21900   294.54986     -25922.129     -26058.547      136.41756      8792.4098      80897.271    
     22000   294.29871     -25925.413     -26061.714      136.30124      8750.0593      80897.271    
     22100   299.90533     -25922.222     -26061.12       138.89788      8786.3395      80897.271    
     22200   296.14429     -25918.484     -26055.64       137.156        8869.7214      80897.271    
     22300   304.2025      -25917.25      -26058.138      140.88807      8951.4805      80897.271    
     22400   296.93244     -25918.931     -26056.452      137.52102      8991.2215      80897.271    
     22500   303.32709     -25918.905     -26059.388      140.48263      8913.7864      80897.271    
     22600   300.8409      -25919.176     -26058.508      139.33118      8915.6926      80897.271    
     22700   296.77082     -25919.288     -26056.734      137.44617      9049.8007      80897.271    
     22800   301.46953     -25917.558     -26057.181      139.62233      9137.2235      80897.271    
     22900   303.31315     -25917.228     -26057.705      140.47618      8965.0168      80897.271    
     23000   296.4129      -25919.222     -26056.502      137.2804       8962.408       80897.271    
     23100   299.66121     -25921.595     -26060.38       138.78482      8879.7812      80897.271    
     23200   291.18119     -25923.727     -26058.585      134.85739      8874.5313      80897.271    
     23300   298.68774     -25919.288     -26057.622      138.33397      8930.9196      80897.271    
     23400   304.72254     -25916.702     -26057.831      141.12892      9002.71        80897.271    
     23500   301.78931     -25917.501     -26057.271      139.77043      8960.9953      80897.271    
     23600   295.91165     -25919.854     -26056.902      137.04825      8921.5424      80897.271    
     23700   301.65994     -25920.596     -26060.306      139.71051      8728.8372      80897.271    
     23800   298.35948     -25919.365     -26057.547      138.18194      8956.4606      80897.271    
     23900   300.21013     -25916.064     -26055.103      139.03905      9059.8274      80897.271    
     24000   309.882       -25914.155     -26057.673      143.51847      9001.893       80897.271    
     24100   300.93325     -25917.034     -26056.408      139.37396      9029.2148      80897.271    
     24200   289.7428      -25921.152     -26055.343      134.19122      8947.6142      80897.271    
     24300   307.58371     -25920.318     -26062.772      142.45404      8801.8333      80897.271    
     24400   293.16699     -25920.837     -26056.614      135.7771       8937.6329      80897.271    
     24500   298.22121     -25918.918     -26057.036      138.1179       8961.7308      80897.271    
     24600   304.67108     -25915.712     -26056.817      141.10509      8977.188       80897.271    
     24700   305.37165     -25912.544     -26053.974      141.42955      9119.3691      80897.271    
     24800   299.82642     -25914.626     -26053.487      138.86134      9001.0645      80897.271    
     24900   301.1338      -25916.31      -26055.777      139.46684      9066.1906      80897.271    
     25000   302.58084     -25917.785     -26057.922      140.13702      8982.3012      80897.271    
     25100   296.4788      -25920.062     -26057.373      137.31093      8868.1824      80897.271    
     25200   300.29205     -25920.987     -26060.064      139.07699      8799.0841      80897.271    
     25300   287.3004      -25923.032     -26056.093      133.06005      8889.1213      80897.271    
     25400   302.39044     -25919.557     -26059.606      140.04884      8838.7156      80897.271    
     25500   303.16303     -25916.208     -26056.615      140.40666      8905.3959      80897.271    
     25600   301.50557     -25915.648     -26055.287      139.63902      8941.5244      80897.271    
     25700   301.42667     -25917.23      -26056.832      139.60248      8963.595       80897.271    
     25800   295.55137     -25919.411     -26056.292      136.88139      9049.5364      80897.271    
     25900   302.70561     -25919.366     -26059.561      140.1948       8848.0807      80897.271    
     26000   301.1948      -25919.897     -26059.392      139.49509      8796.2359      80897.271    
     26100   297.72794     -25918.592     -26056.481      137.88945      8976.7138      80897.271    
     26200   301.73265     -25915.633     -26055.377      139.74419      9006.406       80897.271    
     26300   302.07644     -25915.789     -26055.692      139.90341      8910.3551      80897.271    
     26400   299.82508     -25920.7       -26059.561      138.86072      8783.5747      80897.271    
     26500   293.79282     -25922.898     -26058.965      136.06694      8905.7179      80897.271    
     26600   298.37052     -25919.784     -26057.971      138.18705      8864.1473      80897.271    
     26700   300.4082      -25917.631     -26056.762      139.13078      8982.2799      80897.271    
     26800   301.12481     -25916.29      -26055.752      139.46267      8990.0474      80897.271    
     26900   305.29843     -25913.915     -26055.311      141.39564      9022.6749      80897.271    
     27000   303.24554     -25914.076     -26054.521      140.44487      9145.0947      80897.271    
     27100   302.41566     -25918.301     -26058.361      140.06052      8920.237       80897.271    
     27200   297.29483     -25920.933     -26058.622      137.68886      8932.0497      80897.271    
     27300   302.33512     -25919.652     -26059.675      140.02322      8896.8982      80897.271    
     27400   299.74681     -25917.434     -26056.259      138.82447      8887.2793      80897.271    
     27500   305.27906     -25913.54      -26054.926      141.38667      9124.8624      80897.271    
     27600   309.25801     -25909.012     -26052.242      143.22948      9140.2651      80897.271    
     27700   307.1936      -25911.081     -26053.354      142.27337      9209.8964      80897.271    
     27800   307.77927     -25915.145     -26057.689      142.54461      9141.9797      80897.271    
     27900   301.88114     -25918.237     -26058.05       139.81296      8885.6347      80897.271    
     28000   297.35516     -25919.993     -26057.709      137.7168       8901.0681      80897.271    
     28100   296.76292     -25920.132     -26057.574      137.44251      8951.2437      80897.271    
     28200   303.94226     -25917.685     -26058.453      140.76755      8891.6361      80897.271    
     28300   304.44567     -25915.539     -26056.539      141.00069      8921.6452      80897.271    
     28400   303.15957     -25916.657     -26057.062      140.40505      8947.3901      80897.271    
     28500   296.71187     -25920.976     -26058.395      137.41887      9008.68        80897.271    
     28600   290.10042     -25924.184     -26058.541      134.35685      8867.1632      80897.271    
     28700   298.94518     -25922.413     -26060.866      138.4532       8844.7022      80897.271    
     28800   295.25539     -25920.022     -26056.766      136.74432      8941.8914      80897.271    
     28900   302.98178     -25917.812     -26058.135      140.32271      8867.5497      80897.271    
     29000   295.28403     -25917.526     -26054.284      136.75758      9133.4262      80897.271    
     29100   305.23667     -25916.265     -26057.632      141.36704      8998.7803      80897.271    
     29200   302.11444     -25919.905     -26059.826      139.92101      8907.1257      80897.271    
     29300   290.39723     -25923.298     -26057.792      134.49431      8885.7528      80897.271    
     29400   296.50488     -25921.401     -26058.724      137.32301      8784.6447      80897.271    
     29500   305.525       -25917.783     -26059.284      141.50057      8848.3491      80897.271    
     29600   295.76239     -25917.646     -26054.626      136.97913      9017.5309      80897.271    
     29700   303.66206     -25916.874     -26057.512      140.63777      8918.5782      80897.271    
     29800   300.27089     -25918.808     -26057.875      139.06719      8953.1634      80897.271    
     29900   294.0533      -25923.181     -26059.369      136.18758      8832.1646      80897.271    
     30000   292.62052     -25923.753     -26059.277      135.524        8747.8043      80897.271    
     30100   301.0394      -25919.666     -26059.089      139.42312      8885.4956      80897.271    
     30200   298.11795     -25918.414     -26056.485      138.07008      8887.6218      80897.271    
     30300   301.62294     -25917.311     -26057.005      139.69338      8983.0513      80897.271    
     30400   300.13283     -25917.284     -26056.288      139.00325      9048.7312      80897.271    
     30500   297.70209     -25919.331     -26057.208      137.87748      8896.3466      80897.271    
     30600   296.72026     -25921.429     -26058.852      137.42275      8853.1213      80897.271    
     30700   300.10242     -25919.732     -26058.721      138.98916      8940.6182      80897.271    
     30800   304.7856      -25915.298     -26056.456      141.15813      8951.3669      80897.271    
     30900   305.00009     -25914.914     -26056.172      141.25747      9033.3773      80897.271    
     31000   296.24364     -25917.998     -26055.2        137.20201      9098.0523      80897.271    
     31100   296.81998     -25920.419     -26057.888      137.46894      9064.2002      80897.271    
     31200   303.28581     -25920.13      -26060.593      140.46352      8917.3337      80897.271    
     31300   297.3213      -25919.752     -26057.453      137.70112      8832.0276      80897.271    
     31400   302.42501     -25917.078     -26057.142      140.06485      9099.7387      80897.271    
     31500   301.34209     -25915.813     -26055.377      139.5633       9058.4508      80897.271    
     31600   300.67199     -25918.1       -26057.353      139.25295      8966.0877      80897.271    
     31700   300.80584     -25921.57      -26060.885      139.31495      8859.4518      80897.271    
     31800   295.1202      -25921.916     -26058.598      136.6817       8836.3079      80897.271    
     31900   302.48601     -25917.99      -26058.083      140.0931       8976.816       80897.271    
     32000   299.44737     -25916.222     -26054.908      138.68579      9085.5906      80897.271    
     32100   303.49172     -25915.987     -26056.546      140.55888      8999.3427      80897.271    
     32200   295.46621     -25918.668     -26055.51       136.84195      9017.0815      80897.271    
     32300   302.08467     -25919.996     -26059.903      139.90722      8839.9641      80897.271    
     32400   300.70795     -25919.771     -26059.041      139.26961      8883.6704      80897.271    
     32500   297.24548     -25918.5       -26056.166      137.666        9008.6279      80897.271    
     32600   304.56078     -25916.535     -26057.589      141.054        9080.441       80897.271    
     32700   303.57616     -25913.55      -26054.148      140.59799      9208.7727      80897.271    
     32800   305.43326     -25912.984     -26054.442      141.45808      9111.7973      80897.271    
     32900   301.22156     -25917.529     -26057.036      139.50748      8937.4062      80897.271    
     33000   302.96523     -25919.43      -26059.745      140.31504      9013.7179      80897.271    
     33100   295.03753     -25920.315     -26056.958      136.64341      8952.7089      80897.271    
     33200   300.89121     -25918.882     -26058.236      139.35448      8880.4972      80897.271    
     33300   307.28263     -25915.922     -26058.237      142.3146       8956.8221      80897.271    
     33400   303.95445     -25913.872     -26054.645      140.77319      9158.99        80897.271    
     33500   300.64202     -25915.908     -26055.147      139.23907      9182.2301      80897.271    
     33600   298.03137     -25919.661     -26057.691      138.02998      8908.0832      80897.271    
     33700   299.82576     -25920.308     -26059.169      138.86103      8843.7751      80897.271    
     33800   301.73208     -25919.239     -26058.983      139.74392      8948.6485      80897.271    
     33900   300.49177     -25915.507     -26054.677      139.16949      9155.6305      80897.271    
     34000   304.93748     -25913.145     -26054.373      141.22847      9073.5226      80897.271    
     34100   303.57752     -25917.417     -26058.015      140.59862      8951.4006      80897.271    
     34200   294.62992     -25922.16      -26058.615      136.45464      8898.1457      80897.271    
     34300   294.35795     -25920.719     -26057.048      136.32868      8830.689       80897.271    
     34400   305.70665     -25916.683     -26058.268      141.5847       8909.7061      80897.271    
     34500   305.03198     -25915.839     -26057.112      141.27224      8841.1008      80897.271    
     34600   298.0044      -25917.984     -26056.002      138.01749      9047.0074      80897.271    
     34700   295.08758     -25921.382     -26058.049      136.6666       8974.9052      80897.271    
     34800   298.65264     -25923.308     -26061.626      138.31772      8810.8845      80897.271    
     34900   292.09157     -25924.13      -26059.409      135.27903      8873.0279      80897.271    
     35000   298.43514     -25919.023     -26057.24       138.21698      9027.7167      80897.271    
     35100   302.77467     -25916.783     -26057.01       140.22679      8986.8829      80897.271    
     35200   303.9173      -25915.732     -26056.488      140.75599      8990.596       80897.271    
     35300   304.5627      -25915.855     -26056.91       141.0549       8962.0177      80897.271    
     35400   295.51635     -25920.592     -26057.457      136.86518      8906.6897      80897.271    
     35500   292.88215     -25921.575     -26057.22       135.64518      8894.1471      80897.271    
     35600   300.67286     -25919.372     -26058.625      139.25336      9025.1014      80897.271    
     35700   300.43553     -25917.834     -26056.977      139.14344      9016.3748      80897.271    
     35800   298.05951     -25916.705     -26054.748      138.04301      9033.0413      80897.271    
     35900   305.24888     -25917.194     -26058.567      141.37269      8997.4219      80897.271    
     36000   298.10058     -25919.083     -26057.145      138.06204      8834.5171      80897.271    
     36100   294.29224     -25919.804     -26056.103      136.29824      9068.9209      80897.271    
     36200   301.17129     -25917.676     -26057.16       139.4842       8940.5026      80897.271    
     36300   305.69211     -25913.293     -26054.871      141.57797      9032.4287      80897.271    
     36400   308.70866     -25913.863     -26056.838      142.97505      8980.7939      80897.271    
     36500   294.39371     -25917.528     -26053.873      136.34524      8991.2613      80897.271    
     36600   300.67074     -25917.951     -26057.203      139.25238      8974.1147      80897.271    
     36700   302.16358     -25918.74      -26058.684      139.94377      8833.457       80897.271    
     36800   296.5321      -25920.363     -26057.699      137.33561      8877.6939      80897.271    
     36900   298.60404     -25921.998     -26060.294      138.2952       8836.5545      80897.271    
     37000   293.56006     -25922.067     -26058.026      135.95914      8836.2481      80897.271    
     37100   306.72611     -25917.697     -26059.753      142.05685      8923.2757      80897.271    
     37200   295.80638     -25916.974     -26053.974      136.9995       9072.5796      80897.271    
     37300   303.5629      -25915.573     -26056.165      140.59185      9062.0024      80897.271    
     37400   298.96296     -25919.595     -26058.056      138.46144      8873.7661      80897.271    
     37500   299.87763     -25921.942     -26060.827      138.88506      8789.9468      80897.271    
     37600   295.72238     -25920.724     -26057.684      136.9606       8977.0916      80897.271    
     37700   297.39073     -25918.1       -26055.834      137.73327      8859.9856      80897.271    
     37800   306.68536     -25915.93      -26057.968      142.03798      8987.0212      80897.271    
     37900   301.67588     -25917.082     -26056.8        139.7179       8996.5043      80897.271    
     38000   296.47762     -25917.568     -26054.879      137.31038      8891.6334      80897.271    
     38100   304.33981     -25917.079     -26058.03       140.95167      8993.9647      80897.271    
     38200   296.66768     -25919.573     -26056.971      137.3984       8985.0481      80897.271    
     38300   298.31454     -25921.939     -26060.1        138.16113      8730.6812      80897.271    
     38400   291.13606     -25925.313     -26060.15       134.83649      8725.5441      80897.271    
     38500   293.90658     -25923.033     -26059.152      136.11963      8817.5633      80897.271    
     38600   297.7696      -25918.979     -26056.887      137.90874      8967.9425      80897.271    
     38700   306.15104     -25916.712     -26058.502      141.79052      8862.9044      80897.271    
     38800   301.32084     -25917.099     -26056.652      139.55346      8927.9849      80897.271    
     38900   298.8499      -25918.313     -26056.722      138.40907      9041.9946      80897.271    
     39000   295.54701     -25920.069     -26056.948      136.87938      8850.1685      80897.271    
     39100   297.26056     -25922.52      -26060.193      137.67299      8770.2553      80897.271    
     39200   294.3438      -25922.103     -26058.425      136.32212      8772.3982      80897.271    
     39300   299.66835     -25918.002     -26056.79       138.78813      8972.1136      80897.271    
     39400   302.95649     -25916.479     -26056.79       140.311        8928.0924      80897.271    
     39500   300.30814     -25916.54      -26055.625      139.08444      8944.579       80897.271    
     39600   298.40749     -25917.812     -26056.016      138.20418      8917.3002      80897.271    
     39700   297.43678     -25923.019     -26060.774      137.7546       8761.5514      80897.271    
     39800   289.61146     -25925.08      -26059.21       134.13039      8669.7751      80897.271    
     39900   298.97917     -25921.585     -26060.054      138.46894      8740.9308      80897.271    
     40000   303.26293     -25919.434     -26059.887      140.45292      8851.6514      80897.271    
     40100   298.22917     -25917.856     -26055.977      138.12159      8866.6943      80897.271    
     40200   300.0938      -25915.523     -26054.509      138.98517      9085.6162      80897.271    
     40300   303.52927     -25915.257     -26055.834      140.57627      8988.7128      80897.271    
     40400   293.72294     -25921.228     -26057.262      136.03458      8732.8166      80897.271    
     40500   304.68969     -25921.482     -26062.596      141.11371      8796.84        80897.271    
     40600   294.2218      -25921.648     -26057.914      136.26562      8847.0265      80897.271    
     40700   297.76765     -25918.077     -26055.985      137.90784      8947.5266      80897.271    
     40800   302.68745     -25915.23      -26055.416      140.18639      8995.1011      80897.271    
     40900   306.85425     -25915.59      -26057.706      142.1162       8989.4115      80897.271    
     41000   302.71783     -25918.798     -26058.998      140.20046      8865.8736      80897.271    
     41100   295.05514     -25920.256     -26056.908      136.65157      8896.3289      80897.271    
     41200   297.9086      -25919.513     -26057.486      137.97312      9001.1903      80897.271    
     41300   299.68145     -25918.569     -26057.363      138.7942       9030.668       80897.271    
     41400   305.9015      -25916.203     -26057.878      141.67494      8863.2779      80897.271    
     41500   302.079       -25913.133     -26053.038      139.90459      9091.9961      80897.271    
     41600   306.65982     -25911.938     -26053.964      142.02615      9048.2682      80897.271    
     41700   297.13747     -25917.248     -26054.864      137.61598      8999.0177      80897.271    
     41800   305.24779     -25918.776     -26060.148      141.37219      8854.2713      80897.271    
     41900   292.77183     -25921.283     -26056.877      135.59408      8883.3184      80897.271    
     42000   294.6935      -25920.574     -26057.058      136.48408      8983.7391      80897.271    
     42100   306.84175     -25915.884     -26057.994      142.11041      8958.7224      80897.271    
     42200   303.05621     -25914.644     -26055.001      140.35718      8947.9672      80897.271    
     42300   302.2943      -25915.653     -26055.657      140.00431      8853.9964      80897.271    
     42400   300.90508     -25917.463     -26056.824      139.36091      8973.2629      80897.271    
     42500   298.37597     -25919.176     -26057.366      138.18958      8990.4392      80897.271    
     42600   296.7787      -25919.975     -26057.425      137.44982      8795.8449      80897.271    
     42700   304.47935     -25918.45      -26059.466      141.01629      8996.422       80897.271    
     42800   302.72223     -25913.455     -26053.658      140.2025       9075.7624      80897.271    
     42900   307.13856     -25911.73      -26053.978      142.24787      9039.6933      80897.271    
     43000   304.6835      -25914.699     -26055.81       141.11084      9000.788       80897.271    
     43100   299.95937     -25918.324     -26057.247      138.92291      8889.2316      80897.271    
     43200   300.77814     -25919.449     -26058.751      139.30212      8854.0825      80897.271    
     43300   299.89891     -25919.653     -26058.548      138.89491      8840.8914      80897.271    
     43400   300.52411     -25918.518     -26057.703      139.18447      8878.3601      80897.271    
     43500   303.75151     -25914.388     -26055.067      140.6792       9064.3994      80897.271    
     43600   305.29499     -25913.695     -26055.089      141.39405      9066.2501      80897.271    
     43700   301.32019     -25916.985     -26056.538      139.55316      8917.18        80897.271    
     43800   300.50128     -25918.732     -26057.906      139.17389      9007.1437      80897.271    
     43900   298.48659     -25919.636     -26057.877      138.24081      8891.793       80897.271    
     44000   301.33151     -25918.681     -26058.239      139.5584       8902.2907      80897.271    
     44100   303.19678     -25916.3       -26056.722      140.42228      8972.586       80897.271    
     44200   304.35235     -25912.584     -26053.541      140.95747      9120.3762      80897.271    
     44300   307.31903     -25910.968     -26053.299      142.33146      9167.348       80897.271    
     44400   304.85905     -25916.135     -26057.327      141.19215      9055.4521      80897.271    
     44500   297.47947     -25918.854     -26056.629      137.77438      8813.7379      80897.271    
     44600   299.43187     -25919.515     -26058.194      138.67861      8880.5675      80897.271    
     44700   300.10521     -25919.641     -26058.631      138.99046      8923.2336      80897.271    
     44800   298.96182     -25918.964     -26057.425      138.46091      8927.2324      80897.271    
     44900   300.76486     -25917.246     -26056.542      139.29597      8934.9276      80897.271    
     45000   306.71693     -25913.85      -26055.902      142.0526       9024.002       80897.271    
     45100   300.19137     -25915.642     -26054.672      139.03036      9035.334       80897.271    
     45200   299.74037     -25918.682     -26057.503      138.82149      8998.409       80897.271    
     45300   303.77596     -25919.579     -26060.27       140.69052      8735.5059      80897.271    
     45400   293.44103     -25920.121     -26056.025      135.90402      8961.7125      80897.271    
     45500   305.13212     -25917.441     -26058.76       141.31862      8961.4734      80897.271    
     45600   300.69573     -25917.61      -26056.874      139.26395      8893.9188      80897.271    
     45700   305.52716     -25917.371     -26058.873      141.50157      8907.5747      80897.271    
     45800   301.70038     -25918.381     -26058.11       139.72924      8952.3992      80897.271    
     45900   296.28372     -25918.358     -26055.578      137.22057      8952.269       80897.271    
     46000   301.14382     -25917.41      -26056.882      139.47148      8952.9495      80897.271    
     46100   297.80874     -25917.979     -26055.906      137.92687      8838.6407      80897.271    
     46200   302.95731     -25918.409     -26058.72       140.31137      9050.2813      80897.271    
     46300   300.61634     -25920.972     -26060.2        139.22718      8827.621       80897.271    
     46400   294.96365     -25922.044     -26058.654      136.6092       8890.3251      80897.271    
     46500   300.71278     -25918.162     -26057.434      139.27185      8911.0464      80897.271    
     46600   300.3134      -25915.354     -26054.441      139.08688      9152.3904      80897.271    
     46700   303.78253     -25914.881     -26055.575      140.69357      8983.1086      80897.271    
     46800   299.16686     -25917.763     -26056.319      138.55587      8892.2203      80897.271    
     46900   299.18711     -25918.854     -26057.419      138.56525      8988.113       80897.271    
     47000   299.34834     -25919.835     -26058.475      138.63992      8960.2138      80897.271    
     47100   296.20503     -25920.769     -26057.953      137.18413      8864.0285      80897.271    
     47200   302.06267     -25918.217     -26058.114      139.89703      8856.257       80897.271    
     47300   303.18983     -25914.616     -26055.035      140.41907      8958.4591      80897.271    
     47400   307.68231     -25913.344     -26055.844      142.49971      9033.9502      80897.271    
     47500   299.41964     -25916.567     -26055.24       138.67294      8994.1095      80897.271    
     47600   303.62591     -25918.03      -26058.651      140.62103      8874.8055      80897.271    
     47700   298.72801     -25919.397     -26057.749      138.35262      8931.5506      80897.271    
     47800   297.61855     -25919.081     -26056.919      137.83879      8874.5584      80897.271    
     47900   303.38186     -25917.25      -26057.758      140.508        8936.7228      80897.271    
     48000   304.43126     -25915.447     -26056.441      140.99402      8889.5349      80897.271    
     48100   298.62329     -25915.834     -26054.138      138.30412      9011.7799      80897.271    
     48200   303.81013     -25916.933     -26057.64       140.70635      8848.5314      80897.271    
     48300   297.16415     -25921.143     -26058.771      137.62834      8920.0121      80897.271    
     48400   298.27578     -25922.111     -26060.255      138.14318      8835.4497      80897.271    
     48500   294.59372     -25920.503     -26056.94       136.43787      8919.7968      80897.271    
     48600   301.92284     -25915.804     -26055.636      139.83227      9013.5792      80897.271    
     48700   302.36556     -25915.692     -26055.729      140.03731      9004.4754      80897.271    
     48800   302.58634     -25917.95      -26058.089      140.13957      8807.5661      80897.271    
     48900   297.72862     -25920.239     -26058.129      137.88976      8989.552       80897.271    
     49000   297.86565     -25920.457     -26058.41       137.95323      8740.186       80897.271    
     49100   294.30399     -25919.078     -26055.382      136.30368      9043.8891      80897.271    
     49200   307.28893     -25913.536     -26055.854      142.31752      8877.4342      80897.271    
     49300   303.22308     -25914.864     -26055.298      140.43447      9018.6825      80897.271    
     49400   302.64961     -25918.454     -26058.623      140.16887      8884.3416      80897.271    
     49500   292.57661     -25921.304     -26056.808      135.50367      8890.5118      80897.271    
     49600   301.80843     -25919.983     -26059.763      139.77929      8846.478       80897.271    
     49700   298.70926     -25918.6       -26056.944      138.34394      9042.9303      80897.271    
     49800   302.18207     -25913.865     -26053.817      139.95233      9090.0073      80897.271    
     49900   306.56491     -25911.686     -26053.669      141.9822       9125.1133      80897.271    
     50000   308.34728     -25913.631     -26056.439      142.80768      9072.0756      80897.271    
     50100   301.90001     -25917.064     -26056.886      139.8217       8994.6139      80897.271    
     50200   296.86941     -25919.356     -26056.847      137.49183      8977.2232      80897.271    
     50300   296.71617     -25920.722     -26058.143      137.42086      8851.3474      80897.271    
     50400   299.12456     -25920.085     -26058.621      138.53628      8957.625       80897.271    
     50500   306.32093     -25915.026     -26056.895      141.8692       8928.9159      80897.271    
     50600   300.66726     -25914.807     -26054.057      139.25076      9113.49        80897.271    
     50700   300.91193     -25917.201     -26056.565      139.36408      8939.0232      80897.271    
     50800   301.20596     -25919.285     -26058.785      139.50026      8845.1484      80897.271    
     50900   298.87194     -25919.592     -26058.012      138.41928      8893.7909      80897.271    
     51000   297.98992     -25918.954     -26056.964      138.01078      8891.7651      80897.271    
     51100   299.8802      -25916.356     -26055.242      138.88625      8985.9685      80897.271    
     51200   306.63543     -25912.397     -26054.412      142.01486      9011.1552      80897.271    
     51300   306.76359     -25913.995     -26056.069      142.07421      8953.3149      80897.271    
     51400   298.40023     -25918.217     -26056.418      138.20081      8891.5522      80897.271    
     51500   298.71019     -25919.29      -26057.634      138.34437      8890.903       80897.271    
     51600   301.78562     -25919.465     -26059.233      139.76872      8886.3072      80897.271    
     51700   302.81038     -25918.618     -26058.861      140.24332      8924.4987      80897.271    
     51800   302.29159     -25916.518     -26056.521      140.00306      8949.6514      80897.271    
     51900   295.97594     -25914.51      -26051.588      137.07803      9203.1167      80897.271    
     52000   309.23055     -25913.297     -26056.514      143.21676      9040.233       80897.271    
     52100   298.574       -25918.326     -26056.608      138.28129      8957.0336      80897.271    
     52200   303.09499     -25919.478     -26059.854      140.37514      8926.9653      80897.271    
     52300   289.79605     -25920.666     -26054.882      134.21588      8972.0151      80897.271    
     52400   302.29714     -25917.897     -26057.903      140.00563      9004.5019      80897.271    
     52500   304.54391     -25915.19      -26056.236      141.04619      9042.8568      80897.271    
     52600   310.90725     -25910.298     -26054.291      143.99331      9100.9881      80897.271    
     52700   303.22361     -25912.471     -26052.906      140.43471      9076.0967      80897.271    
     52800   303.60692     -25915.809     -26056.422      140.61224      9093.0991      80897.271    
     52900   299.12851     -25918.665     -26057.203      138.53811      9002.6763      80897.271    
     53000   295.7517      -25920.398     -26057.372      136.97418      8829.7428      80897.271    
     53100   296.91573     -25919.508     -26057.022      137.51328      8976.0591      80897.271    
     53200   307.68777     -25915.127     -26057.629      142.50224      8914.2768      80897.271    
     53300   306.11529     -25913.817     -26055.591      141.77396      9032.1769      80897.271    
     53400   296.74117     -25918.143     -26055.576      137.43244      9048.0775      80897.271    
     53500   293.55881     -25920.77      -26056.729      135.95856      9017.982       80897.271    
     53600   301.4351      -25919.283     -26058.889      139.60638      8882.3888      80897.271    
     53700   299.5846      -25918.608     -26057.357      138.74934      8984.2878      80897.271    
     53800   301.59905     -25916.507     -26056.189      139.68231      8923.9445      80897.271    
     53900   302.64479     -25913.948     -26054.114      140.16664      9153.1065      80897.271    
     54000   305.37317     -25915.333     -26056.764      141.43026      9017.7128      80897.271    
     54100   297.73486     -25920.478     -26058.37       137.89265      8900.6321      80897.271    
     54200   295.56448     -25920.478     -26057.366      136.88747      8871.4081      80897.271    
     54300   302.05224     -25918.218     -26058.111      139.8922       8793.8876      80897.271    
     54400   305.01553     -25915.72      -26056.984      141.26462      9017.0724      80897.271    
     54500   307.65183     -25913.108     -26055.593      142.48559      8945.4478      80897.271    
     54600   297.44096     -25915.699     -26053.455      137.75654      9001.3692      80897.271    
     54700   299.80481     -25919.439     -26058.29       138.85133      8927.1078      80897.271    
     54800   299.00563     -25921.118     -26059.599      138.4812       8883.2382      80897.271    
     54900   297.8532      -25920.696     -26058.643      137.94746      8981.7009      80897.271    
     55000   300.81592     -25915.536     -26054.856      139.31961      9069.6869      80897.271    
     55100   300.39318     -25914.78      -26053.904      139.12383      9054.1304      80897.271    
     55200   302.691       -25916.096     -26056.284      140.18804      9038.0493      80897.271    
     55300   301.048       -25918.915     -26058.342      139.4271       8903.3193      80897.271    
     55400   294.9607      -25921.899     -26058.507      136.60783      8831.9958      80897.271    
     55500   298.5154      -25921.197     -26059.452      138.25416      8932.4516      80897.271    
     55600   298.27271     -25919.262     -26057.404      138.14175      8979.0808      80897.271    
     55700   299.20508     -25918.084     -26056.657      138.57357      9024.7374      80897.271    
     55800   305.58865     -25917.09      -26058.62       141.53005      9050.3038      80897.271    
     55900   295.03931     -25918.061     -26054.705      136.64424      9022.8738      80897.271    
     56000   302.14014     -25919.968     -26059.901      139.93291      8747.541       80897.271    
     56100   299.6041      -25921.316     -26060.074      138.75838      8804.701       80897.271    
     56200   294.00906     -25919.384     -26055.551      136.16709      9022.9783      80897.271    
     56300   302.8622      -25916.042     -26056.309      140.26733      8964.4646      80897.271    
     56400   302.608       -25916.629     -26056.778      140.1496       8822.9766      80897.271    
     56500   303.20312     -25918.419     -26058.844      140.42522      8907.3733      80897.271    
     56600   295.59314     -25923.586     -26060.487      136.90074      8738.907       80897.271    
     56700   298.82028     -25923.576     -26061.971      138.39536      8750.6123      80897.271    
     56800   295.77327     -25921.684     -26058.668      136.98417      8876.5421      80897.271    
     56900   296.4198      -25918.643     -26055.927      137.2836       8988.7424      80897.271    
     57000   295.81317     -25917.726     -26054.729      137.00264      9138.3003      80897.271    
     57100   308.89471     -25917.098     -26060.16       143.06122      8800.0496      80897.271    
     57200   299.5475      -25920.038     -26058.77       138.73216      8872.0435      80897.271    
     57300   293.87764     -25924.089     -26060.195      136.10623      8798.1157      80897.271    
     57400   291.62992     -25924.129     -26059.195      135.06522      8918.3388      80897.271    
     57500   305.39468     -25918.314     -26059.754      141.44022      8988.7426      80897.271    
     57600   301.70814     -25916.129     -26055.862      139.73283      8863.5646      80897.271    
     57700   303.82539     -25915.124     -26055.837      140.71342      9004.7402      80897.271    
     57800   299.15659     -25918.19      -26056.742      138.55111      8930.5043      80897.271    
     57900   293.64008     -25921.362     -26057.358      135.9962       8961.7943      80897.271    
     58000   300.90734     -25920.257     -26059.619      139.36195      8948.1682      80897.271    
     58100   298.26664     -25920.191     -26058.33       138.13895      8966.5165      80897.271    
     58200   304.08521     -25918.681     -26059.515      140.83375      8853.2431      80897.271    
     58300   299.78145     -25917.763     -26056.603      138.84051      9036.3548      80897.271    
     58400   300.44101     -25916.942     -26056.088      139.14598      9069.1515      80897.271    
     58500   301.32735     -25915.562     -26055.118      139.55648      9069.6246      80897.271    
     58600   306.10518     -25916.517     -26058.286      141.76928      8962.5263      80897.271    
     58700   296.3619      -25919.77      -26057.027      137.25678      8934.7789      80897.271    
     58800   303.09389     -25918.96      -26059.334      140.37463      8941.6878      80897.271    
     58900   297.67053     -25918.171     -26056.034      137.86286      9036.9528      80897.271    
     59000   304.47089     -25915.787     -26056.799      141.01237      8950.3326      80897.271    
     59100   303.42053     -25914.901     -26055.427      140.52591      9012.4562      80897.271    
     59200   299.59414     -25917.978     -26056.732      138.75376      8977.303       80897.271    
     59300   299.33654     -25920.873     -26059.508      138.63446      8922.3547      80897.271    
     59400   293.54085     -25921.223     -26057.174      135.95024      8982.859       80897.271    
     59500   304.3916      -25917.978     -26058.954      140.97565      8989.3236      80897.271    
     59600   303.42447     -25912.775     -26053.303      140.52773      9121.9277      80897.271    
     59700   308.21391     -25911.395     -26054.141      142.74591      9068.8122      80897.271    
     59800   304.60306     -25914.537     -26055.61       141.07359      9036.5004      80897.271    
     59900   304.36882     -25918.087     -26059.052      140.9651       8911.4571      80897.271    
     60000   289.11888     -25921.049     -26054.951      133.90226      9006.0181      80897.271    
     60100   304.85136     -25918.853     -26060.042      141.18859      8930.0262      80897.271    
     60200   299.95315     -25918.553     -26057.473      138.92003      8979.4244      80897.271    
     60300   302.03183     -25917.271     -26057.154      139.88275      9049.8958      80897.271    
     60400   306.94493     -25913.474     -26055.633      142.1582       9122.0496      80897.271    
     60500   297.43725     -25914.482     -26052.237      137.75482      9136.337       80897.271    
     60600   305.95626     -25917.797     -26059.497      141.70031      8949.83        80897.271    
     60700   297.47284     -25921.256     -26059.027      137.7713       8765.6298      80897.271    
     60800   297.35211     -25920.661     -26058.377      137.71539      8824.2158      80897.271    
     60900   299.49855     -25918.321     -26057.031      138.70949      8919.8949      80897.271    
     61000   302.18133     -25915.785     -26055.737      139.95199      9029.9418      80897.271    
     61100   302.03151     -25914.822     -26054.704      139.8826       9096.5906      80897.271    
     61200   303.5893      -25916.249     -26056.853      140.60408      8987.969       80897.271    
     61300   300.22374     -25920.229     -26059.274      139.04535      8884.9937      80897.271    
     61400   295.05782     -25922.174     -26058.826      136.65281      8723.0462      80897.271    
     61500   291.54054     -25921.137     -26056.161      135.02382      8944.1348      80897.271    
     61600   305.1079      -25916.521     -26057.829      141.3074       9013.4154      80897.271    
     61700   306.88777     -25915.84      -26057.972      142.13172      8969.7166      80897.271    
     61800   299.58513     -25917.958     -26056.708      138.74959      8902.0481      80897.271    
     61900   295.58442     -25919.628     -26056.525      136.8967       8941.2041      80897.271    
     62000   302.42228     -25919.266     -26059.33       140.06358      8909.4483      80897.271    
     62100   295.65373     -25919.544     -26056.473      136.9288       8836.6546      80897.271    
     62200   305.85014     -25917.708     -26059.359      141.65116      9025.7546      80897.271    
     62300   299.93772     -25917.527     -26056.439      138.91288      9013.1225      80897.271    
     62400   300.23227     -25917.591     -26056.64       139.0493       8940.8449      80897.271    
     62500   296.3436      -25919.586     -26056.835      137.24831      9073.3974      80897.271    
     62600   300.83175     -25921.064     -26060.391      139.32695      8828.3874      80897.271    
     62700   296.37584     -25921.655     -26058.919      137.26324      8844.7737      80897.271    
     62800   296.14357     -25919.703     -26056.859      137.15567      8855.0691      80897.271    
     62900   300.13853     -25915.759     -26054.765      139.00589      9016.5581      80897.271    
     63000   306.60241     -25914.684     -26056.684      141.99956      9050.136       80897.271    
     63100   301.65484     -25917.215     -26056.923      139.70815      8978.856       80897.271    
     63200   297.67307     -25920.933     -26058.797      137.86404      8957.6821      80897.271    
     63300   288.78182     -25925.02      -26058.766      133.74615      8866.3497      80897.271    
     63400   300.41481     -25924.292     -26063.426      139.13384      8779.9478      80897.271    
     63500   298.62245     -25918.526     -26056.829      138.30373      8988.6481      80897.271    
     63600   305.17609     -25915.038     -26056.377      141.33898      9052.2756      80897.271    
     63700   301.30931     -25915.202     -26054.75       139.54812      9218.8944      80897.271    
     63800   292.72592     -25918.844     -26054.417      135.57282      8924.5116      80897.271    
     63900   301.39975     -25920.333     -26059.923      139.59001      8927.2626      80897.271    
     64000   297.20924     -25920.868     -26058.518      137.64922      8927.1927      80897.271    
     64100   302.7469      -25916.997     -26057.211      140.21393      8988.7302      80897.271    
     64200   302.91908     -25913.492     -26053.786      140.29367      9126.349       80897.271    
     64300   305.8258      -25913.649     -26055.289      141.63989      9064.4517      80897.271    
     64400   298.83967     -25916.943     -26055.347      138.40434      9023.3602      80897.271    
     64500   300.47373     -25918.15      -26057.311      139.16113      8905.5251      80897.271    
     64600   305.15191     -25918.503     -26059.831      141.32778      8783.5438      80897.271    
     64700   300.67249     -25920.685     -26059.939      139.25318      8799.4894      80897.271    
     64800   289.74751     -25923.969     -26058.162      134.1934       8927.1756      80897.271    
     64900   297.64582     -25921.823     -26059.675      137.85142      8782.5423      80897.271    
     65000   302.51576     -25916.073     -26056.18       140.10688      9049.7704      80897.271    
     65100   306.96191     -25915.836     -26058.002      142.16606      9025.8296      80897.271    
     65200   297.79247     -25918.972     -26056.891      137.91934      8911.2817      80897.271    
     65300   301.59246     -25919.333     -26059.012      139.67926      8907.9231      80897.271    
     65400   297.23339     -25919.274     -26056.935      137.66041      8954.3289      80897.271    
     65500   299.18052     -25917.918     -26056.48       138.56219      8851.0105      80897.271    
     65600   306.14246     -25915.217     -26057.003      141.78654      9012.9242      80897.271    
     65700   301.30617     -25916.146     -26055.692      139.54667      8941.329       80897.271    
     65800   302.35268     -25919.52      -26059.551      140.03135      8915.8145      80897.271    
     65900   291.26082     -25923.105     -26057.999      134.89427      8796.8562      80897.271    
     66000   303.45731     -25921.233     -26061.776      140.54294      8793.2012      80897.271    
     66100   294.16208     -25920.404     -26056.641      136.23796      8844.768       80897.271    
     66200   301.7422      -25917.188     -26056.936      139.74861      8986.7808      80897.271    
     66300   297.82227     -25916.757     -26054.69       137.93314      9043.75        80897.271    
     66400   301.88843     -25916.654     -26056.47       139.81634      8906.2222      80897.271    
     66500   302.02754     -25918.291     -26058.172      139.88076      8946.1084      80897.271    
     66600   296.31305     -25919.563     -26056.797      137.23416      9017.4922      80897.271    
     66700   303.02472     -25918.436     -26058.779      140.34259      8906.919       80897.271    
     66800   300.35067     -25918.5       -26057.604      139.10414      8824.0378      80897.271    
     66900   300.5204      -25918.581     -26057.764      139.18275      9019.0612      80897.271    
     67000   298.29466     -25918.637     -26056.789      138.15192      8957.1504      80897.271    
     67100   302.00602     -25917.905     -26057.775      139.87079      8945.9271      80897.271    
     67200   299.9571      -25916.847     -26055.769      138.92186      8940.771       80897.271    
     67300   307.56509     -25915.239     -26057.684      142.44542      9020.0759      80897.271    
     67400   300.08989     -25918.571     -26057.554      138.98336      8923.5256      80897.271    
     67500   294.49599     -25921.474     -26057.867      136.39261      8900.6668      80897.271    
     67600   301.20828     -25919.483     -26058.984      139.50133      8918.6667      80897.271    
     67700   297.06048     -25918.625     -26056.205      137.58032      8936.2349      80897.271    
     67800   298.91717     -25917.615     -26056.055      138.44023      9003.525       80897.271    
     67900   306.38201     -25917.077     -26058.974      141.89749      8922.3026      80897.271    
     68000   300.6276      -25917.969     -26057.201      139.2324       8831.4611      80897.271    
     68100   300.80775     -25919.067     -26058.383      139.31583      8890.4236      80897.271    
     68200   296.79785     -25919.248     -26056.706      137.45869      8966.1466      80897.271    
     68300   305.85904     -25916.702     -26058.358      141.65528      8906.9653      80897.271    
     68400   294.38956     -25918.092     -26054.436      136.34331      8971.8938      80897.271    
     68500   302.07721     -25919.673     -26059.577      139.90377      8967.5904      80897.271    
     68600   295.45237     -25923.164     -26059.999      136.83555      8831.725       80897.271    
     68700   293.51774     -25923.826     -26059.766      135.93954      8780.8828      80897.271    
     68800   300.73909     -25919.602     -26058.886      139.28403      9042.8395      80897.271    
     68900   298.03695     -25917.973     -26056.005      138.03256      9016.5355      80897.271    
     69000   305.29652     -25916.919     -26058.314      141.39475      9018.3453      80897.271    
     69100   298.20836     -25918.595     -26056.707      138.11195      8945.4082      80897.271    
     69200   292.95413     -25922.157     -26057.835      135.67851      8834.3013      80897.271    
     69300   290.71655     -25925.232     -26059.874      134.6422       8867.0367      80897.271    
     69400   297.76124     -25922.537     -26060.442      137.90487      8864.7671      80897.271    
     69500   298.52799     -25917.944     -26056.204      138.25998      9032.3004      80897.271    
     69600   302.23193     -25916.652     -26056.628      139.97543      9012.5636      80897.271    
     69700   298.63393     -25917.775     -26056.084      138.30905      8956.9071      80897.271    
     69800   298.7331      -25919.87      -26058.225      138.35498      8948.2151      80897.271    
     69900   294.58994     -25922.462     -26058.898      136.43612      8780.0631      80897.271    
     70000   298.57188     -25922.644     -26060.925      138.28031      8773.6753      80897.271    
     70100   301.83854     -25917.475     -26057.268      139.79323      8997.6205      80897.271    
     70200   297.60516     -25915.716     -26053.549      137.83259      8985.5193      80897.271    
     70300   305.223       -25915.58      -26056.94       141.36071      9036.8079      80897.271    
     70400   298.97559     -25919.322     -26057.789      138.46729      8867.2501      80897.271    
     70500   300.64028     -25921.057     -26060.295      139.23827      8871.5959      80897.271    
     70600   296.0213      -25921.171     -26058.27       137.09904      8817.329       80897.271    
     70700   295.34258     -25919.536     -26056.321      136.78469      8931.6772      80897.271    
     70800   304.4438      -25916.658     -26057.658      140.99983      8976.3125      80897.271    
     70900   302.15327     -25916.711     -26056.65       139.93899      8895.6696      80897.271    
     71000   300.99656     -25917.143     -26056.546      139.40328      8984.5221      80897.271    
     71100   304.08048     -25917.836     -26058.667      140.83156      8869.5152      80897.271    
     71200   295.89499     -25919.085     -26056.126      137.04054      8944.0009      80897.271    
     71300   303.23462     -25918.562     -26059.002      140.43981      8871.989       80897.271    
     71400   299.66124     -25918.727     -26057.512      138.78484      8932.8399      80897.271    
     71500   301.49068     -25916.883     -26056.515      139.63212      8924.4272      80897.271    
     71600   305.47923     -25914.315     -26055.795      141.47938      8972.946       80897.271    
     71700   296.50362     -25916.212     -26053.535      137.32242      9095.9539      80897.271    
     71800   307.77538     -25918.776     -26061.319      142.54281      8798.3868      80897.271    
     71900   293.5537      -25922.333     -26058.29       135.9562       8832.2496      80897.271    
     72000   293.82961     -25920.831     -26056.915      136.08398      8989.7505      80897.271    
     72100   303.09007     -25918.572     -26058.945      140.37286      8803.7461      80897.271    
     72200   300.05116     -25917.591     -26056.557      138.96543      8948.0824      80897.271    
     72300   306.69257     -25916.219     -26058.26       142.04132      8939.1856      80897.271    
     72400   296.94925     -25920.331     -26057.86       137.52881      8903.3805      80897.271    
     72500   293.73683     -25924.381     -26060.422      136.04101      8828.93        80897.271    
     72600   296.97867     -25922.572     -26060.114      137.54243      8740.7333      80897.271    
     72700   299.76454     -25918.998     -26057.831      138.83268      8827.2316      80897.271    
     72800   296.11055     -25918.022     -26055.163      137.14037      9059.804       80897.271    
     72900   303.31387     -25916.797     -26057.274      140.47651      8937.7082      80897.271    
     73000   303.63832     -25917.421     -26058.048      140.62678      8899.9824      80897.271    
     73100   296.23762     -25921.998     -26059.197      137.19923      8839.5892      80897.271    
     73200   292.85273     -25923.1       -26058.732      135.63155      8858.6742      80897.271    
     73300   300.7469      -25919.782     -26059.069      139.28765      8851.9936      80897.271    
     73400   297.25647     -25917.884     -26055.555      137.67109      9110.9702      80897.271    
     73500   299.23818     -25917.493     -26056.082      138.5889       9029.5356      80897.271    
     73600   303.62578     -25917.001     -26057.622      140.62097      8950.9378      80897.271    
     73700   296.43706     -25919.33      -26056.621      137.2916       8904.5646      80897.271    
     73800   294.02909     -25922.141     -26058.318      136.17637      9030.0832      80897.271    
     73900   295.03831     -25922.665     -26059.309      136.64378      8809.275       80897.271    
     74000   301.60791     -25919.897     -26059.583      139.68642      8959.8524      80897.271    
     74100   299.9716      -25916.519     -26055.447      138.92857      9009.0703      80897.271    
     74200   302.74361     -25914.578     -26054.791      140.2124       9094.8805      80897.271    
     74300   304.20291     -25915.653     -26056.541      140.88826      9007.5127      80897.271    
     74400   300.7061      -25919.791     -26059.06       139.26875      8918.2853      80897.271    
     74500   298.29574     -25921.39      -26059.542      138.15242      8873.0678      80897.271    
     74600   291.37106     -25920.812     -26055.757      134.94533      9000.6145      80897.271    
     74700   303.91673     -25918.087     -26058.842      140.75572      8926.0866      80897.271    
     74800   299.43436     -25918.163     -26056.843      138.67976      8904.4013      80897.271    
     74900   302.23766     -25917.639     -26057.617      139.97808      8871.5399      80897.271    
     75000   300.05503     -25918.204     -26057.172      138.96721      8904.0091      80897.271    
     75100   297.2372      -25921.189     -26058.851      137.66217      8823.0286      80897.271    
     75200   294.92373     -25923.429     -26060.02       136.59071      8800.1492      80897.271    
     75300   301.20248     -25921.391     -26060.889      139.49865      8713.4686      80897.271    
     75400   297.37006     -25917.336     -26055.059      137.7237       9077.909       80897.271    
[...]
    181800   300.91527     -25918.93      -26058.296      139.36563      8850.8314      80897.271    
    181900   303.69384     -25917.34      -26057.992      140.65249      8928.5665      80897.271    
    182000   303.71581     -25915.007     -26055.67       140.66267      9009.0042      80897.271    
    182100   304.60256     -25912.536     -26053.609      141.07335      9070.9395      80897.271    
    182200   303.59314     -25914.803     -26055.409      140.60585      9028.5867      80897.271    
    182300   299.2006      -25919.76      -26058.331      138.5715       8900.571       80897.271    
    182400   297.04461     -25920.69      -26058.263      137.57297      8899.204       80897.271    
    182500   304.96152     -25918.249     -26059.489      141.2396       8878.1082      80897.271    
    182600   302.587       -25916.262     -26056.402      140.13987      8911.5956      80897.271    
    182700   300.7569      -25915.176     -26054.468      139.29228      9076.8031      80897.271    
    182800   310.03833     -25913.37      -26056.961      143.59087      9007.3998      80897.271    
    182900   292.03229     -25917.118     -26052.37       135.25157      8943.2275      80897.271    
    183000   304.598       -25918.903     -26059.974      141.07124      8857.358       80897.271    
    183100   292.93612     -25921.955     -26057.625      135.67017      8810.1426      80897.271    
    183200   296.43616     -25920.268     -26057.56       137.29118      8923.8786      80897.271    
    183300   306.2366      -25917.888     -26059.718      141.83014      8861.2639      80897.271    
    183400   295.191       -25917.934     -26054.648      136.71449      9016.9937      80897.271    
    183500   301.40733     -25917.075     -26056.669      139.59352      9029.936       80897.271    
    183600   295.13483     -25918.995     -26055.684      136.68848      8938.1335      80897.271    
    183700   301.52199     -25921.335     -26060.982      139.64662      8750.1708      80897.271    
    183800   288.41294     -25925.565     -26059.14       133.57531      8726.2559      80897.271    
    183900   299.20564     -25922.464     -26061.038      138.57383      8956.0869      80897.271    
    184000   297.93191     -25920.197     -26058.181      137.98392      8955.5533      80897.271    
    184100   302.2137      -25918.371     -26058.338      139.96698      8924.4379      80897.271    
    184200   299.08059     -25916.943     -26055.459      138.51591      8923.0107      80897.271    
    184300   304.20697     -25914.405     -26055.296      140.89014      9071.1817      80897.271    
    184400   307.07727     -25913.143     -26055.362      142.21949      8977.0143      80897.271    
    184500   304.11109     -25915.722     -26056.568      140.84573      8992.7483      80897.271    
    184600   295.81635     -25920.515     -26057.519      137.00412      8862.0896      80897.271    
    184700   295.36944     -25921.082     -26057.879      136.79714      8845.1145      80897.271    
    184800   301.59241     -25918.082     -26057.762      139.67924      8892.6976      80897.271    
    184900   299.01506     -25916.305     -26054.791      138.48556      8986.0774      80897.271    
    185000   304.01059     -25915.837     -26056.636      140.79919      8972.5512      80897.271    
    185100   300.96204     -25920.135     -26059.522      139.38729      8809.1398      80897.271    
    185200   287.19916     -25924.086     -26057.099      133.01316      8826.2311      80897.271    
    185300   298.12265     -25920.964     -26059.036      138.07226      8804.1084      80897.271    
    185400   304.35195     -25917.678     -26058.635      140.95729      8888.0559      80897.271    
    185500   297.79652     -25917.536     -26055.457      137.92121      9095.4207      80897.271    
    185600   301.13916     -25917.467     -26056.936      139.46932      8938.2215      80897.271    
    185700   293.69684     -25920.797     -26056.819      136.02249      8899.8336      80897.271    
    185800   299.46277     -25922.093     -26060.786      138.69292      8800.6261      80897.271    
    185900   301.83257     -25919.995     -26059.785      139.79046      8761.1686      80897.271    
    186000   301.06194     -25916.076     -26055.509      139.43356      9027.3499      80897.271    
    186100   301.47792     -25913.327     -26052.953      139.62621      9022.6019      80897.271    
    186200   302.99493     -25914.775     -26055.104      140.3288       8947.299       80897.271    
    186300   303.63471     -25917.057     -26057.682      140.62511      8913.3466      80897.271    
    186400   298.96143     -25919.402     -26057.862      138.46073      8759.8735      80897.271    
    186500   300.36732     -25920.644     -26059.755      139.11185      8883.1037      80897.271    
    186600   293.80647     -25922.797     -26058.871      136.07326      8811.5319      80897.271    
    186700   292.66912     -25923.324     -26058.87       135.54651      8808.5435      80897.271    
    186800   298.08657     -25918.885     -26056.941      138.05555      8964.9853      80897.271    
    186900   302.16478     -25915.853     -26055.798      139.94432      9005.1392      80897.271    
    187000   304.63071     -25916.058     -26057.145      141.08639      9108.9428      80897.271    
    187100   299.62752     -25918.539     -26057.309      138.76922      8944.7015      80897.271    
    187200   291.74651     -25922.428     -26057.548      135.11921      8860.2411      80897.271    
    187300   295.44077     -25923.402     -26060.232      136.83017      8735.6517      80897.271    
    187400   302.38841     -25921.826     -26061.874      140.0479       8843.463       80897.271    
    187500   297.41407     -25919.702     -26057.446      137.74409      8843.1564      80897.271    
    187600   294.29861     -25917.445     -26053.746      136.30119      9069.5023      80897.271    
    187700   307.1614      -25916.011     -26058.27       142.25845      8978.1288      80897.271    
    187800   299.71147     -25917.775     -26056.583      138.8081       8943.6967      80897.271    
    187900   292.99992     -25919.362     -26055.062      135.69972      9003.0527      80897.271    
    188000   302.9223      -25918.824     -26059.119      140.29516      8915.0615      80897.271    
    188100   296.99659     -25919.133     -26056.684      137.55073      9013.9289      80897.271    
    188200   307.76015     -25917.475     -26060.011      142.53576      8837.5075      80897.271    
    188300   293.35709     -25918.57      -26054.435      135.86514      9076.0418      80897.271    
    188400   298.39453     -25919.642     -26057.84       138.19818      8927.2862      80897.271    
    188500   300.87458     -25922.527     -26061.874      139.34678      8708.6125      80897.271    
    188600   291.85452     -25923.39      -26058.559      135.16924      8840.2288      80897.271    
    188700   296.28492     -25918.93      -26056.151      137.22113      8872.2624      80897.271    
    188800   300.21581     -25917.057     -26056.099      139.04168      9073.1898      80897.271    
    188900   301.41472     -25917.401     -26056.998      139.59694      9066.528       80897.271    
    189000   301.50184     -25919.249     -26058.886      139.63729      8910.064       80897.271    
    189100   288.23664     -25923.08      -26056.573      133.49366      8836.5511      80897.271    
    189200   299.88036     -25922.184     -26061.07       138.88632      8813.7829      80897.271    
    189300   302.70859     -25916.292     -26056.488      140.19619      8931.4267      80897.271    
    189400   305.35937     -25914.923     -26056.347      141.42386      9002.4653      80897.271    
    189500   302.87852     -25917.567     -26057.841      140.27488      8900.7731      80897.271    
    189600   295.98851     -25920.972     -26058.056      137.08385      8978.942       80897.271    
    189700   298.97169     -25921.056     -26059.521      138.46548      8770.9899      80897.271    
    189800   301.51783     -25919.414     -26059.059      139.64469      8887.4226      80897.271    
    189900   303.23588     -25913.918     -26054.358      140.44039      9059.938       80897.271    
    190000   307.85429     -25913.025     -26055.604      142.57936      9094.9184      80897.271    
    190100   302.3061      -25916.365     -26056.375      140.00978      9029.5901      80897.271    
    190200   296.70497     -25919.39      -26056.806      137.41567      8917.6223      80897.271    
    190300   300.61557     -25920.087     -26059.314      139.22683      8853.3655      80897.271    
    190400   300.95141     -25919.262     -26058.644      139.38237      8907.1846      80897.271    
    190500   309.26025     -25915.1       -26058.331      143.23051      8956.1033      80897.271    
    190600   304.94894     -25911.111     -26052.345      141.23378      9068.4262      80897.271    
    190700   306.47897     -25910.842     -26052.784      141.9424       9232.9127      80897.271    
    190800   302.5563      -25915.76      -26055.885      140.12565      8948.7175      80897.271    
    190900   303.81224     -25917.543     -26058.25       140.70733      8980.178       80897.271    
    191000   300.15741     -25920.017     -26059.032      139.01463      8795.1808      80897.271    
    191100   296.47497     -25921.056     -26058.366      137.30915      8884.6196      80897.271    
    191200   300.77449     -25919.109     -26058.41       139.30043      8942.4826      80897.271    
    191300   304.07622     -25915.625     -26056.454      140.82959      8986.7448      80897.271    
    191400   305.63646     -25914.308     -26055.86       141.5522       9064.9408      80897.271    
    191500   299.69877     -25918.2       -26057.002      138.80222      8950.9572      80897.271    
    191600   295.039       -25922.383     -26059.027      136.6441       8833.069       80897.271    
    191700   298.47841     -25921.526     -26059.763      138.23702      8776.3302      80897.271    
    191800   301.00189     -25918.236     -26057.642      139.40574      8907.5538      80897.271    
    191900   304.55771     -25916.49      -26057.543      141.05258      8980.7181      80897.271    
    192000   300.50822     -25917.762     -26056.939      139.17711      8968.3988      80897.271    
    192100   299.79808     -25918.433     -26057.281      138.84821      8916.5152      80897.271    
    192200   300.66509     -25918.315     -26057.565      139.24976      8875.6406      80897.271    
    192300   298.8011      -25918.905     -26057.292      138.38647      8928.9352      80897.271    
    192400   297.87206     -25918.974     -26056.93       137.9562       8881.5446      80897.271    
    192500   300.58769     -25917.466     -26056.68       139.21391      8972.9407      80897.271    
    192600   310.38027     -25914.986     -26058.735      143.74924      8889.2522      80897.271    
    192700   301.23345     -25916.769     -26056.282      139.51299      8963.8312      80897.271    
    192800   296.95123     -25921.614     -26059.144      137.52973      8999.5789      80897.271    
    192900   296.60257     -25922.932     -26060.3        137.36825      8790.621       80897.271    
    193000   299.08509     -25921.217     -26059.735      138.518        8806.5304      80897.271    
    193100   303.53754     -25918.132     -26058.712      140.5801       8878.6684      80897.271    
    193200   298.56166     -25917.525     -26055.801      138.27558      8865.7948      80897.271    
    193300   299.48352     -25917.087     -26055.789      138.70253      8965.7501      80897.271    
    193400   299.70047     -25918.19      -26056.993      138.80301      8956.4408      80897.271    
    193500   298.3531      -25922.742     -26060.921      138.17898      8834.0297      80897.271    
    193600   291.88189     -25924.328     -26059.51       135.18191      8788.5834      80897.271    
    193700   294.41328     -25921.884     -26058.239      136.3543       8926.978       80897.271    
    193800   302.05545     -25919.076     -26058.97       139.89369      8798.8785      80897.271    
    193900   294.99758     -25919.866     -26056.491      136.62491      8894.9833      80897.271    
    194000   301.38451     -25919.295     -26058.878      139.58295      8940.8823      80897.271    
    194100   300.23828     -25917.215     -26056.267      139.05209      9017.9793      80897.271    
    194200   299.29838     -25915.582     -26054.199      138.61678      8980.5784      80897.271    
    194300   303.84292     -25916.004     -26056.726      140.72154      8913.2031      80897.271    
    194400   297.40669     -25920.244     -26057.985      137.74067      8952.6816      80897.271    
    194500   296.48938     -25922.27      -26059.586      137.31583      8796.3724      80897.271    
    194600   298.40765     -25921.739     -26059.943      138.20425      8931.4702      80897.271    
    194700   300.3163      -25916.296     -26055.384      139.08822      9032.6869      80897.271    
    194800   297.97389     -25915.05      -26053.053      138.00336      9022.0247      80897.271    
    194900   306.14538     -25916.112     -26057.9        141.7879       9000.2486      80897.271    
    195000   301.02393     -25919.833     -26059.249      139.41595      8880.2612      80897.271    
    195100   292.08729     -25921.567     -26056.844      135.27704      8835.2428      80897.271    
    195200   300.98681     -25919.57      -26058.968      139.39876      8864.02        80897.271    
    195300   303.42037     -25918.205     -26058.731      140.52584      8863.2931      80897.271    
    195400   297.34772     -25918.206     -26055.92       137.71336      8988.093       80897.271    
    195500   302.20024     -25918.255     -26058.215      139.96075      8963.4231      80897.271    
    195600   300.41885     -25918.85      -26057.985      139.13572      8778.936       80897.271    
    195700   302.66741     -25918.535     -26058.712      140.17711      8757.5007      80897.271    
    195800   297.70546     -25918.501     -26056.38       137.87904      8979.336       80897.271    
    195900   297.6604      -25917.325     -26055.184      137.85817      9050.4382      80897.271    
    196000   309.73726     -25915.462     -26058.913      143.45144      8981.3174      80897.271    
    196100   303.15233     -25917.904     -26058.305      140.4017       8990.8622      80897.271    
    196200   293.76175     -25921.729     -26057.781      136.05255      8798.0603      80897.271    
    196300   293.6084      -25920.963     -26056.945      135.98153      8928.1864      80897.271    
    196400   302.28995     -25918.902     -26058.904      140.00229      8866.506       80897.271    
    196500   299.00446     -25918.421     -26056.901      138.48066      8975.9816      80897.271    
    196600   305.95506     -25917.644     -26059.344      141.69975      9004.3394      80897.271    
    196700   294.63907     -25918.797     -26055.256      136.45887      9075.1193      80897.271    
    196800   302.03556     -25917.896     -26057.78       139.88448      8937.2603      80897.271    
    196900   299.29854     -25918.674     -26057.291      138.61685      8995.0235      80897.271    
    197000   298.11733     -25919.11      -26057.179      138.06979      8879.2632      80897.271    
    197100   301.86609     -25918.674     -26058.48       139.80599      8953.4503      80897.271    
    197200   293.44756     -25918.701     -26054.608      135.90704      9018.5237      80897.271    
    197300   301.23069     -25915.588     -26055.1        139.51171      9065.9879      80897.271    
    197400   310.29186     -25914.449     -26058.158      143.70829      9026.7159      80897.271    
    197500   299.00723     -25918.618     -26057.1        138.48194      8923.9744      80897.271    
    197600   295.38962     -25921.555     -26058.361      136.80648      8924.1068      80897.271    
    197700   293.51691     -25921.214     -26057.153      135.93916      8868.4741      80897.271    
    197800   303.51771     -25918.836     -26059.407      140.57092      8859.8091      80897.271    
    197900   304.93242     -25917.588     -26058.814      141.22613      8999.4729      80897.271    
    198000   300.92109     -25917.369     -26056.737      139.36832      8936.7846      80897.271    
    198100   297.78226     -25918.905     -26056.819      137.91461      9017.2017      80897.271    
    198200   293.55691     -25922.952     -26058.909      135.95768      8841.917       80897.271    
    198300   299.69082     -25922.163     -26060.962      138.79853      8778.1313      80897.271    
    198400   301.59389     -25918.276     -26057.956      139.67992      8873.4313      80897.271    
    198500   298.88099     -25916.638     -26055.061      138.42347      9019.9155      80897.271    
    198600   302.40261     -25916.768     -26056.822      140.05447      9009.2179      80897.271    
    198700   303.72559     -25918.701     -26059.368      140.6672       8863.9729      80897.271    
    198800   292.26167     -25923.438     -26058.796      135.35781      8902.5692      80897.271    
    198900   296.46424     -25922.978     -26060.282      137.30418      8903.5774      80897.271    
    199000   297.62752     -25920.998     -26058.841      137.84294      8931.8411      80897.271    
    199100   298.89891     -25919.279     -26057.711      138.43177      8976.6036      80897.271    
    199200   296.60777     -25918.385     -26055.756      137.37065      9011.5162      80897.271    
    199300   303.56182     -25915.624     -26056.215      140.59135      8970.1185      80897.271    
    199400   309.18945     -25911.766     -26054.964      143.19772      9029.1636      80897.271    
    199500   306.51158     -25914.481     -26056.438      141.9575       9157.514       80897.271    
    199600   301.99517     -25918.85      -26058.715      139.86577      8826.0434      80897.271    
    199700   290.7901      -25920.094     -26054.77       134.67627      9098.3534      80897.271    
    199800   301.46887     -25918.439     -26058.061      139.62202      9014.5746      80897.271    
    199900   302.34386     -25918.162     -26058.189      140.02726      8840.5757      80897.271    
    200000   305.81443     -25917.396     -26059.03       141.63462      8830.2718      80897.271    
Loop time of 11854.2 on 20 procs for 200000 steps with 3584 atoms

Performance: 1.458 ns/day, 16.464 hours/ns, 16.872 timesteps/s, 60.468 katom-step/s
99.9% CPU use with 20 MPI tasks x 1 OpenMP threads

MPI task timing breakdown:
Section |  min time  |  avg time  |  max time  |%varavg| %total
---------------------------------------------------------------
Pair    | 9573.2     | 10721      | 11584      | 676.9 | 90.44
Neigh   | 114.84     | 131.11     | 146.45     |  77.5 |  1.11
Comm    | 87.776     | 926.69     | 2142.7     |2444.4 |  7.82
Output  | 0.29796    | 0.3425     | 0.40119    |   4.9 |  0.00
Modify  | 13.774     | 74.398     | 211.36     | 876.6 |  0.63
Other   |            | 0.8887     |            |       |  0.01

Nlocal:          179.2 ave         193 max         160 min
Histogram: 4 0 0 0 5 3 0 0 0 8
Nghost:         1123.9 ave        1214 max        1082 min
Histogram: 8 0 6 2 0 0 0 0 0 4
Neighs:              0 ave           0 max           0 min
Histogram: 20 0 0 0 0 0 0 0 0 0
FullNghs:      10266.2 ave       11092 max        9177 min
Histogram: 4 0 0 0 6 2 0 0 2 6

Total # of neighbors = 205324
Ave neighs/atom = 57.289062
Neighbor list builds = 200000
Dangerous builds not checked
Total wall time: 3:17:34
