ITEM: TIMESTEP
0
ITEM: NUMBER OF ATOMS
19
ITEM: BOX BOUNDS pp pp pp
0.0000000000000000e+00 3.0000000000000000e+01
0.0000000000000000e+00 3.0000000000000000e+01
0.0000000000000000e+00 3.0000000000000000e+01
ITEM: ATOMS id element x y z fx fy fz
   1  O   26.83197365000000190    1.96300465999999996    3.01543854999999894    0.02062311342505541   -0.98665719730402968    0.03586917957530259
   2  C   27.78289756999999938    1.84786771000000005    1.94347760999999997    0.64875300903088240   -0.03449799958204684    1.45726509076799871
   3  C   29.23545208999999545    1.39939938999999991    2.11114829000000004    0.38298275520089503    0.93348329591519241   -0.04055910384002612
   4  C   29.26687774999999903    1.24456353999999991    0.45901193000000012    0.43195554146773629    0.25397005801309769    1.60855903663333510
   5  O   29.90871010000000041    0.05377263000000000    0.02773424000000000   -0.66126068169717767    0.28748185577941832   -0.58665990077486252
   6  C   29.78822601999999975    2.55254872999999982   29.79649995000000118    0.27855089091884810   -1.97289191487458004    0.57337262605256822
   7  C   28.93297118999999995    3.66457560000000004    0.39346274000000009    0.73582373804126466    0.09275825832678142   -0.22400676877558523
   8  C   27.69680998000000116    2.96225401000000010    0.89789780000000008   -0.15808099996841790   -0.72997558165183873    0.52092752288832311
   9  C   27.74926929000000086    1.50323845000000000    0.51032201000000010   -0.80382641435593483   -1.29558266355144647   -1.06038240721585741
  10  H   26.62607437000000132    1.14685332999999989    3.58438005000000004    0.71155398798788982    0.98159694995968549   -1.20551147615977361
  11  H   29.86137496999999996    2.21370994000000021    2.59524002999999981   -0.27947492928307877   -0.61975379073004000   -0.77328689437462261
  12  H   29.43148031000000131    0.46955003000000012    2.66912102999999989   -0.30404411787504287   -0.18282512328875603   -0.33313800206094490
  13  H   29.81045685999999861   29.99135194999999854   29.03479524000000112    0.05455442515101097    0.16347124689667350    0.93669839735808136
  14  H    0.87373244000000017    2.62633871000000019   29.95569109999999924   -0.15286504121832856    0.55112112863118090    0.16435367593163774
  15  H   29.63856077000000155    2.29531431000000019   28.75866846999999993   -0.28055168742963565    0.81899959079839835   -0.84877672232486656
  16  H   29.59702262000000061    4.16346966000000052    1.13897914999999994   -0.92706307838751090    0.19292066859196816   -0.08408523996040493
  17  H   28.58921404000000166    4.36802997000000026   29.62796631999999875    0.40709984677894084    0.35187181388103750   -0.15085284613227851
  18  H   26.71950430000000054    3.39759218000000107    0.92956494000000001   -0.39521214220727519    0.80447224988178589   -0.09581443916940570
  19  H   26.99459690999999850    0.84965853999999996    0.03730179999999999    0.29048178441988859    0.39003715430751934    0.10602827158138788
ITEM: TIMESTEP
100
ITEM: NUMBER OF ATOMS
19
ITEM: BOX BOUNDS pp pp pp
0.0000000000000000e+00 3.0000000000000000e+01
0.0000000000000000e+00 3.0000000000000000e+01
0.0000000000000000e+00 3.0000000000000000e+01
ITEM: ATOMS id element x y z fx fy fz
   1  O   26.91422657086761205    1.94009534489210966    3.28258175595541513    2.32123728144773889    0.58866287033704856   -2.01638037555123084
   2  C   27.96346580343925581    2.19664304213712791    2.25427800014853075   -1.92852524348959564   -0.82162914557381739   -0.65308461779250548
   3  C   29.14706387061536219    1.37647490496246450    2.07491850802798394    1.25908681601213868    0.60017820090921914   -1.49200325592392136
   4  C   29.17537282429258383    1.22116592472292029    0.43408375050035847    1.47483259052391547    0.92546747835545062    1.09845317158701539
   5  O   29.82749379838257653    0.09026379246080328    0.01186484760020408    0.42255184983194283   -1.30088341017132025    0.01989086963963294
   6  C   29.93353502577115322    2.52279160930141000    0.01728669394620657    0.46281880843708390    0.80597048862377108   -0.11449810918280123
   7  C   28.76870738828453966    3.57452672894471402    0.37747059515814629    0.43886970296395811   -1.08551038533100264   -1.56864380427386108
   8  C   27.57264715234219210    2.64044665268296974    0.78626470292574391    0.57478141088424262    1.22508398689119802    2.23513529285125045
   9  C   27.82225363773946469    1.48332212182103018   29.91646291952256576   -0.88535335523353786   -0.37630167660194846   -0.77669106780163366
  10  H   26.98712103839933363    2.77486263501684371    3.77530140174867634   -0.28338263184197032    0.16932303728808532    0.34712613061090097
  11  H    0.12501919371122136    1.84431168926131450    2.37703083163521134   -1.17469117557799807   -0.13507618705219882    0.08197047623528486
  12  H   29.11858960153666231    0.36721932440997240    2.39427238302836676   -0.39034207536178100   -1.17396183589353975    0.73091950277810214
  13  H   29.80534790080466578    0.03668689100097731   29.03142343041480800   -0.08436676811570262    0.19950075131145689    0.19629173546771073
  14  H    0.85180454775130832    2.94658347689431022    0.58960800542028458   -1.13253142560302500   -1.17146023670394217   -0.91587296429380149
  15  H    0.18357815039334596    2.49359842902612128   28.92356203942494730   -0.22871554588906018    0.20013876199468261    0.63746493159234063
  16  H   29.33614053888321038    4.13123190436680243    1.07747666314245927   -0.47554141925554594    1.32230035481370001    1.15585545696672232
  17  H   28.47840932229311051    4.14822862774967049   29.46973319396720470    0.14279413441839789    0.13349862397787038    0.46515084310729377
  18  H   26.62759790305595331    3.17040271683362418    0.80337397745254047   -0.57469398999350119   -0.03289060591770911   -0.20670720184604549
  19  H   27.43959730871111091    1.28867468161970944   28.89319384357371234    0.06117103584230971   -0.07241107125700358    0.77562298582954603
ITEM: TIMESTEP
200
ITEM: NUMBER OF ATOMS
19
ITEM: BOX BOUNDS pp pp pp
0.0000000000000000e+00 3.0000000000000000e+01
0.0000000000000000e+00 3.0000000000000000e+01
0.0000000000000000e+00 3.0000000000000000e+01
ITEM: ATOMS id element x y z fx fy fz
   1  O   27.55116292168701975    2.87316685046787379    3.10449095652624596    0.41145534163427866   -0.75552049338525640   -0.35644328517983970
   2  C   27.77944582116131400    1.83837153942200393    2.13267112790463953   -1.92521477093329629    3.23246511747402376   -0.49161417980536459
   3  C   28.69118419883123039    0.74149762587068047    1.90300101181904346   -0.26850505432425431   -0.58892233751703849    0.83795596235286141
   4  C   29.23227658387732930    1.12971034829602868    0.49030787023583577    0.74971564996319451   -0.57489971232884152    0.37613052552048032
   5  O    0.10833421858403901    0.22291213665161383   29.74328012721777270   -0.32454761068953175    0.02585803304346790    1.35922652818179657
   6  C   29.73970048930940635    2.58389534077307204    0.61750591533539456    0.40959326929125872    0.38447801694582129   -2.66407999443291565
   7  C   28.55792251384288605    3.52156018904090695    0.54238682253534065   -2.52651790766231699    0.87259551003420244    1.75880261931537074
   8  C   27.39243462789763583    2.49864793481652958    0.77647176955954289    0.96457880698102616   -1.22456096190531438   -0.38973177623024297
   9  C   27.97348676943996537    1.41803228598263042   29.82738753685276478   -1.63722327684614788    0.35823611245762071    0.18615551022882332
  10  H   27.43862690976812502    2.58216078464615739    4.01804569471444761    0.12342840415298981   -0.77322704875074344    0.01449361176684391
  11  H   29.39826287507781899    0.86299043936017239    2.71898248505169882    0.92935540785672255   -0.48616180147849808   -0.03826265508840831
  12  H   28.12162945013243132   29.79324234330949039    2.06811265919135412    0.53184219574078373    0.29005085610894032   -0.48225278782959136
  13  H    0.21458624301803622    0.53522879261427725   28.82916702280533983   -0.13818275261139101    0.27291687028394040   -0.22991976294042216
  14  H    0.26467939080068392    2.85965964674658846    1.45847282325889660    1.55357511413496585   -0.17933582959463656    2.05062624765203338
  15  H    0.36722571224061751    2.72361587402107430   29.70447293416346568    0.02419107184630498    0.14027302745689596    0.36062259537605978
  16  H   28.49162145035872129    4.30593830603691341    1.38477481387796519    0.48854507226869587   -1.02189690096731756   -1.16006082152245704
  17  H   28.23992221893577792    4.01295100598962495   29.64017010905975624    0.68021759046665498    0.67811944824379544   -0.86177976058293704
  18  H   26.36650225859967733    2.85393411989667856    0.58083031761737636    0.28446504885425550   -0.41655235818107572    0.34868946856650629
  19  H   27.59658586130440838    1.05257210022323355   28.91016159021198817   -0.33077160012419693   -0.23391554793997632   -0.61855804534860548
ITEM: TIMESTEP
300
ITEM: NUMBER OF ATOMS
19
ITEM: BOX BOUNDS pp pp pp
0.0000000000000000e+00 3.0000000000000000e+01
0.0000000000000000e+00 3.0000000000000000e+01
0.0000000000000000e+00 3.0000000000000000e+01
ITEM: ATOMS id element x y z fx fy fz
   1  O   27.35499560087933446    2.47136546741514085    3.26516527169187576   -0.94521665385438447   -1.19903985356184051    0.35413363197259046
   2  C   27.84407477619893001    2.03518334650656563    2.10595953005210079    1.25652376612387462   -1.91320317343368185   -0.27043554096320405
   3  C   28.79721597390334153    0.78279908084046756    1.88950209001123737   -1.71009165834082655    0.46683122186640047    0.36485247199223680
   4  C   29.25940638632555491    1.15849509155811359    0.50250211676650502   -0.43431466830723409    1.98035052952312896    0.05112800750502089
   5  O    0.05045183891298807    0.18731687548881440    0.01129128197682108    1.23730833207112312   -1.01019035721007455   -0.21066780351462455
   6  C   29.82989928615772257    2.68717663651396332    0.25767906835991922    1.29724640277261205   -1.07467370633872084    0.48849321909356647
   7  C   28.52668238508956122    3.66990067843616075    0.44241505571953377    0.77421268306831692   -1.99334478234212509   -1.45833563554130330
   8  C   27.45791794702102351    2.57983328373174636    0.80257132662642328   -0.15341958487946178   -0.07982317635681310   -1.10221370169866018
   9  C   27.91788060323802156    1.40380644923082332   29.87277258818048153   -1.24372648089233229    0.69422356169454658   -0.05925850548442474
  10  H   27.92979157425591197    3.18734077700351115    3.47622998528713190    0.98767027383987860    1.41080857299158180    0.68538356224145669
  11  H   29.57974782722821061    0.73883449537961554    2.65358558062196082    0.14407470293664626   -0.11634743157107263    0.02335544583145216
  12  H   28.23791535560476973   29.78923398610603002    1.73801468087863875    0.48350701301287924    1.10490807140251279    0.79144211347328908
  13  H   29.82793835712052655    0.09214828864417179   29.08798812249000676    0.04569212529313837   -0.14063043691318888   -0.89642585553646370
  14  H    0.80640181782454867    2.82002144947415223    0.86362029935990814   -1.43257307445093218    0.27682546401250774   -0.07367933092071111
  15  H    0.26184358156775955    2.70517994385242977   29.20176400394248617   -0.92023451332144934    0.30212331652739982    0.65084063168536144
  16  H   28.66177042673468733    4.42056282074226914    1.22008070023922377    0.00373058036293644    0.38535902966018665   -0.16939621144842792
  17  H   28.36890842631195042    4.00685150293633807   29.37715114942347583   -0.22462013936837733    0.62423604915030739    0.98108871688764498
  18  H   26.36926912120365074    2.79848457229291814    0.79382203084941783    0.40859562421559659    0.21832637726931584   -0.41761292608253431
  19  H   27.31130590736163910    0.98962467074185434   29.05768403778772324    0.42563526971800353    0.06326072362962917    0.26730771050773899
ITEM: TIMESTEP
400
ITEM: NUMBER OF ATOMS
19
ITEM: BOX BOUNDS pp pp pp
0.0000000000000000e+00 3.0000000000000000e+01
0.0000000000000000e+00 3.0000000000000000e+01
0.0000000000000000e+00 3.0000000000000000e+01
ITEM: ATOMS id element x y z fx fy fz
   1  O   27.14054571422610707    2.09875098129714743    3.21525115158308994   -0.36774336977769678    1.33705217822702727    2.02736419501670628
   2  C   27.88551212674650515    2.15533171738155227    2.16530119806369958    0.62374801031503879   -1.21517322926553595   -1.63570227914860977
   3  C   28.96367382106157962    1.08038721896506829    2.02059850683054965   -0.32779118538956387    0.88386653945923821   -0.56059612871553277
   4  C   29.24413503034655548    1.21673957670657984    0.48248824187206707   -0.48053851452783092    0.45040153096748226    1.75175039853329717
   5  O   29.95008911913134497    0.09279885064475041    0.09308212239896065    0.28541679229801781   -0.20224677172747885   -0.33206747722565250
   6  C   29.75500290467841324    2.61745337790129273    0.06212043229712127    0.67659201174454076   -1.77514781055544990    0.53882356446134949
   7  C   28.72939491186505379    3.66456327799323001    0.44135164037015218    0.90408157444811887   -0.66573158885270844   -0.48728232944080735
   8  C   27.55730309856467386    2.73418013325445308    0.76173085706319510   -0.79933397101114567   -0.82146844059852842   -0.23112511759594315
   9  C   27.86006433357775691    1.42351124860232447   29.88538873476186453   -0.53576916977062028    0.89897864115395143    0.93236479239948433
  10  H   27.53161658376532728    2.73268638194122993    3.90272933825362189   -0.47856080414137103   -0.86254714572018210   -1.08928733998030269
  11  H   29.77190734785087045    1.37395399553100295    2.74684112127636659   -0.05073890247284968   -0.49339120837298467   -0.64528248581869430
  12  H   28.61651465154335483    0.01691446458119315    2.08530104247123882    0.05575688080643288    0.48088187558763174    0.62278704945392371
  13  H   29.84642844029319519    0.09428015650236331   29.13546551613562841    0.40750806899905295   -0.26461869268985716   -0.70562606204869571
  14  H    0.77975666895734630    2.88264784897011594    0.21489814692466855    0.76485308298893351    0.17121912455062560    0.39330202604451858
  15  H   29.65526946617644199    2.41221706469828945   29.03130022600555193    0.13046236916199172    0.68781386209435358   -1.48782022612011700
  16  H   29.10089475724791441    4.12759513867854633    1.35315029037781920   -0.31615156078177276    0.89936360561667339    0.10706593522656255
  17  H   28.70760400799073508    4.27751224319886614   29.52255937624015658   -0.81905941476635702    0.68412344319718565    0.47424009164145298
  18  H   26.54323819593872358    3.18574290640170021    0.66080304604660656    0.45371549131037570   -0.33607014839822591   -0.02317544936377093
  19  H   27.48479557497044823    1.00789157573548205   28.95942122624188642   -0.12644738943330658    0.14269423532677902    0.35026684268082930
ITEM: TIMESTEP
500
ITEM: NUMBER OF ATOMS
19
ITEM: BOX BOUNDS pp pp pp
0.0000000000000000e+00 3.0000000000000000e+01
0.0000000000000000e+00 3.0000000000000000e+01
0.0000000000000000e+00 3.0000000000000000e+01
ITEM: ATOMS id element x y z fx fy fz
   1  O   27.36067386496603504    2.54930110897483253    3.23655264049281888   -0.63314102536409989    1.66431221182239897   -0.16029812050727943
   2  C   27.89781447667240499    2.08439038675755306    2.11067179651137415   -0.15199175924728525   -1.79262598494395275   -0.78270991050222194
   3  C   28.90540857908928629    0.86575714015344929    2.01781994907062678    0.09576102700447964    3.64288698375259301   -1.98887284687134236
   4  C   29.18266377760297203    1.12466691812648034    0.46238444662198708    1.34506670765277470    0.22162326666309795    0.82175636031645638
   5  O    0.07376217689826849    0.17594603855528249   29.82673216678172778   -0.47974319599079607    0.06139885249713295    1.18365551410293435
   6  C   29.79911157759464402    2.58116898090155367    0.38275772102812561   -0.20205495719234712   -0.80751208390212403   -1.22611702388385480
   7  C   28.54083841119325271    3.58969566277365315    0.60663323331527697    1.48915182926936529    0.09448544865663999   -1.68666309111625812
   8  C   27.41401464715167435    2.57506074818263864    0.73329528927797638    0.63305220718589539   -1.58954836367274499   -0.67589568647727882
   9  C   27.86671562950216696    1.33543741342913691   29.85390733953617115   -0.36833866472013421    1.49032519205012615    1.09730991478644091
  10  H   27.01585064724049090    3.46357836817970677    2.97030318520050773    0.36562206191792213   -1.40934736825066098    0.89196507485831600
  11  H   29.74438733736367624    1.14668856247825501    2.66945688446798268    0.18654467790096962   -0.52381958095546177   -0.03312080596106570
  12  H   28.59021366299912970   29.88134468708209113    2.06408947590241354   -1.06350472897284831   -2.06461414437063429    0.86314695408842335
  13  H    0.04315316300087250    0.27278019619681831   28.86569029103338835   -0.20843758214002284    0.29581282955874322   -0.41478106591627917
  14  H    0.66508289226067796    2.61594161814834791    1.08475506155950807   -0.31565335165651298    0.57481816836666733   -0.43139320880771859
  15  H    0.08344654783793164    2.61081972372208515   29.23557036580614721   -0.26572707015020569    0.51885658566616766    2.04923458225669641
  16  H   28.58571113777279749    4.28702900368905659    1.46752382503359313    0.09591617888010506   -0.20717398910562243   -0.33618758125632980
  17  H   28.57986396919597283    4.20282268014396365   29.65651545890953500   -0.53378213193646262   -0.05088495194782167    0.68545685341233265
  18  H   26.36851887522554350    2.80967815993083470    0.46564184620718369    0.29915624531537294    0.21939914970794661    0.66272658128552864
  19  H   27.53444400143709458    1.11971129251042290   28.86984263606488810   -0.28789646775616085   -0.33839222159250393   -0.51921249380748025
