19
Lattice="30.0 0.0 0.0 0.0 30.0 0.0 0.0 0.0 30.0" Properties=species:S:1:pos:R:3:forces:R:3 energy=-11504.252904585974 pbc="T T T"
O       26.83197365       1.96300466       3.01543855       0.02062311      -0.98665720       0.03586918
C       27.78289757       1.84786771       1.94347761       0.64875301      -0.03449800       1.45726509
C       29.23545209       1.39939939       2.11114829       0.38298276       0.93348330      -0.04055910
C       29.26687775       1.24456354       0.45901193       0.43195554       0.25397006       1.60855904
O       29.90871010       0.05377263       0.02773424      -0.66126068       0.28748186      -0.58665990
C       29.78822602       2.55254873      29.79649995       0.27855089      -1.97289191       0.57337263
C       28.93297119       3.66457560       0.39346274       0.73582374       0.09275826      -0.22400677
C       27.69680998       2.96225401       0.89789780      -0.15808100      -0.72997558       0.52092752
C       27.74926929       1.50323845       0.51032201      -0.80382641      -1.29558266      -1.06038241
H       26.62607437       1.14685333       3.58438005       0.71155399       0.98159695      -1.20551148
H       29.86137497       2.21370994       2.59524003      -0.27947493      -0.61975379      -0.77328689
H       29.43148031       0.46955003       2.66912103      -0.30404412      -0.18282512      -0.33313800
H       29.81045686      29.99135195      29.03479524       0.05455443       0.16347125       0.93669840
H        0.87373244       2.62633871      29.95569110      -0.15286504       0.55112113       0.16435368
H       29.63856077       2.29531431      28.75866847      -0.28055169       0.81899959      -0.84877672
H       29.59702262       4.16346966       1.13897915      -0.92706308       0.19292067      -0.08408524
H       28.58921404       4.36802997      29.62796632       0.40709985       0.35187181      -0.15085285
H       26.71950430       3.39759218       0.92956494      -0.39521214       0.80447225      -0.09581444
H       26.99459691       0.84965854       0.03730180       0.29048178       0.39003715       0.10602827
19
Lattice="30.0 0.0 0.0 0.0 30.0 0.0 0.0 0.0 30.0" Properties=species:S:1:pos:R:3:forces:R:3 energy=-11504.09517174145 pbc="T T T"
O       26.91422657       1.94009534       3.28258176       2.32123728       0.58866287      -2.01638038
C       27.96346580       2.19664304       2.25427800      -1.92852524      -0.82162915      -0.65308462
C       29.14706387       1.37647490       2.07491851       1.25908682       0.60017820      -1.49200326
C       29.17537282       1.22116592       0.43408375       1.47483259       0.92546748       1.09845317
O       29.82749380       0.09026379       0.01186485       0.42255185      -1.30088341       0.01989087
C       29.93353503       2.52279161       0.01728669       0.46281881       0.80597049      -0.11449811
C       28.76870739       3.57452673       0.37747060       0.43886970      -1.08551039      -1.56864380
C       27.57264715       2.64044665       0.78626470       0.57478141       1.22508399       2.23513529
C       27.82225364       1.48332212      29.91646292      -0.88535336      -0.37630168      -0.77669107
H       26.98712104       2.77486264       3.77530140      -0.28338263       0.16932304       0.34712613
H        0.12501919       1.84431169       2.37703083      -1.17469118      -0.13507619       0.08197048
H       29.11858960       0.36721932       2.39427238      -0.39034208      -1.17396184       0.73091950
H       29.80534790       0.03668689      29.03142343      -0.08436677       0.19950075       0.19629174
H        0.85180455       2.94658348       0.58960801      -1.13253143      -1.17146024      -0.91587296
H        0.18357815       2.49359843      28.92356204      -0.22871555       0.20013876       0.63746493
H       29.33614054       4.13123190       1.07747666      -0.47554142       1.32230035       1.15585546
H       28.47840932       4.14822863      29.46973319       0.14279413       0.13349862       0.46515084
H       26.62759790       3.17040272       0.80337398      -0.57469399      -0.03289061      -0.20670720
H       27.43959731       1.28867468      28.89319384       0.06117104      -0.07241107       0.77562299
19
Lattice="30.0 0.0 0.0 0.0 30.0 0.0 0.0 0.0 30.0" Properties=species:S:1:pos:R:3:forces:R:3 energy=-11504.362245216314 pbc="T T T"
O       27.55116292       2.87316685       3.10449096       0.41145534      -0.75552049      -0.35644329
C       27.77944582       1.83837154       2.13267113      -1.92521477       3.23246512      -0.49161418
C       28.69118420       0.74149763       1.90300101      -0.26850505      -0.58892234       0.83795596
C       29.23227658       1.12971035       0.49030787       0.74971565      -0.57489971       0.37613053
O        0.10833422       0.22291214      29.74328013      -0.32454761       0.02585803       1.35922653
C       29.73970049       2.58389534       0.61750592       0.40959327       0.38447802      -2.66407999
C       28.55792251       3.52156019       0.54238682      -2.52651791       0.87259551       1.75880262
C       27.39243463       2.49864793       0.77647177       0.96457881      -1.22456096      -0.38973178
C       27.97348677       1.41803229      29.82738754      -1.63722328       0.35823611       0.18615551
H       27.43862691       2.58216078       4.01804569       0.12342840      -0.77322705       0.01449361
H       29.39826288       0.86299044       2.71898249       0.92935541      -0.48616180      -0.03826266
H       28.12162945      29.79324234       2.06811266       0.53184220       0.29005086      -0.48225279
H        0.21458624       0.53522879      28.82916702      -0.13818275       0.27291687      -0.22991976
H        0.26467939       2.85965965       1.45847282       1.55357511      -0.17933583       2.05062625
H        0.36722571       2.72361587      29.70447293       0.02419107       0.14027303       0.36062260
H       28.49162145       4.30593831       1.38477481       0.48854507      -1.02189690      -1.16006082
H       28.23992222       4.01295101      29.64017011       0.68021759       0.67811945      -0.86177976
H       26.36650226       2.85393412       0.58083032       0.28446505      -0.41655236       0.34868947
H       27.59658586       1.05257210      28.91016159      -0.33077160      -0.23391555      -0.61855805
19
Lattice="30.0 0.0 0.0 0.0 30.0 0.0 0.0 0.0 30.0" Properties=species:S:1:pos:R:3:forces:R:3 energy=-11504.568589098864 pbc="T T T"
O       27.35499560       2.47136547       3.26516527      -0.94521665      -1.19903985       0.35413363
C       27.84407478       2.03518335       2.10595953       1.25652377      -1.91320317      -0.27043554
C       28.79721597       0.78279908       1.88950209      -1.71009166       0.46683122       0.36485247
C       29.25940639       1.15849509       0.50250212      -0.43431467       1.98035053       0.05112801
O        0.05045184       0.18731688       0.01129128       1.23730833      -1.01019036      -0.21066780
C       29.82989929       2.68717664       0.25767907       1.29724640      -1.07467371       0.48849322
C       28.52668239       3.66990068       0.44241506       0.77421268      -1.99334478      -1.45833564
C       27.45791795       2.57983328       0.80257133      -0.15341958      -0.07982318      -1.10221370
C       27.91788060       1.40380645      29.87277259      -1.24372648       0.69422356      -0.05925851
H       27.92979157       3.18734078       3.47622999       0.98767027       1.41080857       0.68538356
H       29.57974783       0.73883450       2.65358558       0.14407470      -0.11634743       0.02335545
H       28.23791536      29.78923399       1.73801468       0.48350701       1.10490807       0.79144211
H       29.82793836       0.09214829      29.08798812       0.04569213      -0.14063044      -0.89642586
H        0.80640182       2.82002145       0.86362030      -1.43257307       0.27682546      -0.07367933
H        0.26184358       2.70517994      29.20176400      -0.92023451       0.30212332       0.65084063
H       28.66177043       4.42056282       1.22008070       0.00373058       0.38535903      -0.16939621
H       28.36890843       4.00685150      29.37715115      -0.22462014       0.62423605       0.98108872
H       26.36926912       2.79848457       0.79382203       0.40859562       0.21832638      -0.41761293
H       27.31130591       0.98962467      29.05768404       0.42563527       0.06326072       0.26730771
19
Lattice="30.0 0.0 0.0 0.0 30.0 0.0 0.0 0.0 30.0" Properties=species:S:1:pos:R:3:forces:R:3 energy=-11504.501928856038 pbc="T T T"
O       27.14054571       2.09875098       3.21525115      -0.36774337       1.33705218       2.02736420
C       27.88551213       2.15533172       2.16530120       0.62374801      -1.21517323      -1.63570228
C       28.96367382       1.08038722       2.02059851      -0.32779119       0.88386654      -0.56059613
C       29.24413503       1.21673958       0.48248824      -0.48053851       0.45040153       1.75175040
O       29.95008912       0.09279885       0.09308212       0.28541679      -0.20224677      -0.33206748
C       29.75500290       2.61745338       0.06212043       0.67659201      -1.77514781       0.53882356
C       28.72939491       3.66456328       0.44135164       0.90408157      -0.66573159      -0.48728233
C       27.55730310       2.73418013       0.76173086      -0.79933397      -0.82146844      -0.23112512
C       27.86006433       1.42351125      29.88538873      -0.53576917       0.89897864       0.93236479
H       27.53161658       2.73268638       3.90272934      -0.47856080      -0.86254715      -1.08928734
H       29.77190735       1.37395400       2.74684112      -0.05073890      -0.49339121      -0.64528249
H       28.61651465       0.01691446       2.08530104       0.05575688       0.48088188       0.62278705
H       29.84642844       0.09428016      29.13546552       0.40750807      -0.26461869      -0.70562606
H        0.77975667       2.88264785       0.21489815       0.76485308       0.17121912       0.39330203
H       29.65526947       2.41221706      29.03130023       0.13046237       0.68781386      -1.48782023
H       29.10089476       4.12759514       1.35315029      -0.31615156       0.89936361       0.10706594
H       28.70760401       4.27751224      29.52255938      -0.81905941       0.68412344       0.47424009
H       26.54323820       3.18574291       0.66080305       0.45371549      -0.33607015      -0.02317545
H       27.48479557       1.00789158      28.95942123      -0.12644739       0.14269424       0.35026684
19
Lattice="30.0 0.0 0.0 0.0 30.0 0.0 0.0 0.0 30.0" Properties=species:S:1:pos:R:3:forces:R:3 energy=-11504.49837134073 pbc="T T T"
O       27.36067386       2.54930111       3.23655264      -0.63314103       1.66431221      -0.16029812
C       27.89781448       2.08439039       2.11067180      -0.15199176      -1.79262598      -0.78270991
C       28.90540858       0.86575714       2.01781995       0.09576103       3.64288698      -1.98887285
C       29.18266378       1.12466692       0.46238445       1.34506671       0.22162327       0.82175636
O        0.07376218       0.17594604      29.82673217      -0.47974320       0.06139885       1.18365551
C       29.79911158       2.58116898       0.38275772      -0.20205496      -0.80751208      -1.22611702
C       28.54083841       3.58969566       0.60663323       1.48915183       0.09448545      -1.68666309
C       27.41401465       2.57506075       0.73329529       0.63305221      -1.58954836      -0.67589569
C       27.86671563       1.33543741      29.85390734      -0.36833866       1.49032519       1.09730991
H       27.01585065       3.46357837       2.97030319       0.36562206      -1.40934737       0.89196507
H       29.74438734       1.14668856       2.66945688       0.18654468      -0.52381958      -0.03312081
H       28.59021366      29.88134469       2.06408948      -1.06350473      -2.06461414       0.86314695
H        0.04315316       0.27278020      28.86569029      -0.20843758       0.29581283      -0.41478107
H        0.66508289       2.61594162       1.08475506      -0.31565335       0.57481817      -0.43139321
H        0.08344655       2.61081972      29.23557037      -0.26572707       0.51885659       2.04923458
H       28.58571114       4.28702900       1.46752383       0.09591618      -0.20717399      -0.33618758
H       28.57986397       4.20282268      29.65651546      -0.53378213      -0.05088495       0.68545685
H       26.36851888       2.80967816       0.46564185       0.29915625       0.21939915       0.66272658
H       27.53444400       1.11971129      28.86984264      -0.28789647      -0.33839222      -0.51921249
