2
Lattice="3.0321975749415837 0.0 0.0 0.0 3.0321975749415837 0.0 0.0 0.0 3.0321975749415837" Properties=species:S:1:pos:R:3:forces:R:3 energy=-10.497338278136052 pbc="T T T"
Hf       0.00000000       0.00000000       0.00000000       0.00000005       0.00000005       0.00000005
Hf       1.51609879       1.51609879       1.51609879      -0.00000005      -0.00000005      -0.00000005
2
Lattice="3.0321975749415837 0.0 0.0 0.0 3.0321975749415837 0.0 0.0 0.0 3.0321975749415837" Properties=species:S:1:pos:R:3:forces:R:3 energy=-10.413519428852258 pbc="T T T"
Hf       3.00593846       3.00593846       3.00593846       1.06475588       1.06475588       1.06475588
Hf       1.54235790       1.54235790       1.54235790      -1.06475588      -1.06475588      -1.06475588
2
Lattice="3.0321975749415837 0.0 0.0 0.0 3.0321975749415837 0.0 0.0 0.0 3.0321975749415837" Properties=species:S:1:pos:R:3:forces:R:3 energy=-10.497337399014814 pbc="T T T"
Hf       3.03211250       3.03211250       3.03211250       0.00344450       0.00344450       0.00344450
Hf       1.51618386       1.51618386       1.51618386      -0.00344450      -0.00344450      -0.00344450
2
Lattice="3.0321975749415837 0.0 0.0 0.0 3.0321975749415837 0.0 0.0 0.0 3.0321975749415837" Properties=species:S:1:pos:R:3:forces:R:3 energy=-10.241507666893018 pbc="T T T"
Hf       0.04584788       0.04584788       0.04584788      -1.86275232      -1.86275232      -1.86275232
Hf       1.47025091       1.47025091       1.47025091       1.86275232       1.86275232       1.86275232
2
Lattice="3.0321975749415837 0.0 0.0 0.0 3.0321975749415837 0.0 0.0 0.0 3.0321975749415837" Properties=species:S:1:pos:R:3:forces:R:3 energy=-10.497168958758948 pbc="T T T"
Hf       3.03101690       3.03101690       3.03101690       0.04780315       0.04780315       0.04780315
Hf       1.51727946       1.51727946       1.51727946      -0.04780315      -0.04780315      -0.04780315
2
Lattice="3.0321975749415837 0.0 0.0 0.0 3.0321975749415837 0.0 0.0 0.0 3.0321975749415837" Properties=species:S:1:pos:R:3:forces:R:3 energy=-10.381284690476026 pbc="T T T"
Hf       3.00130310       3.00130310       3.00130310       1.25331109       1.25331109       1.25331109
Hf       1.54699326       1.54699326       1.54699326      -1.25331109      -1.25331109      -1.25331109
