LAMMPS (27 Jun 2024)
OMP_NUM_THREADS environment is not set. Defaulting to 1 thread. (src/comm.cpp:98)
  using 1 OpenMP thread(s) per MPI task
Reading data file ...
  orthogonal box = (0 0 0) to (67.266653 66.57672 40.643788)
  5 by 2 by 2 MPI processor grid
  reading atoms ...
  8064 atoms
  read_data CPU = 0.045 seconds
**************** Begin of POD Potentials ****************
species: Hf 
periodic boundary conditions: 1 1 1
number of environment clusters: 8
number of principal compoments: 2
inner cut-off radius: 1
outer cut-off radius: 5
cut-off function type: 1
gaussian_exponents: 
polynomial_degrees: 
bessel polynomial degree: 4
inverse polynomial degree: 10
one-body potential: 1
two-body radial basis functions: 8
three-body radial basis functions: 8
three-body angular degree: 6
four-body radial basis functions: 7
four-body angular degree: 5
five-body radial basis functions: 0
five-body angular degree: 0
six-body radial basis functions: 0
six-body angular degree: 0
seven-body radial basis functions: 0
seven-body angular degree: 0
number of local descriptors per element for one-body potential: 1
number of local descriptors per element for two-body potential: 8
number of local descriptors per element for three-body potential: 56
number of local descriptors per element for four-body potential: 112
number of local descriptors per element for five-body potential: 0
number of local descriptors per element for six-body potential: 0
number of local descriptors per element for seven-body potential: 0
number of local descriptors per element for all potentials: 177
number of global descriptors: 1409
**************** End of POD Potentials ****************

**************** Begin of Model Coefficients ****************
total number of coefficients for POD potential: 1409
total number of elements for PCA projection matrix: 352
total number of elements for PCA centroids: 16
**************** End of Model Coefficients ****************


CITE-CITE-CITE-CITE-CITE-CITE-CITE-CITE-CITE-CITE-CITE-CITE-CITE

Your simulation uses code contributions which should be cited:
- Type Label Framework: https://doi.org/10.1021/acs.jpcb.3c08419
The log file lists these citations in BibTeX format.

CITE-CITE-CITE-CITE-CITE-CITE-CITE-CITE-CITE-CITE-CITE-CITE-CITE

Neighbor list info ...
  update: every = 1 steps, delay = 0 steps, check = no
  max neighbors/atom: 2000, page size: 100000
  master list distance cutoff = 7
  ghost atom cutoff = 7
  binsize = 3.5, bins = 20 20 12
  1 neighbor lists, perpetual/occasional/extra = 1 0 0
  (1) pair pod, perpetual
      attributes: full, newton on
      pair build: full/bin/atomonly
      stencil: full/bin/3d
      bin: standard
Setting up Verlet run ...
  Unit style    : metal
  Current step  : 0
  Time step     : 0.001
Per MPI rank memory allocation (min/avg/max) = 2.638 | 2.639 | 2.64 Mbytes
   Step          Temp          TotEng         PotEng         KinEng         Press          Volume    
         0   300           -58749.802     -59062.469      312.66736      1834.7862      182018.86    
       100   91.048943     -58739.384     -58834.278      94.893444      3710.0151      182018.86    
       200   149.06061     -58705.825     -58861.179      155.35463      4206.4928      182018.86    
       300   182.87623     -58665.91      -58856.508      190.59809      4201.4175      182018.86    
       400   232.01433     -58624.75      -58866.561      241.81103      4012.3273      182018.86    
       500   256.50329     -58579.246     -58846.58       267.33402      4727.8043      182018.86    
       600   233.11722     -58534.551     -58777.511      242.96049      5854.6913      182018.86    
       700   257.232       -58490.686     -58758.78       268.09351      6564.0018      182018.86    
       800   285.77199     -58453.195     -58751.034      297.83859      6660.2661      182018.86    
       900   316.03664     -58421.036     -58750.417      329.38115      6719.9726      182018.86    
      1000   327.40409     -58408.774     -58750.003      341.22858      6910.5099      182018.86    
      1100   300.54309     -58421.554     -58734.787      313.23339      7071.1215      182018.86    
      1200   290.6785      -58439.235     -58742.187      302.95227      6892.345       182018.86    
      1300   283.55883     -58452.629     -58748.16       295.53198      6696.2506      182018.86    
      1400   300.22253     -58446.685     -58759.584      312.89929      6609.0712      182018.86    
      1500   306.58249     -58433.906     -58753.434      319.5278       6698.1695      182018.86    
      1600   312.2134      -58421.95      -58747.347      325.39647      6857.6698      182018.86    
      1700   303.06283     -58421.586     -58737.446      315.85952      7065.8588      182018.86    
      1800   282.78355     -58433.187     -58727.911      294.72396      7094.5601      182018.86    
      1900   305.7063      -58439.506     -58758.12       318.61461      6671.528       182018.86    
      2000   298.84887     -58446.735     -58758.203      311.46762      6509.5571      182018.86    
      2100   300.69892     -58440.337     -58753.733      313.39579      6698.584       182018.86    
      2200   300.45791     -58430.536     -58743.68       313.14461      6922.1249      182018.86    
      2300   293.57673     -58424.261     -58730.234      305.97287      7111.7154      182018.86    
      2400   309.1302      -58424.478     -58746.661      322.18308      6989.8775      182018.86    
      2500   297.35034     -58436.819     -58746.725      309.90582      6634.46        182018.86    
      2600   308.049       -58439.815     -58760.871      321.05624      6643.6859      182018.86    
      2700   288.85164     -58443.897     -58744.946      301.04827      6783.3355      182018.86    
      2800   293.53153     -58436.928     -58742.854      305.92577      6879.5775      182018.86    
      2900   307.27682     -58428.89      -58749.142      320.25145      6834.9131      182018.86    
      3000   301.53066     -58427.151     -58741.414      314.26266      6782.072       182018.86    
      3100   309.68777     -58426.79      -58749.555      322.7642       6888.4277      182018.86    
      3200   294.05814     -58436.637     -58743.111      306.47461      6837.4288      182018.86    
      3300   298.69311     -58440.884     -58752.19       311.30529      6781.752       182018.86    
      3400   293.58387     -58443.595     -58749.576      305.98032      6715.4366      182018.86    
      3500   301.0321      -58436.361     -58750.104      313.74304      6750.9811      182018.86    
      3600   308.14267     -58426.184     -58747.337      321.15386      6811.9868      182018.86    
      3700   300.17042     -58425.813     -58738.658      312.84499      6917.4422      182018.86    
      3800   300.73862     -58430.226     -58743.664      313.43717      6886.5179      182018.86    
      3900   296.58689     -58439.733     -58748.843      309.11014      6742.4677      182018.86    
      4000   297.81396     -58444.068     -58754.457      310.38902      6651.051       182018.86    
      4100   297.50661     -58440.261     -58750.33       310.06869      6686.8663      182018.86    
      4200   303.54451     -58430.655     -58747.016      316.36154      6832.2775      182018.86    
      4300   301.54786     -58425.919     -58740.2        314.28058      7007.7619      182018.86    
      4400   299.16102     -58428.674     -58740.467      311.79296      6907.7132      182018.86    
      4500   305.40583     -58433.15      -58751.452      318.30146      6811.2344      182018.86    
      4600   295.79433     -58440.565     -58748.849      308.28411      6751.836       182018.86    
      4700   297.83071     -58440.988     -58751.394      310.40648      6765.7433      182018.86    
      4800   297.65979     -58437.295     -58747.523      310.22834      6807.2766      182018.86    
      4900   298.38698     -58431.947     -58742.933      310.98624      6859.739       182018.86    
      5000   308.47666     -58426.736     -58748.238      321.50195      6847.3823      182018.86    
      5100   296.44344     -58430.003     -58738.964      308.96063      6909.725       182018.86    
      5200   301.70994     -58432.982     -58747.431      314.44951      6849.5654      182018.86    
      5300   299.09595     -58439.027     -58750.752      311.72514      6744.9536      182018.86    
      5400   293.04972     -58440.931     -58746.355      305.42361      6748.7859      182018.86    
      5500   304.112       -58435.081     -58752.034      316.953        6765.6704      182018.86    
      5600   297.90479     -58433.126     -58743.61       310.48368      6869.2989      182018.86    
      5700   301.64762     -58429.899     -58744.283      314.38455      6868.4074      182018.86    
      5800   305.027       -58431.117     -58749.024      317.90662      6806.559       182018.86    
      5900   296.79039     -58437.648     -58746.971      309.32223      6861.7398      182018.86    
      6000   297.02576     -58439.452     -58749.02       309.56754      6740.8717      182018.86    
      6100   300.26227     -58436.588     -58749.529      312.94071      6793.4999      182018.86    
      6200   303.49037     -58430.742     -58747.047      316.30512      6763.9668      182018.86    
      6300   302.16571     -58428.026     -58742.95       314.92452      6923.1381      182018.86    
      6400   300.00275     -58431.362     -58744.033      312.67023      6832.9185      182018.86    
      6500   302.31645     -58435.011     -58750.093      315.08162      6765.2609      182018.86    
      6600   295.27757     -58439.159     -58746.904      307.74553      6775.5798      182018.86    
      6700   298.23655     -58440.163     -58750.992      310.82945      6745.9689      182018.86    
      6800   299.76156     -58437.523     -58749.942      312.41886      6727.5961      182018.86    
      6900   297.4199      -58432.001     -58741.979      309.97832      6882.1206      182018.86    
      7000   305.51424     -58427.496     -58745.911      318.41444      6837.5998      182018.86    
      7100   302.96225     -58430.509     -58746.263      315.75469      6804.1037      182018.86    
      7200   298.61303     -58435.477     -58746.698      311.22183      6801.9527      182018.86    
      7300   296.72805     -58438.466     -58747.724      309.25726      6762.2202      182018.86    
      7400   297.48908     -58438.428     -58748.479      310.05042      6820.3052      182018.86    
      7500   301.56063     -58433.947     -58748.241      314.29389      6843.094       182018.86    
      7600   301.76952     -58431.259     -58745.77       314.51161      6846.681       182018.86    
      7700   301.22702     -58432.512     -58746.458      313.94619      6801.4665      182018.86    
      7800   303.75645     -58433.42      -58750.002      316.58243      6821.5659      182018.86    
      7900   295.06549     -58436.358     -58743.882      307.5245       6835.4745      182018.86    
      8000   299.21987     -58435.532     -58747.387      311.85429      6851.3863      182018.86    
      8100   302.3144      -58433.406     -58748.485      315.07949      6816.073       182018.86    
      8200   302.1921      -58434.147     -58749.1        314.95203      6819.5199      182018.86    
      8300   297.1518      -58436.701     -58746.4        309.69891      6761.8993      182018.86    
      8400   299.86211     -58436.117     -58748.641      312.52365      6801.8293      182018.86    
      8500   296.81249     -58435.043     -58744.388      309.34527      6833.0293      182018.86    
      8600   304.7355      -58430.414     -58748.017      317.60282      6836.362       182018.86    
      8700   299.35232     -58431.292     -58743.284      311.99233      6916.1321      182018.86    
      8800   299.99376     -58433.704     -58746.365      312.66086      6847.7181      182018.86    
      8900   302.94312     -58435.883     -58751.618      315.73475      6765.0027      182018.86    
      9000   296.7014      -58437.598     -58746.828      309.22948      6775.3307      182018.86    
      9100   296.72219     -58435.595     -58744.846      309.25115      6845.9984      182018.86    
      9200   303.68436     -58433.241     -58749.748      316.5073       6811.9494      182018.86    
      9300   300.39393     -58433.782     -58746.86       313.07793      6776.6992      182018.86    
      9400   301.42856     -58432.823     -58746.979      314.15624      6781.0013      182018.86    
      9500   298.63296     -58433.365     -58744.607      311.2426       6889.6477      182018.86    
      9600   296.69337     -58434.777     -58743.998      309.22111      6878.58        182018.86    
      9700   300.65603     -58435.377     -58748.728      313.3511       6802.4966      182018.86    
      9800   301.32991     -58436.772     -58750.826      314.05343      6762.0735      182018.86    
      9900   302.43823     -58436.443     -58751.652      315.20855      6754.9194      182018.86    
     10000   296.46652     -58434.801     -58743.785      308.98468      6863.503       182018.86    
     10100   300.8789      -58430.207     -58743.79       313.58338      6922.5654      182018.86    
     10200   301.68109     -58429.989     -58744.408      314.41944      6905.1794      182018.86    
     10300   303.53338     -58433.448     -58749.798      316.34994      6810.4343      182018.86    
     10400   296.77773     -58439.063     -58748.372      309.30904      6766.5684      182018.86    
     10500   295.82287     -58439.708     -58748.021      308.31386      6802.8328      182018.86    
     10600   297.31343     -58433.907     -58743.774      309.86735      6862.3631      182018.86    
     10700   301.32995     -58431.278     -58745.331      314.05347      6894.5332      182018.86    
     10800   301.91685     -58432.7       -58747.365      314.66516      6798.7456      182018.86    
     10900   299.06569     -58436.641     -58748.335      311.69361      6805.8305      182018.86    
     11000   297.96387     -58438.917     -58749.463      310.54526      6786.2209      182018.86    
     11100   297.66836     -58432.647     -58742.884      310.23727      6933.7794      182018.86    
     11200   304.91247     -58426.72      -58744.508      317.78727      6899.8718      182018.86    
     11300   304.50977     -58430.357     -58747.725      317.36756      6853.942       182018.86    
     11400   295.20409     -58436.888     -58744.557      307.66895      6822.2742      182018.86    
     11500   302.57825     -58436.245     -58751.599      315.35448      6788.7648      182018.86    
     11600   299.44946     -58436.27      -58748.363      312.09358      6820.7236      182018.86    
     11700   298.42301     -58433.648     -58744.672      311.02379      6852.4388      182018.86    
     11800   302.92864     -58426.785     -58742.504      315.71967      6944.4752      182018.86    
     11900   301.83568     -58427.223     -58741.803      314.58055      6934.8891      182018.86    
     12000   301.02148     -58432.405     -58746.137      313.73197      6857.442       182018.86    
     12100   298.90002     -58435.747     -58747.268      311.52094      6803.8616      182018.86    
     12200   298.22404     -58435.995     -58746.811      310.81642      6841.3372      182018.86    
     12300   300.57872     -58434.313     -58747.583      313.27052      6815.0567      182018.86    
     12400   304.2243      -58429.658     -58746.728      317.07004      6868.3351      182018.86    
     12500   303.06115     -58426.142     -58742          315.85777      6919.7235      182018.86    
     12600   300.20504     -58431.077     -58743.958      312.88106      6938.9102      182018.86    
     12700   298.60227     -58435.46      -58746.671      311.21062      6846.8012      182018.86    
     12800   302.41594     -58435.822     -58751.007      315.18531      6830.5106      182018.86    
     12900   298.1045      -58436.508     -58747.2        310.69183      6873.4137      182018.86    
     13000   300.32881     -58430.948     -58743.958      313.01005      6928.1565      182018.86    
     13100   301.77587     -58429.091     -58743.609      314.51822      6881.6875      182018.86    
     13200   303.96484     -58430.318     -58747.118      316.79962      6872.7085      182018.86    
     13300   301.12922     -58433.341     -58747.186      313.84426      6820.3585      182018.86    
     13400   299.26163     -58435.42      -58747.318      311.89782      6785.0933      182018.86    
     13500   298.28346     -58436.754     -58747.632      310.87834      6815.0865      182018.86    
     13600   301.44949     -58435.597     -58749.775      314.17806      6818.3122      182018.86    
     13700   299.64811     -58434.627     -58746.927      312.30062      6879.7465      182018.86    
     13800   298.98723     -58434.184     -58745.796      311.61183      6883.2692      182018.86    
     13900   303.35088     -58432.87      -58749.029      316.15973      6833.5692      182018.86    
     14000   298.44429     -58435.295     -58746.341      311.04597      6785.3212      182018.86    
     14100   297.55183     -58438.472     -58748.588      310.11583      6784.7229      182018.86    
     14200   294.14711     -58441.719     -58748.287      306.56733      6791.327       182018.86    
     14300   297.53729     -58440.916     -58751.016      310.10067      6779.1588      182018.86    
     14400   299.62525     -58434.288     -58746.565      312.27679      6806.2778      182018.86    
     14500   303.20292     -58430.759     -58746.764      316.00552      6815.5568      182018.86    
     14600   299.85288     -58432.33      -58744.844      312.51403      6841.8829      182018.86    
     14700   299.16433     -58436.545     -58748.341      311.79641      6826.8166      182018.86    
     14800   294.95364     -58441.166     -58748.574      307.40793      6762.8831      182018.86    
     14900   300.54532     -58438.731     -58751.967      313.23571      6757.1603      182018.86    
     15000   305.17151     -58432.672     -58750.729      318.05724      6761.5513      182018.86    
     15100   299.50999     -58424.523     -58736.68       312.15667      7028.5232      182018.86    
     15200   303.17541     -58426.188     -58742.165      315.97685      6960.8508      182018.86    
     15300   300.41482     -58433.191     -58746.291      313.0997       6877.7288      182018.86    
     15400   300.1006      -58436.986     -58749.758      312.77221      6739.3813      182018.86    
     15500   296.11918     -58437.319     -58745.941      308.62268      6810.2007      182018.86    
     15600   300.18788     -58432.896     -58745.759      312.86317      6931.2671      182018.86    
     15700   303.2824      -58429.294     -58745.382      316.08836      6860.0745      182018.86    
     15800   305.64306     -58426.351     -58744.9        318.5487       6844.2428      182018.86    
     15900   300.21013     -58430.543     -58743.429      312.88637      6903.1516      182018.86    
     16000   301.03297     -58436.261     -58750.005      313.74395      6747.5044      182018.86    
     16100   298.43828     -58438.807     -58749.846      311.0397       6829.9929      182018.86    
     16200   298.66538     -58437.102     -58748.378      311.27639      6753.9942      182018.86    
     16300   302.65941     -58430.877     -58746.317      315.43906      6867.756       182018.86    
     16400   302.52128     -58427.884     -58743.179      315.2951       6877.7602      182018.86    
     16500   302.36609     -58430.399     -58745.532      315.13337      6846.6517      182018.86    
     16600   294.29259     -58437.997     -58744.716      306.71896      6770.9832      182018.86    
     16700   301.57353     -58437.436     -58751.743      314.30734      6719.2597      182018.86    
     16800   299.96877     -58436.152     -58748.787      312.63482      6795.9835      182018.86    
     16900   298.59307     -58432.878     -58744.079      311.20103      6881.0923      182018.86    
     17000   302.81366     -58430.463     -58746.063      315.59983      6937.2218      182018.86    
     17100   299.33029     -58434.655     -58746.625      311.96938      6826.6727      182018.86    
     17200   298.0465      -58439.918     -58750.549      310.63137      6762.8382      182018.86    
     17300   297.65281     -58439.539     -58749.76       310.22107      6774.0184      182018.86    
     17400   299.53595     -58433.737     -58745.921      312.18372      6852.447       182018.86    
     17500   299.1521      -58431.793     -58743.576      311.78367      6883.7851      182018.86    
     17600   302.41773     -58431.769     -58746.957      315.18718      6855.0762      182018.86    
     17700   300.91606     -58434.19      -58747.812      313.6221       6793.5367      182018.86    
     17800   296.79375     -58437.889     -58747.215      309.32574      6813.7656      182018.86    
     17900   297.72063     -58438.854     -58749.146      310.29175      6801.3869      182018.86    
     18000   301.33302     -58437.404     -58751.46       314.05667      6723.3194      182018.86    
     18100   302.95314     -58431.416     -58747.162      315.7452       6832.6921      182018.86    
     18200   298.84967     -58429.688     -58741.157      311.46846      6915.5818      182018.86    
     18300   299.00109     -58431.487     -58743.113      311.62628      6865.1942      182018.86    
     18400   303.30773     -58436.174     -58752.289      316.11476      6750.7538      182018.86    
     18500   294.34161     -58442.542     -58749.312      306.77005      6740.5078      182018.86    
     18600   294.3018      -58440.503     -58747.231      306.72856      6800.0286      182018.86    
     18700   299.98878     -58435.426     -58748.082      312.65567      6808.2789      182018.86    
     18800   301.22547     -58432.488     -58746.433      313.94458      6861.3489      182018.86    
     18900   303.81354     -58431.525     -58748.167      316.64192      6856.4105      182018.86    
     19000   295.21973     -58438.138     -58745.823      307.68525      6794.0767      182018.86    
     19100   300.74975     -58438.542     -58751.991      313.44877      6759.2801      182018.86    
     19200   296.65034     -58437.451     -58746.627      309.17627      6798.7021      182018.86    
     19300   301.26684     -58433.812     -58747.8        313.9877       6841.7227      182018.86    
     19400   300.92309     -58432.486     -58746.115      313.62943      6852.6648      182018.86    
     19500   301.32788     -58433.287     -58747.338      314.05131      6845.7017      182018.86    
     19600   296.87609     -58438.045     -58747.457      309.41154      6758.9916      182018.86    
     19700   296.14651     -58441.121     -58749.773      308.65117      6723.7008      182018.86    
     19800   298.34655     -58439.041     -58749.985      310.9441       6747.6281      182018.86    
     19900   301.98299     -58431.742     -58746.476      314.73408      6874.213       182018.86    
     20000   297.75263     -58432.244     -58742.569      310.3251       6884.5298      182018.86    
     20100   301.1219      -58434.337     -58748.173      313.83664      6857.9999      182018.86    
     20200   297.97        -58438.116     -58748.668      310.55165      6771.6349      182018.86    
     20300   297.84772     -58438.884     -58749.308      310.42421      6797.7888      182018.86    
     20400   300.76714     -58433.382     -58746.849      313.46689      6850.9059      182018.86    
     20500   300.42694     -58429.26      -58742.372      313.11233      6899.1778      182018.86    
     20600   303.02575     -58429.919     -58745.74       315.82088      6939.0433      182018.86    
     20700   299.75774     -58435.734     -58748.149      312.41488      6814.2593      182018.86    
     20800   300.01899     -58438.158     -58750.845      312.68716      6785.5757      182018.86    
     20900   296.85479     -58438.172     -58747.562      309.38935      6763.7467      182018.86    
     21000   300.30635     -58434.766     -58747.753      312.98665      6821.8445      182018.86    
     21100   299.36595     -58434.788     -58746.794      312.00655      6832.4678      182018.86    
     21200   300.76163     -58433.653     -58747.115      313.46116      6863.1472      182018.86    
     21300   303.97133     -58432.373     -58749.179      316.80638      6817.3318      182018.86    
     21400   295.8956      -58438.484     -58746.874      308.38966      6790.0907      182018.86    
     21500   297.38133     -58442.425     -58752.363      309.93812      6795.7585      182018.86    
     21600   293.38101     -58443.927     -58749.696      305.76889      6747.2159      182018.86    
     21700   303.98005     -58435.109     -58751.925      316.81547      6723.5725      182018.86    
     21800   299.79045     -58433.844     -58746.293      312.44897      6860.4996      182018.86    
     21900   299.57952     -58431.285     -58743.515      312.22913      6876.5094      182018.86    
     22000   302.00801     -58429.351     -58744.111      314.76017      6901.5459      182018.86    
     22100   301.60482     -58432.883     -58747.223      314.33995      6834.5869      182018.86    
     22200   296.45124     -58440.518     -58749.487      308.96876      6737.1031      182018.86    
     22300   298.11222     -58439.23      -58749.929      310.69987      6730.1255      182018.86    
     22400   298.44459     -58436.483     -58747.529      311.04628      6818.2146      182018.86    
     22500   300.85188     -58432.413     -58745.968      313.55522      6805.1845      182018.86    
     22600   300.97853     -58430.708     -58744.395      313.68721      6829.0783      182018.86    
     22700   300.85485     -58433.475     -58747.034      313.55831      6847.3733      182018.86    
     22800   294.53365     -58442.1       -58749.071      306.9702       6730.4248      182018.86    
     22900   296.40528     -58443.152     -58752.072      308.92086      6727.4166      182018.86    
     23000   300.9314      -58438.367     -58752.005      313.63809      6746.5978      182018.86    
     23100   296.26725     -58434.483     -58743.26       308.77701      6829.4377      182018.86    
     23200   301.1897      -58431.002     -58744.909      313.90729      6893.5511      182018.86    
     23300   302.02459     -58430.914     -58745.691      314.77744      6901.7048      182018.86    
     23400   300.1193      -58436.646     -58749.437      312.7917       6833.344       182018.86    
     23500   295.31569     -58440.782     -58748.567      307.78526      6733.9156      182018.86    
     23600   302.72126     -58436.98      -58752.483      315.50352      6748.7239      182018.86    
     23700   300.04743     -58433.529     -58746.246      312.71679      6794.5424      182018.86    
     23800   300.69438     -58430.603     -58743.994      313.39107      6870.8297      182018.86    
     23900   301.69664     -58431.849     -58746.285      314.43565      6855.3242      182018.86    
     24000   300.351       -58433.791     -58746.825      313.03318      6822.2331      182018.86    
     24100   304.02798     -58434.393     -58751.259      316.86543      6774.0543      182018.86    
     24200   294.46558     -58436.815     -58743.714      306.89926      6879.0111      182018.86    
     24300   301.03478     -58434.307     -58748.053      313.74584      6833.5731      182018.86    
     24400   299.97381     -58432.275     -58744.915      312.64007      6828.7614      182018.86    
     24500   306.18864     -58426.985     -58746.102      319.11732      6863.2115      182018.86    
     24600   301.46086     -58429.189     -58743.379      314.18991      6946.4801      182018.86    
     24700   297.11813     -58435.258     -58744.922      309.66381      6883.915       182018.86    
     24800   300.13751     -58436.03      -58748.841      312.81068      6794.8226      182018.86    
     24900   300.33162     -58436.397     -58749.41       313.01298      6765.6795      182018.86    
     25000   299.18967     -58435.963     -58747.786      311.82282      6861.1516      182018.86    
     25100   302.43762     -58429.263     -58744.471      315.20792      6901.2911      182018.86    
     25200   300.64812     -58426.83      -58740.173      313.34285      6963.842       182018.86    
     25300   304.70238     -58428.546     -58746.114      317.5683       6831.2195      182018.86    
     25400   300.86462     -58436.125     -58749.693      313.56849      6760.8275      182018.86    
     25500   299.21258     -58437.674     -58749.521      311.8467       6769.2003      182018.86    
     25600   300.68481     -58436.319     -58749.7        313.38109      6785.5312      182018.86    
     25700   301.46385     -58431.586     -58745.779      314.19302      6871.4509      182018.86    
     25800   302.28957     -58427.725     -58742.778      315.05361      6932.8909      182018.86    
     25900   300.66888     -58429.938     -58743.302      313.36449      6908.9942      182018.86    
     26000   298.85198     -58437.619     -58749.09       311.47087      6804.1535      182018.86    
     26100   301.97368     -58439.151     -58753.876      314.72438      6656.8101      182018.86    
     26200   297.24375     -58437.241     -58747.036      309.79473      6789.9561      182018.86    
     26300   300.14364     -58431.59      -58744.407      312.81707      6880.6102      182018.86    
     26400   300.22358     -58430.7       -58743.6        312.90039      6934.2168      182018.86    
     26500   300.79851     -58435.523     -58749.023      313.49959      6779.0582      182018.86    
     26600   299.25927     -58438.196     -58750.091      311.89536      6774.7         182018.86    
     26700   301.46931     -58436.251     -58750.45       314.19872      6755.2842      182018.86    
     26800   295.90671     -58435.549     -58743.95       308.40123      6862.3611      182018.86    
     26900   302.22293     -58431.18      -58746.164      314.98416      6883.7446      182018.86    
     27000   305.9687      -58424.145     -58743.033      318.88809      6931.4348      182018.86    
     27100   305.57702     -58422.909     -58741.389      318.47987      6951.3877      182018.86    
     27200   300.25342     -58429.758     -58742.69       312.93148      6913.9512      182018.86    
     27300   299.59421     -58433.449     -58745.693      312.24444      6880.6764      182018.86    
     27400   300.50789     -58436.626     -58749.823      313.1967       6752.8154      182018.86    
     27500   299.51778     -58438.051     -58750.216      312.16478      6742.2685      182018.86    
     27600   299.7374      -58435.96      -58748.354      312.39368      6833.6885      182018.86    
     27700   301.73041     -58429.596     -58744.067      314.47084      6900.019       182018.86    
     27800   302.7739      -58427.369     -58742.927      315.55839      6915.7018      182018.86    
     27900   302.79508     -58430.456     -58746.037      315.58046      6880.556       182018.86    
     28000   301.50755     -58434.667     -58748.906      314.23857      6798.369       182018.86    
     28100   299.14288     -58435.876     -58747.65       311.77405      6815.5869      182018.86    
     28200   298.36057     -58435.647     -58746.606      310.95871      6825.3849      182018.86    
     28300   300.73515     -58434.327     -58747.76       313.43356      6830.9035      182018.86    
     28400   302.68134     -58432.11      -58747.572      315.46193      6816.6924      182018.86    
     28500   300.10872     -58428.627     -58741.408      312.78068      6946.438       182018.86    
     28600   301.40419     -58426.516     -58740.647      314.13084      6907.9892      182018.86    
     28700   302.61072     -58432.215     -58747.603      315.38833      6776.8933      182018.86    
     28800   299.08732     -58437.209     -58748.925      311.71615      6823.5017      182018.86    
     28900   297.77651     -58437.228     -58747.578      310.34999      6800.9804      182018.86    
     29000   301.5589      -58433.342     -58747.634      314.29209      6838.1659      182018.86    
     29100   297.98452     -58430.475     -58741.041      310.56678      6939.2367      182018.86    
     29200   305.04509     -58426.239     -58744.165      317.92548      6880.4616      182018.86    
     29300   303.98647     -58427.548     -58744.37       316.82217      6845.4744      182018.86    
     29400   303.3974      -58434.515     -58750.723      316.20822      6781.7175      182018.86    
     29500   298.33305     -58438.075     -58749.005      310.93003      6777.6778      182018.86    
     29600   295.24559     -58438.358     -58746.07       307.7122       6817.4209      182018.86    
     29700   303.03755     -58433.721     -58749.554      315.83318      6818.2347      182018.86    
     29800   303.52125     -58427.783     -58744.12       316.3373       6865.0566      182018.86    
     29900   304.65848     -58425.304     -58742.827      317.52255      6991.036       182018.86    
     30000   298.46015     -58428.776     -58739.839      311.0625       6923.7653      182018.86    
     30100   300.53128     -58431.174     -58744.395      313.22108      6883.7172      182018.86    
     30200   301.50495     -58435.467     -58749.702      314.23586      6792.7783      182018.86    
     30300   300.1305      -58437.761     -58750.565      312.80338      6728.7294      182018.86    
     30400   296.1318      -58437.44      -58746.076      308.63583      6854.5034      182018.86    
     30500   299.17466     -58430.773     -58742.58       311.80718      6891.5671      182018.86    
     30600   304.87693     -58425.754     -58743.504      317.75022      6941.1755      182018.86    
     30700   305.97137     -58429.442     -58748.333      318.89087      6819.8995      182018.86    
     30800   300.04109     -58434.512     -58747.222      312.71019      6809.1502      182018.86    
     30900   298.07925     -58434.982     -58745.648      310.66551      6846.5435      182018.86    
     31000   296.67492     -58434.569     -58743.771      309.20189      6862.1403      182018.86    
     31100   303.51931     -58432.598     -58748.934      316.33527      6828.183       182018.86    
     31200   299.49277     -58430.569     -58742.708      312.13872      6883.7515      182018.86    
     31300   301.50333     -58429.736     -58743.97       314.23417      6943.6073      182018.86    
     31400   300.08955     -58433.907     -58746.668      312.76069      6866.2074      182018.86    
     31500   297.84331     -58439.373     -58749.792      310.41961      6771.7584      182018.86    
     31600   299.5039      -58438.341     -58750.491      312.15031      6747.6093      182018.86    
     31700   297.13714     -58435.129     -58744.813      309.68362      6897.1725      182018.86    
     31800   301.78174     -58431.498     -58746.023      314.52434      6861.3761      182018.86    
     31900   302.42835     -58432.274     -58747.472      315.19826      6843.7948      182018.86    
     32000   301.72438     -58434.739     -58749.204      314.46455      6838.8997      182018.86    
     32100   295.44206     -58438.423     -58746.34       307.91697      6833.9232      182018.86    
     32200   299.84117     -58438.582     -58751.084      312.50183      6826.365       182018.86    
     32300   298.18861     -58437.526     -58748.305      310.77949      6809.5742      182018.86    
     32400   301.74565     -58431.465     -58745.952      314.48673      6874.6015      182018.86    
     32500   303.70399     -58428.779     -58745.306      316.52775      6836.4112      182018.86    
     32600   300.13293     -58431.012     -58743.818      312.80591      6908.5896      182018.86    
     32700   298.14078     -58437.239     -58747.968      310.72964      6822.3497      182018.86    
     32800   300.1441      -58440.469     -58753.286      312.81755      6732.6886      182018.86    
     32900   299.53989     -58438.671     -58750.858      312.18783      6759.3721      182018.86    
     33000   295.5406      -58436.758     -58744.777      308.01967      6910.689       182018.86    
     33100   301.68571     -58433.522     -58747.947      314.42426      6765.2005      182018.86    
     33200   301.7494      -58433.098     -58747.589      314.49064      6862.815       182018.86    
     33300   300.94187     -58433.094     -58746.743      313.649        6751.6089      182018.86    
     33400   302.14255     -58429.496     -58744.397      314.90038      6941.08        182018.86    
     33500   299.79222     -58429.098     -58741.549      312.45081      6929.4479      182018.86    
     33600   302.88163     -58433.73      -58749.401      315.67067      6836.4396      182018.86    
     33700   299.80632     -58437.589     -58750.054      312.46551      6713.0188      182018.86    
     33800   295.17927     -58438.055     -58745.698      307.64308      6854.8735      182018.86    
     33900   299.24179     -58434.076     -58745.953      311.87714      6834.7875      182018.86    
     34000   308.06112     -58426.954     -58748.023      321.06886      6845.5587      182018.86    
     34100   298.8809      -58428.918     -58740.419      311.50102      6946.0753      182018.86    
     34200   300.52796     -58431.262     -58744.48       313.21762      6855.1818      182018.86    
     34300   300.46919     -58435.352     -58748.508      313.15637      6824.842       182018.86    
     34400   299.00509     -58437.686     -58749.316      311.63045      6778.3646      182018.86    
     34500   299.39992     -58436.733     -58748.775      312.04195      6727.1683      182018.86    
     34600   299.6296      -58435.454     -58747.735      312.28133      6821.2336      182018.86    
     34700   300.29813     -58434.876     -58747.854      312.97808      6801.9528      182018.86    
     34800   298.50764     -58433.584     -58744.696      311.11199      6900.3626      182018.86    
     34900   302.16544     -58430.459     -58745.383      314.92424      6821.3997      182018.86    
     35000   303.24838     -58430.173     -58746.226      316.0529       6892.4301      182018.86    
     35100   299.99575     -58433.944     -58746.607      312.66293      6788.7164      182018.86    
     35200   295.17366     -58437.757     -58745.394      307.63723      6809.4723      182018.86    
     35300   303.24134     -58435.969     -58752.015      316.04557      6776.2417      182018.86    
     35400   297.69685     -58436.864     -58747.131      310.26697      6800.4665      182018.86    
     35500   301.65705     -58433.575     -58747.969      314.39438      6817.9476      182018.86    
     35600   298.76666     -58431.668     -58743.049      311.38195      6901.3416      182018.86    
     35700   303.80005     -58430.117     -58746.745      316.62787      6855.4628      182018.86    
     35800   303.92531     -58430.201     -58746.959      316.75842      6857.1131      182018.86    
     35900   294.80812     -58438.064     -58745.321      307.25626      6793.6925      182018.86    
     36000   299.87871     -58437.786     -58750.327      312.54095      6776.6606      182018.86    
     36100   297.94384     -58435.458     -58745.982      310.52439      6849.5498      182018.86    
     36200   301.66046     -58429.755     -58744.153      314.39793      6864.991       182018.86    
     36300   303.03786     -58428.935     -58744.768      315.8335       6883.7009      182018.86    
     36400   300.83067     -58432.641     -58746.174      313.53311      6847.4115      182018.86    
     36500   300.23169     -58433.023     -58745.932      312.90884      6818.2909      182018.86    
     36600   301.69255     -58433.27      -58747.702      314.43138      6832.966       182018.86    
     36700   296.44024     -58436.628     -58745.585      308.9573       6761.8795      182018.86    
     36800   300.60467     -58436.884     -58750.182      313.29757      6772.4657      182018.86    
     36900   298.24873     -58434.443     -58745.285      310.84215      6835.2327      182018.86    
     37000   303.37935     -58428.94      -58745.129      316.18941      6900.5656      182018.86    
     37100   302.89502     -58429.746     -58745.43       315.68463      6862.6301      182018.86    
     37200   298.93385     -58436.198     -58747.754      311.5562       6754.0814      182018.86    
     37300   299.31269     -58437.929     -58749.88       311.95103      6777.7006      182018.86    
     37400   298.44467     -58436.934     -58747.98       311.04636      6779.0911      182018.86    
     37500   301.94608     -58433.713     -58748.409      314.69562      6774.7645      182018.86    
     37600   300.61159     -58431.319     -58744.624      313.30477      6856.1154      182018.86    
     37700   306.25718     -58424.486     -58743.675      319.18875      6887.9487      182018.86    
     37800   302.86314     -58423.553     -58739.204      315.6514       6975.4177      182018.86    
     37900   304.0225      -58430.815     -58747.675      316.85972      6844.3853      182018.86    
     38000   298.32131     -58434.612     -58745.53       310.9178       6791.9272      182018.86    
     38100   303.49595     -58434.43      -58750.741      316.31093      6820.5382      182018.86    
     38200   298.22573     -58436.874     -58747.692      310.81818      6862.1715      182018.86    
     38300   295.83125     -58437.949     -58746.271      308.32259      6816.113       182018.86    
     38400   302.91164     -58432.562     -58748.263      315.70195      6798.6807      182018.86    
     38500   303.99604     -58428.565     -58745.397      316.83213      6881.7371      182018.86    
     38600   299.67136     -58431.075     -58743.4        312.32484      6891.6121      182018.86    
     38700   298.78678     -58435.984     -58747.387      311.40292      6856.7426      182018.86    
     38800   299.6948      -58436.983     -58749.332      312.34928      6816.954       182018.86    
     38900   298.13375     -58436.003     -58746.725      310.72231      6782.8148      182018.86    
     39000   302.6063      -58432.733     -58748.117      315.38371      6764.8988      182018.86    
     39100   302.21005     -58430.057     -58745.028      314.97073      6899.9446      182018.86    
     39200   301.2431      -58428.002     -58741.965      313.96296      6926.3293      182018.86    
     39300   297.42311     -58433.571     -58743.553      309.98166      6854.0341      182018.86    
     39400   299.11731     -58437.777     -58749.524      311.7474       6788.0436      182018.86    
     39500   297.7014      -58438.965     -58749.237      310.27171      6765.204       182018.86    
     39600   302.38197     -58434.533     -58749.683      315.14992      6753.8319      182018.86    
     39700   303.09398     -58427.883     -58743.775      315.89199      6933.2904      182018.86    
     39800   303.93817     -58427.83      -58744.602      316.77182      6906.8941      182018.86    
     39900   300.10256     -58431.35      -58744.124      312.77425      6857.3316      182018.86    
     40000   302.04099     -58434.18      -58748.974      314.79453      6815.7867      182018.86    
     40100   296.52403     -58436.917     -58745.961      309.04462      6810.1319      182018.86    
     40200   302.33171     -58435.614     -58750.712      315.09753      6830.3527      182018.86    
     40300   299.35773     -58436.241     -58748.239      311.99797      6839.7845      182018.86    
     40400   296.3978      -58435.376     -58744.29       308.91306      6875.1413      182018.86    
     40500   300.9117      -58433.809     -58747.427      313.61756      6885.2072      182018.86    
     40600   300.48529     -58434.208     -58747.381      313.17314      6853.8255      182018.86    
     40700   296.4996      -58435.024     -58744.043      309.01916      6879.1104      182018.86    
     40800   301.41147     -58432.054     -58746.193      314.13843      6936.4032      182018.86    
     40900   305.30566     -58428.865     -58747.062      318.19706      6894.7645      182018.86    
     41000   298.41839     -58433.052     -58744.071      311.01897      6866.5223      182018.86    
     41100   302.34189     -58437.09      -58752.198      315.10814      6794.3759      182018.86    
     41200   292.51689     -58441.575     -58746.443      304.86829      6813.319       182018.86    
     41300   299.26883     -58438.232     -58750.137      311.90532      6826.1275      182018.86    
     41400   301.06035     -58435.359     -58749.131      313.77249      6825.1401      182018.86    
     41500   298.77134     -58434.037     -58745.423      311.38682      6855.3365      182018.86    
     41600   301.71693     -58431.786     -58746.243      314.45679      6890.0391      182018.86    
     41700   296.72342     -58434.67      -58743.922      309.25243      6848.4886      182018.86    
     41800   298.71187     -58438.315     -58749.64       311.32484      6737.2023      182018.86    
     41900   302.41288     -58439.098     -58754.28       315.18213      6656.8998      182018.86    
     42000   297.73137     -58435.339     -58745.642      310.30294      6836.6043      182018.86    
     42100   301.1275      -58429.051     -58742.894      313.84247      6969.9436      182018.86    
     42200   302.27339     -58428.205     -58743.242      315.03674      6904.0728      182018.86    
     42300   301.6567      -58433.312     -58747.706      314.39401      6862.7318      182018.86    
     42400   299.68522     -58437.47      -58749.809      312.33929      6820.6446      182018.86    
     42500   297.54694     -58438.523     -58748.634      310.11072      6784.7384      182018.86    
     42600   298.80143     -58435.988     -58747.406      311.41819      6824.1458      182018.86    
     42700   305.4514      -58429.708     -58748.057      318.34895      6834.7365      182018.86    
     42800   302.83816     -58430.542     -58746.167      315.62537      6822.2476      182018.86    
     42900   297.17082     -58433.769     -58743.488      309.71872      6827.4668      182018.86    
     43000   301.37067     -58434.63      -58748.726      314.09591      6819.273       182018.86    
     43100   297.64307     -58438.462     -58748.673      310.21092      6787.2358      182018.86    
     43200   298.63947     -58442.797     -58754.047      311.24938      6710.678       182018.86    
     43300   294.08902     -58443.055     -58749.562      306.5068       6751.1563      182018.86    
     43400   299.49        -58435.383     -58747.519      312.13583      6792.1185      182018.86    
     43500   297.90336     -58432.688     -58743.17       310.48219      6919.8088      182018.86    
     43600   305.691       -58429.888     -58748.487      318.59867      6812.1011      182018.86    
     43700   298.39479     -58433.987     -58744.981      310.99438      6853.529       182018.86    
     43800   300.11467     -58439.451     -58752.238      312.78687      6734.3241      182018.86    
     43900   291.84499     -58443.514     -58747.682      304.16802      6734.3624      182018.86    
     44000   298.97384     -58435.38      -58746.978      311.59787      6814.023       182018.86    
     44100   302.98907     -58431.775     -58747.558      315.78265      6800.3673      182018.86    
     44200   302.51661     -58433.303     -58748.594      315.29024      6805.0907      182018.86    
     44300   295.69224     -58436.56      -58744.738      308.17771      6860.2135      182018.86    
     44400   298.82313     -58438.147     -58749.588      311.4408       6865.5239      182018.86    
     44500   297.16966     -58437.558     -58747.275      309.71752      6744.503       182018.86    
     44600   303.45934     -58431.48      -58747.753      316.27277      6878.7182      182018.86    
     44700   297.35279     -58432.1       -58742.008      309.90838      6898.7526      182018.86    
     44800   302.0063      -58432.821     -58747.579      314.75838      6828.9584      182018.86    
     44900   299.86939     -58437.037     -58749.568      312.53123      6776.6522      182018.86    
     45000   296.30321     -58444.265     -58753.08       308.81448      6672.1292      182018.86    
     45100   293.38614     -58447.472     -58753.246      305.77424      6650.2973      182018.86    
     45200   297.6332      -58439.014     -58749.214      310.20063      6805.0509      182018.86    
     45300   301.68292     -58433.995     -58748.416      314.42134      6776.9259      182018.86    
     45400   300.94481     -58431.426     -58745.078      313.65207      6865.8827      182018.86    
     45500   299.08959     -58430.858     -58742.576      311.71851      6937.6949      182018.86    
     45600   301.35926     -58433.937     -58748.021      314.08402      6816.8332      182018.86    
     45700   299.18721     -58438.759     -58750.579      311.82025      6776.48        182018.86    
     45800   296.6602      -58438.804     -58747.991      309.18655      6807.9386      182018.86    
     45900   304.37637     -58432.842     -58750.071      317.22852      6779.8607      182018.86    
     46000   299.3486      -58430.928     -58742.916      311.98846      6910.6318      182018.86    
     46100   302.25242     -58432.56      -58747.575      315.01489      6829.729       182018.86    
     46200   297.42588     -58436.112     -58746.097      309.98455      6851.9689      182018.86    
     46300   299.70705     -58435.506     -58747.868      312.36205      6813.9585      182018.86    
     46400   301.10396     -58431.269     -58745.087      313.81794      6844.55        182018.86    
     46500   302.65949     -58426.203     -58741.642      315.43915      6995.29        182018.86    
     46600   301.72882     -58429.108     -58743.577      314.46918      6899.6024      182018.86    
     46700   300.60147     -58434.412     -58747.707      313.29423      6887.4824      182018.86    
     46800   299.40231     -58436.049     -58748.094      312.04443      6859.0281      182018.86    
     46900   297.40035     -58436.562     -58746.52       309.95795      6905.9829      182018.86    
     47000   301.01763     -58433.767     -58747.495      313.72796      6846.669       182018.86    
     47100   304.09781     -58428.594     -58745.532      316.93821      6899.5668      182018.86    
     47200   302.12162     -58426.361     -58741.24       314.87857      7002.6028      182018.86    
     47300   298.72116     -58432.35      -58743.684      311.33452      6884.0908      182018.86    
     47400   301.42383     -58437.827     -58751.979      314.15131      6737.4766      182018.86    
     47500   297.67633     -58438.513     -58748.759      310.24558      6846.3549      182018.86    
     47600   298.92623     -58434.849     -58746.398      311.54826      6877.122       182018.86    
     47700   300.94363     -58430.517     -58744.168      313.65084      6967.3947      182018.86    
     47800   305.42512     -58427.155     -58745.477      318.32156      6904.0963      182018.86    
     47900   301.93336     -58431.427     -58746.109      314.68236      6858.2265      182018.86    
     48000   297.5449      -58438.117     -58748.226      310.1086       6865.2388      182018.86    
     48100   297.67288     -58439.7       -58749.942      310.24199      6808.6595      182018.86    
     48200   296.23037     -58436.795     -58745.533      308.73857      6867.0889      182018.86    
     48300   307.12486     -58431.423     -58751.516      320.09307      6785.7175      182018.86    
     48400   301.85981     -58433.023     -58747.629      314.60571      6839.3282      182018.86    
     48500   300.98762     -58433.683     -58747.379      313.69668      6854.2512      182018.86    
     48600   292.41328     -58437.405     -58742.165      304.7603       6936.5487      182018.86    
     48700   296.2173      -58440.432     -58749.157      308.72494      6751.1399      182018.86    
     48800   301.43376     -58440.635     -58754.797      314.16166      6716.6514      182018.86    
     48900   303.40366     -58435.414     -58751.629      316.21474      6750.554       182018.86    
     49000   298.29528     -58431.679     -58742.57       310.89066      6910.5788      182018.86    
     49100   298.21565     -58431.052     -58741.86       310.80767      6927.2253      182018.86    
     49200   299.14225     -58433.661     -58745.434      311.7734       6840.23        182018.86    
     49300   300.15824     -58440.823     -58753.655      312.83229      6735.8236      182018.86    
     49400   296.95722     -58442.827     -58752.323      309.49611      6723.9903      182018.86    
     49500   296.41924     -58439.034     -58747.97       308.93541      6811.802       182018.86    
     49600   297.92664     -58434.868     -58745.375      310.50646      6867.3332      182018.86    
     49700   301.60453     -58432.221     -58746.56       314.33964      6898.7098      182018.86    
     49800   300.22599     -58433.169     -58746.072      312.9029       6817.7674      182018.86    
     49900   297.34455     -58438.641     -58748.541      309.89979      6740.8047      182018.86    
     50000   297.57621     -58443.387     -58753.528      310.14123      6710.7989      182018.86    
     50100   295.13229     -58440.721     -58748.315      307.59412      6781.5455      182018.86    
     50200   298.85257     -58436.076     -58747.547      311.47148      6833.9683      182018.86    
     50300   299.23081     -58434.377     -58746.243      311.86569      6842.0231      182018.86    
     50400   305.42403     -58430.184     -58748.504      318.32042      6861.9132      182018.86    
     50500   300.80319     -58431.348     -58744.853      313.50446      6928.52        182018.86    
     50600   299.21739     -58436.401     -58748.253      311.85171      6806.5932      182018.86    
     50700   294.37143     -58441.089     -58747.89       306.80113      6815.3337      182018.86    
     50800   296.34438     -58440.75      -58749.607      308.85738      6775.8411      182018.86    
     50900   303.32608     -58435.602     -58751.736      316.13389      6709.3234      182018.86    
     51000   298.97243     -58435.434     -58747.031      311.59641      6808.0664      182018.86    
     51100   298.98803     -58433.722     -58745.335      311.61266      6931.1499      182018.86    
     51200   299.74346     -58431.005     -58743.405      312.39999      6928.6974      182018.86    
     51300   304.0108      -58430.363     -58747.211      316.84752      6869.4881      182018.86    
     51400   302.63291     -58435.323     -58750.735      315.41145      6821.9312      182018.86    
     51500   298.56813     -58438.902     -58750.077      311.17504      6770.2167      182018.86    
     51600   294.70051     -58438.95      -58746.094      307.1441       6851.967       182018.86    
     51700   303.80542     -58433.783     -58750.416      316.63347      6821.5146      182018.86    
     51800   299.85146     -58431.85      -58744.362      312.51255      6940.3444      182018.86    
     51900   300.20449     -58431.814     -58744.694      312.88049      6852.7988      182018.86    
     52000   302.19811     -58434.096     -58749.054      314.95829      6840.5307      182018.86    
     52100   297.98233     -58437.696     -58748.26       310.5645       6799.7511      182018.86    
     52200   297.38555     -58438.282     -58748.225      309.94252      6783.9104      182018.86    
     52300   299.90821     -58436.573     -58749.145      312.5717       6831.192       182018.86    
     52400   301.58455     -58430.225     -58744.544      314.31882      6864.3422      182018.86    
     52500   303.12937     -58427.657     -58743.586      315.92887      6911.2539      182018.86    
     52600   300.59192     -58431.209     -58744.493      313.28428      6871.4501      182018.86    
     52700   300.981       -58436.251     -58749.94       313.68978      6842.005       182018.86    
     52800   298.83845     -58438.368     -58749.825      311.45676      6806.2494      182018.86    
     52900   295.90617     -58436.459     -58744.86       308.40068      6851.3483      182018.86    
     53000   302.46608     -58433.765     -58749.003      315.23758      6883.8373      182018.86    
     53100   300.74484     -58434.458     -58747.902      313.44366      6789.8046      182018.86    
     53200   303.0402      -58431.099     -58746.935      315.83593      6881.538       182018.86    
     53300   302.49906     -58425.668     -58740.94       315.27195      6960.3625      182018.86    
     53400   302.46912     -58428.025     -58743.266      315.24075      6939.8682      182018.86    
     53500   301.55455     -58436.608     -58750.895      314.28756      6780.8444      182018.86    
     53600   297.43983     -58437.271     -58747.27       309.99909      6805.278       182018.86    
     53700   300.83368     -58434.064     -58747.6        313.53625      6866.9007      182018.86    
     53800   300.47367     -58430.74      -58743.901      313.16104      6853.518       182018.86    
     53900   302.45739     -58427.929     -58743.158      315.22852      6902.4841      182018.86    
     54000   300.1047      -58433.19      -58745.967      312.77648      6843.6396      182018.86    
     54100   298.48319     -58439.462     -58750.548      311.0865       6756.2829      182018.86    
     54200   300.11586     -58438.015     -58750.803      312.78812      6768.7201      182018.86    
     54300   300.44079     -58433.86      -58746.987      313.12676      6877.0124      182018.86    
     54400   300.20589     -58431.733     -58744.615      312.88194      6887.4189      182018.86    
     54500   301.10951     -58431.981     -58745.805      313.82373      6811.2362      182018.86    
     54600   300.64833     -58437.018     -58750.361      313.34307      6863.6797      182018.86    
     54700   292.98435     -58441.597     -58746.952      305.35548      6843.9695      182018.86    
     54800   303.25457     -58437.295     -58753.355      316.05935      6711.8899      182018.86    
     54900   300.37647     -58433.649     -58746.709      313.05973      6875.032       182018.86    
     55000   300.7705      -58430.222     -58743.692      313.47039      6949.8421      182018.86    
     55100   298.91177     -58431.522     -58743.055      311.53318      6891.9726      182018.86    
     55200   302.26479     -58432.745     -58747.773      315.02778      6884.9305      182018.86    
     55300   301.33655     -58434.199     -58748.26       314.06035      6785.0504      182018.86    
     55400   298.87473     -58436.056     -58747.55       311.49458      6821.5324      182018.86    
     55500   297.61542     -58436.895     -58747.077      310.1821       6792.4464      182018.86    
     55600   302.00033     -58434.153     -58748.906      314.75216      6824.1295      182018.86    
     55700   302.855       -58431.168     -58746.811      315.64291      6837.8632      182018.86    
     55800   302.36385     -58428.298     -58743.429      315.13103      6931.785       182018.86    
     55900   299.35919     -58430.442     -58742.442      311.99949      6943.2213      182018.86    
     56000   299.62641     -58436.864     -58749.142      312.278        6798.0186      182018.86    
     56100   301.52283     -58438.329     -58752.584      314.25449      6678.8569      182018.86    
     56200   298.69488     -58437.087     -58748.394      311.30714      6805.7425      182018.86    
     56300   297.62649     -58434.066     -58744.26       310.19364      6848.7772      182018.86    
     56400   301.1726      -58431.582     -58745.471      313.88948      6884.4638      182018.86    
     56500   300.99589     -58432.068     -58745.773      313.7053       6874.1404      182018.86    
     56600   299.4254      -58433.757     -58745.825      312.0685       6852.7681      182018.86    
     56700   300.48253     -58436.315     -58749.485      313.17027      6879.1917      182018.86    
     56800   295.58917     -58440.067     -58748.138      308.07029      6792.4351      182018.86    
     56900   298.1911      -58437.983     -58748.765      310.78208      6782.8857      182018.86    
     57000   301.53167     -58430.392     -58744.656      314.26371      6891.8056      182018.86    
     57100   304.74561     -58428.375     -58745.988      317.61335      6880.5008      182018.86    
     57200   300.34552     -58433.083     -58746.11       313.02747      6842.1008      182018.86    
     57300   297.23977     -58437.248     -58747.039      309.79059      6888.6631      182018.86    
     57400   298.96488     -58436.985     -58748.574      311.58853      6807.8834      182018.86    
     57500   300.06329     -58435.368     -58748.101      312.73333      6825.7508      182018.86    
     57600   299.74929     -58433.902     -58746.308      312.40607      6799.813       182018.86    
     57700   302.3077      -58432.542     -58747.614      315.07251      6835.8833      182018.86    
     57800   298.38786     -58434.011     -58744.998      310.98715      6840.0678      182018.86    
     57900   301.91644     -58435.123     -58749.787      314.66473      6809.8583      182018.86    
     58000   298.81555     -58438.337     -58749.77       311.43291      6781.1263      182018.86    
     58100   295.93098     -58439.947     -58748.374      308.42653      6714.0085      182018.86    
     58200   298.80862     -58434.718     -58746.144      311.42568      6803.9582      182018.86    
     58300   303.04548     -58429.236     -58745.077      315.84144      6841.8358      182018.86    
     58400   303.13862     -58430.289     -58746.228      315.93851      6826.0936      182018.86    
     58500   300.03572     -58434.84      -58747.545      312.70459      6774.2826      182018.86    
     58600   296.73044     -58438.559     -58747.819      309.25975      6779.6893      182018.86    
     58700   300.47873     -58437.849     -58751.015      313.16631      6758.4227      182018.86    
     58800   295.56844     -58436.91      -58744.959      308.04869      6817.4839      182018.86    
     58900   301.44109     -58433.309     -58747.479      314.16931      6746.2929      182018.86    
     59000   302.90429     -58431.704     -58747.398      315.69429      6856.9721      182018.86    
     59100   299.39415     -58432.57      -58744.606      312.03593      6813.9801      182018.86    
     59200   297.55638     -58437.048     -58747.168      310.12056      6776.8241      182018.86    
     59300   299.13703     -58439.792     -58751.56       311.76795      6730.2502      182018.86    
     59400   297.3742      -58439.865     -58749.796      309.93069      6726.3025      182018.86    
     59500   302.26761     -58433.139     -58748.17       315.03072      6801.0499      182018.86    
     59600   301.18503     -58430.376     -58744.278      313.90243      6880.8949      182018.86    
     59700   300.43311     -58431.443     -58744.562      313.11876      6853.6758      182018.86    
     59800   300.23833     -58435.984     -58748.9        312.91576      6837.432       182018.86    
     59900   296.22305     -58440.958     -58749.689      308.73093      6790.8326      182018.86    
     60000   298.08324     -58439.64      -58750.31       310.66967      6762.4675      182018.86    
     60100   300.35368     -58435.807     -58748.843      313.03598      6789.4031      182018.86    
     60200   301.49129     -58433.495     -58747.716      314.22162      6816.2036      182018.86    
     60300   297.38167     -58435.113     -58745.051      309.93847      6782.2827      182018.86    
     60400   300.53921     -58436.122     -58749.351      313.22934      6792.3026      182018.86    
     60500   298.54091     -58437.269     -58748.415      311.14667      6784.9244      182018.86    
     60600   301.80765     -58435.196     -58749.747      314.55134      6775.513       182018.86    
     60700   299.84973     -58431.09      -58743.601      312.51075      6889.8942      182018.86    
     60800   299.6855      -58428.912     -58741.252      312.33958      6942.2013      182018.86    
     60900   302.9812      -58432.249     -58748.024      315.77444      6812.4821      182018.86    
     61000   303.65365     -58437.403     -58753.878      316.47529      6710.8319      182018.86    
     61100   296.77127     -58438.701     -58748.003      309.3023       6768.3742      182018.86    
     61200   292.6873      -58436.083     -58741.129      305.04589      6825.568       182018.86    
     61300   302.98087     -58431.284     -58747.058      315.7741       6874.0172      182018.86    
     61400   301.50055     -58432.697     -58746.928      314.23127      6849.7591      182018.86    
     61500   300.21346     -58433.751     -58746.641      312.88984      6813.2958      182018.86    
     61600   300.42948     -58434.244     -58747.359      313.11498      6819.6311      182018.86    
     61700   295.21339     -58440.436     -58748.115      307.67864      6802.9926      182018.86    
     61800   297.48571     -58440.531     -58750.578      310.04691      6695.3441      182018.86    
     61900   301.06919     -58434.922     -58748.704      313.7817       6838.1321      182018.86    
     62000   302.20827     -58432.267     -58747.236      314.96888      6832.4127      182018.86    
     62100   303.16896     -58432.447     -58748.417      315.97013      6836.3482      182018.86    
     62200   294.44391     -58437.152     -58744.029      306.87667      6853.8627      182018.86    
     62300   295.03016     -58442.863     -58750.351      307.48768      6729.0855      182018.86    
     62400   297.10964     -58447.035     -58756.69       309.65496      6633.409       182018.86    
     62500   296.21926     -58440.49      -58749.217      308.72698      6749.4024      182018.86    
     62600   301.44564     -58436.208     -58750.382      314.17405      6784.3997      182018.86    
     62700   296.66154     -58435.463     -58744.651      309.18794      6841.7894      182018.86    
     62800   301.013       -58431.169     -58744.893      313.72314      6859.9055      182018.86    
     62900   303.35113     -58429.114     -58745.274      316.16         6864.4645      182018.86    
     63000   300.86822     -58432.315     -58745.887      313.57224      6844.9267      182018.86    
     63100   298.39467     -58439.31      -58750.304      310.99426      6748.0803      182018.86    
     63200   296.91838     -58440.079     -58749.535      309.45563      6720.9803      182018.86    
     63300   299.12794     -58436.933     -58748.692      311.75849      6747.2981      182018.86    
     63400   299.62503     -58434.373     -58746.649      312.27657      6837.6121      182018.86    
     63500   299.32841     -58433.842     -58745.81       311.96741      6805.6223      182018.86    
     63600   300.41532     -58433.936     -58747.037      313.10022      6779.4063      182018.86    
     63700   298.30076     -58434.979     -58745.875      310.89637      6823.6941      182018.86    
     63800   300.56139     -58434.776     -58748.028      313.25246      6813.4485      182018.86    
     63900   298.77981     -58432.933     -58744.329      311.39565      6867.1566      182018.86    
     64000   302.55409     -58430.188     -58745.517      315.3293       6888.1034      182018.86    
     64100   302.2013      -58432.054     -58747.016      314.96162      6806.284       182018.86    
     64200   297.76485     -58437.274     -58747.612      310.33783      6752.542       182018.86    
     64300   296.37539     -58439.155     -58748.045      308.88971      6783.3175      182018.86    
     64400   301.123       -58435.541     -58749.379      313.83779      6743.0682      182018.86    
     64500   298.98497     -58427.65      -58739.26       311.60947      6905.6445      182018.86    
     64600   308.54664     -58425.525     -58747.1        321.57489      6887.2222      182018.86    
     64700   301.93358     -58431.174     -58745.856      314.68258      6827.4415      182018.86    
     64800   298.57542     -58434.503     -58745.686      311.18263      6840.2836      182018.86    
     64900   301.07834     -58436.497     -58750.288      313.79124      6737.9123      182018.86    
     65000   299.14717     -58439.454     -58751.232      311.77853      6715.5628      182018.86    
     65100   296.74287     -58438.818     -58748.091      309.2727       6824.7719      182018.86    
     65200   300.7892      -58431.365     -58744.854      313.48988      6852.4003      182018.86    
     65300   303.44696     -58428.833     -58745.093      316.25987      6907.4731      182018.86    
     65400   299.87249     -58432.506     -58745.041      312.53447      6830.489       182018.86    
     65500   299.37265     -58436.371     -58748.384      312.01352      6763.0141      182018.86    
     65600   295.83505     -58439.008     -58747.335      308.32656      6822.2996      182018.86    
     65700   298.09752     -58438.549     -58749.234      310.68455      6732.8927      182018.86    
     65800   304.74814     -58431.88      -58749.496      317.616        6781.2351      182018.86    
     65900   297.64808     -58429.913     -58740.129      310.21613      6887.8212      182018.86    
     66000   302.27927     -58429.742     -58744.785      315.04288      6867.4688      182018.86    
     66100   299.94388     -58434.413     -58747.022      312.60888      6764.4062      182018.86    
     66200   300.95942     -58438.213     -58751.881      313.6673       6765.6415      182018.86    
     66300   296.05354     -58440.06      -58748.614      308.55427      6734.0506      182018.86    
     66400   300.73868     -58437.284     -58750.721      313.43724      6775.4685      182018.86    
     66500   297.94185     -58436.329     -58746.851      310.52231      6824.1824      182018.86    
     66600   302.36145     -58433.247     -58748.376      315.12853      6805.6316      182018.86    
     66700   299.81953     -58431.135     -58743.615      312.47928      6877.8803      182018.86    
     66800   304.41977     -58427.485     -58744.759      317.27376      6869.144       182018.86    
     66900   299.43297     -58431.141     -58743.217      312.07639      6960.9502      182018.86    
     67000   295.66675     -58437.839     -58745.99       308.15114      6826.7326      182018.86    
     67100   300.15211     -58437.722     -58750.548      312.8259       6776.4057      182018.86    
     67200   302.26153     -58434.932     -58749.956      315.02439      6779.6512      182018.86    
     67300   303.67839     -58430.592     -58747.093      316.50107      6879.5898      182018.86    
     67400   300.13397     -58426.094     -58738.901      312.807        6931.1966      182018.86    
     67500   304.15898     -58422.507     -58739.509      317.00196      6994.848       182018.86    
     67600   307.49834     -58428.548     -58749.03       320.48232      6821.7128      182018.86    
     67700   298.51992     -58434.077     -58745.202      311.12479      6830.3231      182018.86    
     67800   297.22193     -58435.738     -58745.51       309.77199      6871.84        182018.86    
     67900   299.49145     -58436.579     -58748.716      312.13734      6765.0968      182018.86    
     68000   298.88388     -58436.115     -58747.619      311.50412      6752.6683      182018.86    
     68100   303.87672     -58430.386     -58747.093      316.70778      6825.5977      182018.86    
     68200   302.52182     -58429.086     -58744.381      315.29567      6851.238       182018.86    
     68300   300.10866     -58433.72      -58746.501      312.78061      6854.4161      182018.86    
     68400   296.88699     -58439.272     -58748.695      309.42291      6776.5934      182018.86    
     68500   295.83449     -58439.478     -58747.804      308.32597      6789.0583      182018.86    
     68600   298.95683     -58435.123     -58746.703      311.58015      6843.2713      182018.86    
     68700   300.45228     -58431.979     -58745.117      313.13874      6835.6805      182018.86    
     68800   302.32673     -58431.344     -58746.437      315.09233      6888.4867      182018.86    
     68900   296.70937     -58435.553     -58744.79       309.23779      6833.3803      182018.86    
     69000   301.55388     -58440.322     -58754.609      314.28685      6727.9256      182018.86    
     69100   293.23771     -58445.028     -58750.647      305.61954      6707.8897      182018.86    
     69200   300.46432     -58439.98      -58753.131      313.15129      6732.6564      182018.86    
     69300   299.2966      -58434.525     -58746.459      311.93426      6818.8415      182018.86    
     69400   303.89109     -58432.464     -58749.187      316.72276      6829.4722      182018.86    
     69500   296.21677     -58433.13      -58741.854      308.72439      6903.5936      182018.86    
     69600   304.13421     -58429.496     -58746.473      316.97614      6902.4509      182018.86    
     69700   301.50218     -58430.292     -58744.525      314.23297      6805.7219      182018.86    
     69800   300.33347     -58436.896     -58749.911      313.01492      6767.4762      182018.86    
     69900   295.74157     -58440.705     -58748.934      308.22912      6770.2314      182018.86    
     70000   297.17514     -58439.266     -58748.989      309.72322      6727.4523      182018.86    
     70100   301.84511     -58434.639     -58749.229      314.59039      6794.1582      182018.86    
     70200   301.65652     -58432.146     -58746.54       314.39383      6820.693       182018.86    
     70300   299.89235     -58433.251     -58745.806      312.55517      6791.0106      182018.86    
     70400   299.56635     -58434.357     -58746.572      312.21541      6786.3903      182018.86    
     70500   298.86069     -58436.243     -58747.723      311.47995      6762.6057      182018.86    
     70600   297.51809     -58440.542     -58750.622      310.08065      6753.2391      182018.86    
     70700   298.624       -58440.492     -58751.725      311.23327      6723.4269      182018.86    
     70800   295.06845     -58436.211     -58743.738      307.52758      6842.7095      182018.86    
     70900   304.26391     -58429.188     -58746.299      317.11132      6835.8539      182018.86    
     71000   305.16594     -58429.828     -58747.88       318.05144      6825.5859      182018.86    
     71100   300.12819     -58434.594     -58747.395      312.80096      6790.7834      182018.86    
     71200   294.83106     -58438.422     -58745.702      307.28017      6821.5319      182018.86    
     71300   300.13819     -58437.601     -58750.412      312.81139      6814.2434      182018.86    
     71400   299.18437     -58435.329     -58747.146      311.81729      6798.6707      182018.86    
     71500   297.97615     -58432.975     -58743.533      310.55806      6880.5487      182018.86    
     71600   301.63598     -58433.728     -58748.1        314.37242      6801.6274      182018.86    
     71700   299.44551     -58435.81      -58747.899      312.08946      6769.4364      182018.86    
     71800   299.00535     -58435.888     -58747.519      311.63072      6804.7616      182018.86    
     71900   300.27313     -58433.463     -58746.415      312.95203      6844.568       182018.86    
     72000   301.14971     -58429.486     -58743.351      313.86562      6911.4499      182018.86    
     72100   303.14949     -58428.732     -58744.682      315.94984      6811.4971      182018.86    
     72200   299.85461     -58435.009     -58747.525      312.51584      6799.4836      182018.86    
     72300   298.63376     -58439.611     -58750.854      311.24343      6687.2844      182018.86    
     72400   299.6952      -58438.294     -58750.643      312.34969      6787.6583      182018.86    
     72500   298.28291     -58436.473     -58747.351      310.87777      6776.1079      182018.86    
     72600   297.8435      -58433.993     -58744.413      310.41981      6847.907       182018.86    
     72700   303.18435     -58432.65      -58748.636      315.98617      6795.0502      182018.86    
     72800   299.95608     -58433.839     -58746.46       312.62159      6841.5102      182018.86    
     72900   297.61505     -58434.967     -58745.149      310.18172      6878.6564      182018.86    
     73000   298.69278     -58437.908     -58749.213      311.30495      6780.4269      182018.86    
     73100   299.64784     -58440.85      -58753.15       312.30033      6729.3569      182018.86    
     73200   296.47747     -58439.48      -58748.476      308.9961       6761.622       182018.86    
     73300   300.94549     -58431.541     -58745.194      313.65278      6837.6468      182018.86    
     73400   306.34529     -58428.422     -58747.702      319.28058      6843.4572      182018.86    
     73500   300.61437     -58432.231     -58745.539      313.30768      6843.6401      182018.86    
     73600   297.91805     -58436.307     -58746.805      310.4975       6793.3687      182018.86    
     73700   299.22101     -58437.464     -58749.32       311.85548      6727.4295      182018.86    
     73800   298.34149     -58437.342     -58748.28       310.93883      6814.0614      182018.86    
     73900   303.96407     -58432.406     -58749.205      316.79882      6805.6916      182018.86    
     74000   300.20115     -58431.03      -58743.907      312.87701      6881.7486      182018.86    
     74100   301.3383      -58432.924     -58746.986      314.06217      6813.4177      182018.86    
     74200   298.7503      -58436.457     -58747.822      311.36489      6778.1073      182018.86    
     74300   297.49611     -58438.443     -58748.501      310.05775      6805.241       182018.86    
     74400   298.18852     -58441.245     -58752.024      310.77939      6691.9805      182018.86    
     74500   297.77353     -58439.31      -58749.657      310.34688      6722.2825      182018.86    
     74600   301.14785     -58433.117     -58746.98       313.86368      6799.4808      182018.86    
     74700   299.51778     -58431.769     -58743.933      312.16479      6854.9962      182018.86    
     74800   299.19339     -58432.951     -58744.777      311.82669      6859.8453      182018.86    
     74900   297.31005     -58439.496     -58749.36       309.86384      6684.4591      182018.86    
     75000   296.2261      -58442.194     -58750.928      308.73411      6752.7888      182018.86    
     75100   296.44088     -58438.904     -58747.862      308.95796      6785.4613      182018.86    
     75200   300.22459     -58436.394     -58749.295      312.90144      6808.3444      182018.86    
     75300   301.25046     -58434.267     -58748.237      313.97062      6855.9525      182018.86    
     75400   300.2457      -58431.885     -58744.808      312.92344      6826.3355      182018.86    
[...]
    181800   300.11616     -58436.76      -58749.549      312.78842      6736.5867      182018.86    
    181900   300.86923     -58435.214     -58748.788      313.5733       6883.6076      182018.86    
    182000   296.78154     -58435.67      -58744.983      309.313        6865.4106      182018.86    
    182100   295.8437      -58434.524     -58742.859      308.33556      6907.7017      182018.86    
    182200   307.69445     -58428.886     -58749.573      320.68671      6789.8468      182018.86    
    182300   299.09126     -58430.234     -58741.954      311.72025      6965.3609      182018.86    
    182400   299.01081     -58437.28      -58748.916      311.6364       6808.167       182018.86    
    182500   296.49048     -58440.487     -58749.497      309.00966      6755.7566      182018.86    
    182600   300.13541     -58437.361     -58750.169      312.8085       6762.3438      182018.86    
    182700   300.7257      -58432.665     -58746.089      313.42371      6836.2364      182018.86    
    182800   302.38963     -58430.339     -58745.497      315.15789      6857.7367      182018.86    
    182900   302.39184     -58431.675     -58746.835      315.1602       6872.3168      182018.86    
    183000   295.13937     -58440.796     -58748.398      307.6015       6781.1468      182018.86    
    183100   297.7718      -58440.273     -58750.618      310.34508      6766.1436      182018.86    
    183200   298.14114     -58435.388     -58746.118      310.73002      6815.5837      182018.86    
    183300   302.41265     -58431.22      -58746.402      315.18189      6854.5668      182018.86    
    183400   301.44764     -58430.535     -58744.711      314.17613      6848.0075      182018.86    
    183500   302.09179     -58433.472     -58748.319      314.84748      6854.8017      182018.86    
    183600   297.19718     -58440.154     -58749.9        309.7462       6762.4846      182018.86    
    183700   296.94558     -58439.842     -58749.326      309.48397      6753.3549      182018.86    
    183800   299.94591     -58434.12      -58746.731      312.61099      6795.1059      182018.86    
    183900   299.59564     -58432.242     -58744.488      312.24594      6813.4148      182018.86    
    184000   302.78704     -58432.473     -58748.045      315.57209      6845.0758      182018.86    
    184100   298.39367     -58435.74      -58746.733      310.99321      6828.5436      182018.86    
    184200   296.82644     -58441.576     -58750.936      309.35981      6765.951       182018.86    
    184300   298.82844     -58443.046     -58754.493      311.44633      6665.3859      182018.86    
    184400   297.03912     -58437.625     -58747.206      309.58146      6823.6975      182018.86    
    184500   301.05218     -58430.947     -58744.711      313.76397      6903.9959      182018.86    
    184600   302.58461     -58431.936     -58747.297      315.36111      6806.2761      182018.86    
    184700   298.37493     -58434.923     -58745.896      310.97368      6835.5499      182018.86    
    184800   297.37818     -58436.354     -58746.289      309.93484      6793.969       182018.86    
    184900   301.26233     -58436.533     -58750.516      313.983        6822.1279      182018.86    
    185000   296.42287     -58437.284     -58746.223      308.9392       6801.6286      182018.86    
    185100   302.30462     -58434.686     -58749.755      315.0693       6808.1624      182018.86    
    185200   302.73852     -58429.701     -58745.223      315.52152      6862.4223      182018.86    
    185300   301.14143     -58428.77      -58742.627      313.85699      6929.3079      182018.86    
    185400   296.134       -58434.692     -58743.33       308.63812      6923.8022      182018.86    
    185500   301.74395     -58437.935     -58752.42       314.48495      6746.1637      182018.86    
    185600   298.27733     -58437.6       -58748.472      310.87195      6759.7506      182018.86    
    185700   301.51227     -58434.293     -58748.536      314.24349      6845.7228      182018.86    
    185800   299.15454     -58433.492     -58745.278      311.78621      6877.8634      182018.86    
    185900   300.17641     -58432.68      -58745.531      312.85122      6879.5317      182018.86    
    186000   307.15342     -58429.693     -58749.815      320.12284      6841.1141      182018.86    
    186100   298.02989     -58433.212     -58743.826      310.61407      6863.4762      182018.86    
    186200   298.4786      -58436.415     -58747.497      311.08173      6864.7041      182018.86    
    186300   299.4208      -58439.256     -58751.32       312.0637       6724.1032      182018.86    
    186400   298.11909     -58440.775     -58751.482      310.70703      6792.3627      182018.86    
    186500   299.1613      -58435.951     -58747.744      311.79325      6821.0834      182018.86    
    186600   302.11538     -58429.875     -58744.747      314.87206      6906.5408      182018.86    
    186700   300.00425     -58431.112     -58743.784      312.67179      6892.2345      182018.86    
    186800   301.49216     -58434.475     -58748.698      314.22253      6823.4736      182018.86    
    186900   297.10314     -58438.656     -58748.304      309.64818      6764.0711      182018.86    
    187000   299.36466     -58437.865     -58749.87       312.00519      6752.034       182018.86    
    187100   300.39149     -58427.975     -58741.05       313.07539      6964.5671      182018.86    
    187200   300.94818     -58428.729     -58742.385      313.65558      6976.1395      182018.86    
    187300   299.00373     -58433.457     -58745.086      311.62902      6842.9196      182018.86    
    187400   303.43724     -58435.549     -58751.799      316.24974      6720.6342      182018.86    
    187500   296.63192     -58439.329     -58748.486      309.15706      6829.1193      182018.86    
    187600   296.71392     -58439.335     -58748.578      309.24254      6781.0029      182018.86    
    187700   299.61107     -58432.776     -58745.038      312.26202      6921.5998      182018.86    
    187800   305.43122     -58428.756     -58747.084      318.32792      6868.1596      182018.86    
    187900   305.05104     -58430.284     -58748.216      317.93169      6829.3036      182018.86    
    188000   297.45307     -58436.674     -58746.687      310.01289      6824.4384      182018.86    
    188100   295.66799     -58438.614     -58746.766      308.15243      6787.5331      182018.86    
    188200   301.89075     -58436.027     -58750.665      314.63795      6766.8063      182018.86    
    188300   301.01975     -58434.768     -58748.498      313.73017      6834.1052      182018.86    
    188400   299.70915     -58433.478     -58745.842      312.36423      6863.476       182018.86    
    188500   306.719       -58426.716     -58746.386      319.67007      6912.1716      182018.86    
    188600   302.63776     -58425.314     -58740.73       315.4165       6913.4351      182018.86    
    188700   301.03321     -58431.462     -58745.206      313.74421      6904.1168      182018.86    
    188800   302.10627     -58434.872     -58749.735      314.86257      6777.3916      182018.86    
    188900   298.41211     -58436.302     -58747.314      311.01243      6812.4328      182018.86    
    189000   302.99741     -58434.364     -58750.155      315.79134      6771.8685      182018.86    
    189100   296.23786     -58433.064     -58741.81       308.74637      6956.3755      182018.86    
    189200   304.76938     -58426.848     -58744.487      317.63813      6921.9935      182018.86    
    189300   304.61738     -58428.288     -58745.768      317.47971      6900.5958      182018.86    
    189400   299.31246     -58434.604     -58746.555      311.95079      6856.2327      182018.86    
    189500   297.79512     -58437.204     -58747.574      310.36938      6864.9028      182018.86    
    189600   300.05954     -58435.252     -58747.982      312.72941      6771.9341      182018.86    
    189700   299.63165     -58432.615     -58744.899      312.28346      6834.4548      182018.86    
    189800   299.80944     -58432.271     -58744.74       312.46876      6889.0583      182018.86    
    189900   300.64558     -58433.792     -58747.132      313.3402       6871.7898      182018.86    
    190000   296.9446      -58437.179     -58746.662      309.48295      6796.9952      182018.86    
    190100   300.02184     -58437.573     -58750.263      312.69013      6814.5393      182018.86    
    190200   299.11781     -58437.702     -58749.45       311.74793      6767.333       182018.86    
    190300   300.10615     -58433.032     -58745.81       312.778        6879.7811      182018.86    
    190400   300.80412     -58428.398     -58741.904      313.50544      6963.7959      182018.86    
    190500   302.10653     -58428.503     -58743.366      314.86284      6892.4475      182018.86    
    190600   299.53811     -58436.065     -58748.251      312.18598      6810.8855      182018.86    
    190700   300.1993      -58437.615     -58750.49       312.87508      6717.2082      182018.86    
    190800   297.93985     -58436.592     -58747.112      310.52023      6844.8263      182018.86    
    190900   301.0889      -58432.376     -58746.178      313.80224      6858.818       182018.86    
    191000   301.86483     -58429.915     -58744.526      314.61094      6907.4083      182018.86    
    191100   300.03497     -58432.176     -58744.88       312.70381      6883.257       182018.86    
    191200   298.83365     -58438.756     -58750.208      311.45177      6756.1365      182018.86    
    191300   298.34079     -58441.763     -58752.701      310.9381       6753.5048      182018.86    
    191400   297.19001     -58439.508     -58749.246      309.73873      6826.6886      182018.86    
    191500   301.09305     -58433.213     -58747.019      313.80657      6849.5175      182018.86    
    191600   299.72905     -58432.296     -58744.681      312.38497      6887.0453      182018.86    
    191700   302.46191     -58431.312     -58746.545      315.23323      6837.5067      182018.86    
    191800   302.63185     -58432.851     -58748.261      315.41034      6899.4774      182018.86    
    191900   291.93407     -58439.795     -58744.056      304.26085      6836.2258      182018.86    
    192000   298.64348     -58438.724     -58749.977      311.25357      6761.6325      182018.86    
    192100   303.28383     -58434.391     -58750.481      316.08986      6815.8734      182018.86    
    192200   297.31385     -58434.277     -58744.144      309.8678       6866.7614      182018.86    
    192300   300.13637     -58433.612     -58746.422      312.80949      6885.5227      182018.86    
    192400   300.54007     -58433.128     -58746.359      313.23024      6899.6162      182018.86    
    192500   297.15491     -58433.991     -58743.693      309.70214      6865.3298      182018.86    
    192600   300.07828     -58434.032     -58746.781      312.74895      6811.3857      182018.86    
    192700   302.21129     -58435.574     -58750.546      314.97202      6824.6026      182018.86    
    192800   296.96867     -58438.005     -58747.513      309.50804      6788.8546      182018.86    
    192900   303.42183     -58431.452     -58747.686      316.23368      6871.274       182018.86    
    193000   299.45083     -58427.859     -58739.954      312.09501      6910.086       182018.86    
    193100   303.75878     -58428.329     -58744.914      316.58485      6887.9174      182018.86    
    193200   299.58069     -58435.803     -58748.034      312.23035      6790.5051      182018.86    
    193300   301.22818     -58436.16      -58750.107      313.9474       6800.7388      182018.86    
    193400   297.74808     -58435.919     -58746.24       310.32036      6828.3888      182018.86    
    193500   297.62335     -58435.162     -58745.353      310.19037      6907.0855      182018.86    
    193600   301.45398     -58430.905     -58745.088      314.18274      6902.9308      182018.86    
    193700   306.95145     -58427.617     -58747.529      319.91233      6838.2768      182018.86    
    193800   299.82719     -58431.75      -58744.237      312.48726      6861.5776      182018.86    
    193900   299.82383     -58434.351     -58746.834      312.48375      6891.1594      182018.86    
    194000   295.76446     -58436.83      -58745.083      308.25298      6848.8914      182018.86    
    194100   301.61876     -58435.39      -58749.744      314.35448      6801.141       182018.86    
    194200   302.21447     -58434.257     -58749.232      314.97533      6868.4674      182018.86    
    194300   301.81292     -58432.15      -58746.707      314.55683      6837.8725      182018.86    
    194400   300.65732     -58426.057     -58739.41       313.35244      7018.4963      182018.86    
    194500   302.39985     -58424.523     -58739.691      315.16855      6979.7443      182018.86    
    194600   301.98467     -58431.234     -58745.97       314.73583      6827.9446      182018.86    
    194700   303.78261     -58434.331     -58750.941      316.6097       6791.7617      182018.86    
    194800   297.89393     -58437.334     -58747.806      310.47237      6819.4629      182018.86    
    194900   296.79095     -58435.735     -58745.057      309.32282      6832.5952      182018.86    
    195000   303.17368     -58430.708     -58746.683      315.97505      6911.0321      182018.86    
    195100   299.25329     -58431.356     -58743.245      311.88912      6896.4719      182018.86    
    195200   304.47324     -58435.067     -58752.397      317.32949      6753.5344      182018.86    
    195300   295.12062     -58441.511     -58749.093      307.58195      6723.2603      182018.86    
    195400   295.17459     -58438.193     -58745.832      307.6382       6803.2791      182018.86    
    195500   302.83196     -58433.797     -58749.416      315.61891      6820.9375      182018.86    
    195600   300.67684     -58432.411     -58745.784      313.37279      6913.7816      182018.86    
    195700   306.78561     -58429.072     -58748.811      319.7395       6859.3759      182018.86    
    195800   298.7018      -58435.646     -58746.961      311.31435      6818.1314      182018.86    
    195900   297.32087     -58439.183     -58749.058      309.87511      6800.4953      182018.86    
    196000   296.87606     -58438.133     -58747.544      309.41151      6842.9655      182018.86    
    196100   301.47605     -58433.756     -58747.962      314.20574      6833.9873      182018.86    
    196200   303.41026     -58430.813     -58747.034      316.22162      6874.9069      182018.86    
    196300   301.08452     -58431.506     -58745.304      313.79768      6916.8817      182018.86    
    196400   296.5637      -58437.68      -58746.766      309.08597      6813.0291      182018.86    
    196500   296.4297      -58443.023     -58751.969      308.94631      6695.0744      182018.86    
    196600   297.11472     -58440.122     -58749.782      309.66025      6797.5515      182018.86    
    196700   302.58539     -58433.198     -58748.56       315.36192      6824.7916      182018.86    
    196800   298.24337     -58433.096     -58743.932      310.83656      6882.2923      182018.86    
    196900   299.04438     -58433.157     -58744.829      311.6714       6890.7391      182018.86    
    197000   303.23949     -58433.699     -58749.743      316.04364      6808.2891      182018.86    
    197100   296.25454     -58439.246     -58748.01       308.76375      6798.3309      182018.86    
    197200   296.96124     -58439.961     -58749.462      309.5003       6815.2543      182018.86    
    197300   300.62088     -58435.726     -58749.041      313.31446      6767.8285      182018.86    
    197400   301.53368     -58428.571     -58742.837      314.26581      6945.0621      182018.86    
    197500   300.96215     -58429.049     -58742.72       313.67014      6918.9849      182018.86    
    197600   299.56804     -58433.911     -58746.128      312.21716      6902.4391      182018.86    
    197700   299.21724     -58436.771     -58748.622      311.85156      6761.1523      182018.86    
    197800   302.30898     -58436.325     -58751.399      315.07384      6751.9886      182018.86    
    197900   297.89953     -58435.083     -58745.561      310.4782       6833.2108      182018.86    
    198000   298.25309     -58430.287     -58741.134      310.8467       6960.9265      182018.86    
    198100   306.32828     -58422.45      -58741.713      319.26286      7022.4339      182018.86    
    198200   305.05359     -58426.076     -58744.01       317.93434      6920.4776      182018.86    
    198300   304.00099     -58433.63      -58750.467      316.83729      6802.599       182018.86    
    198400   297.90654     -58437.307     -58747.793      310.48551      6772.3113      182018.86    
    198500   297.47097     -58438.548     -58748.58       310.03155      6799.4279      182018.86    
    198600   297.67069     -58436.603     -58746.843      310.2397       6884.3135      182018.86    
    198700   300.00852     -58431.869     -58744.545      312.67625      6892.6192      182018.86    
    198800   306.80143     -58428.492     -58748.248      319.75599      6895.4557      182018.86    
    198900   301.95955     -58433.044     -58747.754      314.70965      6906.682       182018.86    
    199000   298.20352     -58439.079     -58749.874      310.79503      6745.5945      182018.86    
    199100   296.03688     -58438.645     -58747.182      308.5369       6866.0703      182018.86    
    199200   300.81053     -58434.551     -58748.063      313.51211      6800.8966      182018.86    
    199300   303.75241     -58431.188     -58747.766      316.57822      6833.8433      182018.86    
    199400   301.43869     -58429.833     -58744          314.1668       6892.7984      182018.86    
    199500   304.71784     -58425.736     -58743.32       317.58442      6937.5751      182018.86    
    199600   301.43511     -58429.068     -58743.231      314.16307      6904.0669      182018.86    
    199700   296.72513     -58435.303     -58744.557      309.25422      6907.7579      182018.86    
    199800   302.2451      -58435.855     -58750.863      315.00726      6760.3743      182018.86    
    199900   299.10239     -58437.789     -58749.521      311.73185      6800.333       182018.86    
    200000   295.75607     -58438.372     -58746.616      308.24423      6865.3978      182018.86    
Loop time of 26429.2 on 20 procs for 200000 steps with 8064 atoms

Performance: 0.654 ns/day, 36.707 hours/ns, 7.567 timesteps/s, 61.023 katom-step/s
100.0% CPU use with 20 MPI tasks x 1 OpenMP threads

MPI task timing breakdown:
Section |  min time  |  avg time  |  max time  |%varavg| %total
---------------------------------------------------------------
Pair    | 22885      | 24121      | 26017      | 715.4 | 91.26
Neigh   | 232.79     | 252.51     | 281.04     | 104.2 |  0.96
Comm    | 125.11     | 2049.3     | 3303.6     |2490.1 |  7.75
Output  | 0.4892     | 0.5666     | 0.65598    |   6.1 |  0.00
Modify  | 3.5168     | 4.4091     | 5.2763     |  24.2 |  0.02
Other   |            | 1.874      |            |       |  0.01

Nlocal:          403.2 ave         432 max         384 min
Histogram: 8 0 0 2 1 3 2 0 0 4
Nghost:         1632.7 ave        1681 max        1598 min
Histogram: 7 3 2 0 0 0 0 0 4 4
Neighs:              0 ave           0 max           0 min
Histogram: 20 0 0 0 0 0 0 0 0 0
FullNghs:      23023.6 ave       24687 max       21870 min
Histogram: 8 0 0 2 2 2 2 0 0 4

Total # of neighbors = 460472
Ave neighs/atom = 57.102183
Neighbor list builds = 200000
Dangerous builds not checked
Total wall time: 7:20:29
