LAMMPS (27 Jun 2024)
# NVT run
variable Tseed    equal  1232145

units          metal
boundary       p p p
atom_style     atomic

read_data      ../../../files/small_Hf_equib_DATA
Reading data file ...
  orthogonal box = (0 0 0) to (3.0321976 3.0321976 3.0321976)
  1 by 1 by 1 MPI processor grid
  reading atoms ...
  2 atoms
  read_data CPU = 0.003 seconds

neighbor       0.5 bin
neigh_modify   every 1 delay 0 check yes

pair_style     pod
pair_coeff     * * sample_4body_hf_param.pod ref_vsmall_lammps_compat_Hf_coefficients.pod Hf
**************** Begin of POD Potentials ****************
species: Hf 
periodic boundary conditions: 1 1 1
number of environment clusters: 1
number of principal compoments: 1
inner cut-off radius: 1
outer cut-off radius: 5.5
cut-off function type: 1
gaussian_exponents: 
polynomial_degrees: 
bessel polynomial degree: 4
inverse polynomial degree: 8
one-body potential: 1
two-body radial basis functions: 8
three-body radial basis functions: 6
three-body angular degree: 4
four-body radial basis functions: 4
four-body angular degree: 2
five-body radial basis functions: 0
five-body angular degree: 0
six-body radial basis functions: 0
six-body angular degree: 0
seven-body radial basis functions: 0
seven-body angular degree: 0
number of local descriptors per element for one-body potential: 1
number of local descriptors per element for two-body potential: 8
number of local descriptors per element for three-body potential: 30
number of local descriptors per element for four-body potential: 16
number of local descriptors per element for five-body potential: 0
number of local descriptors per element for six-body potential: 0
number of local descriptors per element for seven-body potential: 0
number of local descriptors per element for all potentials: 55
number of global descriptors: 55
**************** End of POD Potentials ****************

**************** Begin of Model Coefficients ****************
total number of coefficients for POD potential: 55
total number of elements for PCA projection matrix: 0
total number of elements for PCA centroids: 0
**************** End of Model Coefficients ****************


thermo       1
thermo_style custom step temp pe ke etotal press

fix eprint all print 100 "$(step) $(pe)" file rerun_pe.dat

dump           forces all custom 100 rerun_dump_forces.custom id element x y z fx fy fz
dump_modify    forces element Hf sort id format line "%4d %2s %22.17f %22.17f %22.17f %22.17f %22.17f %22.17f"

rerun dump_small_Hf.atom dump x y z

CITE-CITE-CITE-CITE-CITE-CITE-CITE-CITE-CITE-CITE-CITE-CITE-CITE

Your simulation uses code contributions which should be cited:

- Type Label Framework: https://doi.org/10.1021/acs.jpcb.3c08419

@Article{Gissinger24,
 author = {Jacob R. Gissinger, Ilia Nikiforov, Yaser Afshar, Brendon Waters, Moon-ki Choi, Daniel S. Karls, Alexander Stukowski, Wonpil Im, Hendrik Heinz, Axel Kohlmeyer, and Ellad B. Tadmor},
 title = {Type Label Framework for Bonded Force Fields in LAMMPS},
 journal = {J. Phys. Chem. B},
 year =    2024,
 volume =  128,
 number =  13,
 pages =   {3282–-3297}
}

CITE-CITE-CITE-CITE-CITE-CITE-CITE-CITE-CITE-CITE-CITE-CITE-CITE

WARNING: No fixes with time integration, atoms won't move (src/verlet.cpp:60)
Neighbor list info ...
  update: every = 1 steps, delay = 0 steps, check = yes
  max neighbors/atom: 2000, page size: 100000
  master list distance cutoff = 6
  ghost atom cutoff = 6
  binsize = 3, bins = 2 2 2
  1 neighbor lists, perpetual/occasional/extra = 1 0 0
  (1) pair pod, perpetual
      attributes: full, newton on
      pair build: full/bin/atomonly
      stencil: full/bin/3d
      bin: standard
0 -10.497338278136052026
Per MPI rank memory allocation (min/avg/max) = 2.957 | 2.957 | 2.957 Mbytes
   Step          Temp          PotEng         KinEng         TotEng         Press     
         0   0             -10.497338      0             -10.497338      1023639.9    
100 -10.413519428852257676
       100   0             -10.413519      0             -10.413519      1028801.3    
200 -10.497337399014813997
       200   0             -10.497337      0             -10.497337      1023640      
300 -10.241507666893017614
       300   0             -10.241508      0             -10.241508      1039048.2    
400 -10.497168958758948065
       400   0             -10.497169      0             -10.497169      1023650.4    
500 -10.381284690476025645
       500   0             -10.381285      0             -10.381285      1030759.4    
Loop time of 0.00273329 on 1 procs for 6 steps with 2 atoms

Total wall time: 0:00:00
