ITEM: TIMESTEP
0
ITEM: NUMBER OF ATOMS
2
ITEM: BOX BOUNDS pp pp pp
0.0000000000000000e+00 3.0321975749415837e+00
0.0000000000000000e+00 3.0321975749415837e+00
0.0000000000000000e+00 3.0321975749415837e+00
ITEM: ATOMS id element x y z fx fy fz
   1 Hf    0.00000000000000000    0.00000000000000000    0.00000000000000000    0.00000005120123792    0.00000005120122788    0.00000005120125162
   2 Hf    1.51609879000000003    1.51609879000000003    1.51609879000000003   -0.00000005120123819   -0.00000005120122869   -0.00000005120125253
ITEM: TIMESTEP
100
ITEM: NUMBER OF ATOMS
2
ITEM: BOX BOUNDS pp pp pp
0.0000000000000000e+00 3.0321975749415837e+00
0.0000000000000000e+00 3.0321975749415837e+00
0.0000000000000000e+00 3.0321975749415837e+00
ITEM: ATOMS id element x y z fx fy fz
   1 Hf    3.00593846161599210    3.00593846161599254    3.00593846161599254    1.06475587551207296    1.06475587551207540    1.06475587551207940
   2 Hf    1.54235790332559097    1.54235790332559097    1.54235790332559053   -1.06475587551207296   -1.06475587551207562   -1.06475587551207962
ITEM: TIMESTEP
200
ITEM: NUMBER OF ATOMS
2
ITEM: BOX BOUNDS pp pp pp
0.0000000000000000e+00 3.0321975749415837e+00
0.0000000000000000e+00 3.0321975749415837e+00
0.0000000000000000e+00 3.0321975749415837e+00
ITEM: ATOMS id element x y z fx fy fz
   1 Hf    3.03211250138699251    3.03211250138699251    3.03211250138699340    0.00344450244792491    0.00344450244792023    0.00344450244787013
   2 Hf    1.51618386355459100    1.51618386355459100    1.51618386355458989   -0.00344450244792460   -0.00344450244791932   -0.00344450244787015
ITEM: TIMESTEP
300
ITEM: NUMBER OF ATOMS
2
ITEM: BOX BOUNDS pp pp pp
0.0000000000000000e+00 3.0321975749415837e+00
0.0000000000000000e+00 3.0321975749415837e+00
0.0000000000000000e+00 3.0321975749415837e+00
ITEM: ATOMS id element x y z fx fy fz
   1 Hf    0.04584787757053913    0.04584787757053867    0.04584787757053922   -1.86275232396454715   -1.86275232396452428   -1.86275232396456669
   2 Hf    1.47025091242946115    1.47025091242946093    1.47025091242945938    1.86275232396454582    1.86275232396452473    1.86275232396456514
ITEM: TIMESTEP
400
ITEM: NUMBER OF ATOMS
2
ITEM: BOX BOUNDS pp pp pp
0.0000000000000000e+00 3.0321975749415837e+00
0.0000000000000000e+00 3.0321975749415837e+00
0.0000000000000000e+00 3.0321975749415837e+00
ITEM: ATOMS id element x y z fx fy fz
   1 Hf    3.03101690325968498    3.03101690325968676    3.03101690325968498    0.04780315084005110    0.04780315083990914    0.04780315083997289
   2 Hf    1.51727946168189920    1.51727946168189631    1.51727946168189720   -0.04780315084005204   -0.04780315083990948   -0.04780315083997333
ITEM: TIMESTEP
500
ITEM: NUMBER OF ATOMS
2
ITEM: BOX BOUNDS pp pp pp
0.0000000000000000e+00 3.0321975749415837e+00
0.0000000000000000e+00 3.0321975749415837e+00
0.0000000000000000e+00 3.0321975749415837e+00
ITEM: ATOMS id element x y z fx fy fz
   1 Hf    3.00130310061992311    3.00130310061992089    3.00130310061992356    1.25331109348600789    1.25331109348610492    1.25331109348591752
   2 Hf    1.54699326432166018    1.54699326432166195    1.54699326432165796   -1.25331109348600789   -1.25331109348610492   -1.25331109348591752
