LAMMPS (27 Jun 2024)
OMP_NUM_THREADS environment is not set. Defaulting to 1 thread. (src/comm.cpp:98)
  using 1 OpenMP thread(s) per MPI task
Reading data file ...
  orthogonal box = (0 0 0) to (22.422218 22.19224 20.321894)
  5 by 2 by 2 MPI processor grid
  reading atoms ...
  448 atoms
  read_data CPU = 0.005 seconds
**************** Begin of POD Potentials ****************
species: Hf 
periodic boundary conditions: 1 1 1
number of environment clusters: 8
number of principal compoments: 2
inner cut-off radius: 1
outer cut-off radius: 5
cut-off function type: 1
gaussian_exponents: 
polynomial_degrees: 
bessel polynomial degree: 4
inverse polynomial degree: 10
one-body potential: 1
two-body radial basis functions: 8
three-body radial basis functions: 8
three-body angular degree: 6
four-body radial basis functions: 7
four-body angular degree: 5
five-body radial basis functions: 0
five-body angular degree: 0
six-body radial basis functions: 0
six-body angular degree: 0
seven-body radial basis functions: 0
seven-body angular degree: 0
number of local descriptors per element for one-body potential: 1
number of local descriptors per element for two-body potential: 8
number of local descriptors per element for three-body potential: 56
number of local descriptors per element for four-body potential: 112
number of local descriptors per element for five-body potential: 0
number of local descriptors per element for six-body potential: 0
number of local descriptors per element for seven-body potential: 0
number of local descriptors per element for all potentials: 177
number of global descriptors: 1409
**************** End of POD Potentials ****************

**************** Begin of Model Coefficients ****************
total number of coefficients for POD potential: 1409
total number of elements for PCA projection matrix: 352
total number of elements for PCA centroids: 16
**************** End of Model Coefficients ****************


CITE-CITE-CITE-CITE-CITE-CITE-CITE-CITE-CITE-CITE-CITE-CITE-CITE

Your simulation uses code contributions which should be cited:
- Type Label Framework: https://doi.org/10.1021/acs.jpcb.3c08419
The log file lists these citations in BibTeX format.

CITE-CITE-CITE-CITE-CITE-CITE-CITE-CITE-CITE-CITE-CITE-CITE-CITE

Neighbor list info ...
  update: every = 1 steps, delay = 0 steps, check = no
  max neighbors/atom: 2000, page size: 100000
  master list distance cutoff = 7
  ghost atom cutoff = 7
  binsize = 3.5, bins = 7 7 6
  1 neighbor lists, perpetual/occasional/extra = 1 0 0
  (1) pair pod, perpetual
      attributes: full, newton on
      pair build: full/bin/atomonly
      stencil: full/bin/3d
      bin: standard
Setting up Verlet run ...
  Unit style    : metal
  Current step  : 0
  Time step     : 0.001
Per MPI rank memory allocation (min/avg/max) = 2.586 | 2.586 | 2.586 Mbytes
   Step          Temp          TotEng         PotEng         KinEng         Press          Volume    
         0   300           -3231.7429     -3249.0767      17.333785      27701.818      10112.159    
       100   314.6258      -3235.8865     -3254.0654      18.178854      9289.0012      10112.159    
       200   241.98988     -3236.2775     -3250.2595      13.982002      10599.749      10112.159    
       300   356.37829     -3234.5589     -3255.1502      20.591283      8756.8582      10112.159    
       400   341.27537     -3237.0258     -3256.7444      19.718647      9130.569       10112.159    
       500   313.32738     -3240.1348     -3258.2386      18.103832      8290.796       10112.159    
       600   270.75561     -3241.5507     -3257.1948      15.644066      8382.0957      10112.159    
       700   282.05683     -3240.9379     -3257.2349      16.297042      8889.6446      10112.159    
       800   304.52867     -3239.6538     -3257.2493      17.595449      8450.9967      10112.159    
       900   303.43124     -3238.7102     -3256.2422      17.53204       8507.4389      10112.159    
      1000   322.33792     -3238.4392     -3257.0637      18.624454      8597.9826      10112.159    
      1100   291.50881     -3239.3608     -3256.2039      16.843171      8696.1357      10112.159    
      1200   298.67427     -3240.454      -3257.7111      17.257186      8418.4318      10112.159    
      1300   286.31807     -3241.1311     -3257.6743      16.543254      7935.7699      10112.159    
      1400   311.62673     -3240.2581     -3258.2636      18.00557       8529.1164      10112.159    
      1500   287.19713     -3239.2939     -3255.8879      16.594045      8831.8827      10112.159    
      1600   324.27264     -3238.402      -3257.1383      18.736241      8807.31        10112.159    
      1700   296.56294     -3238.8725     -3256.0077      17.135195      9156.5726      10112.159    
      1800   306.55719     -3239.2471     -3256.9598      17.712655      8832.2106      10112.159    
      1900   297.46946     -3240.4001     -3257.5877      17.187573      8754.5569      10112.159    
      2000   283.02926     -3240.9132     -3257.2665      16.353228      8672.143       10112.159    
      2100   296.62759     -3240.3943     -3257.5333      17.13893       8991.0245      10112.159    
      2200   295.21815     -3239.9014     -3256.9589      17.057493      8684.2313      10112.159    
      2300   301.1937      -3239.2626     -3256.6653      17.402757      8899.0809      10112.159    
      2400   294.75581     -3239.059      -3256.0898      17.03078       8831.8284      10112.159    
      2500   310.7113      -3239.8634     -3257.816       17.952677      8886.9063      10112.159    
      2600   286.78979     -3241.1297     -3257.7002      16.570509      8667.4235      10112.159    
      2700   277.19333     -3241.3477     -3257.3638      16.016032      8557.7629      10112.159    
      2800   300.87395     -3239.9728     -3257.3571      17.384282      9009.3793      10112.159    
      2900   299.87794     -3239.2719     -3256.5987      17.326733      8866.8371      10112.159    
      3000   309.36368     -3239.1464     -3257.0212      17.874812      8999.7242      10112.159    
      3100   303.78433     -3239.4879     -3257.0403      17.552441      9262.8344      10112.159    
      3200   280.96977     -3240.6786     -3256.9128      16.234232      8543.8148      10112.159    
      3300   286.46594     -3241.5086     -3258.0604      16.551797      8165.4072      10112.159    
      3400   309.01734     -3240.6804     -3258.5352      17.854801      8342.0513      10112.159    
      3500   297.56678     -3239.2874     -3256.4806      17.193196      8894.9535      10112.159    
      3600   285.69515     -3238.5817     -3255.0889      16.507261      8881.3499      10112.159    
      3700   333.04867     -3237.8247     -3257.068       19.243314      8952.1783      10112.159    
      3800   306.6949      -3239.3967     -3257.1173      17.720612      8682.3631      10112.159    
      3900   306.54424     -3240.1132     -3257.8251      17.711907      8569.4612      10112.159    
      4000   276.23298     -3240.4896     -3256.4502      15.960544      8955.1078      10112.159    
      4100   316.99101     -3239.5181     -3257.8336      18.315514      8783.1515      10112.159    
      4200   297.07896     -3239.2999     -3256.4649      17.16501       8877.0566      10112.159    
      4300   302.50446     -3238.8834     -3256.3619      17.478491      9422.9658      10112.159    
      4400   294.34067     -3238.9913     -3255.9981      17.006793      9258.3068      10112.159    
      4500   302.80138     -3239.5732     -3257.0689      17.495647      8886.3235      10112.159    
      4600   282.75722     -3240.8634     -3257.201       16.33751       8925.8779      10112.159    
      4700   297.39992     -3240.8674     -3258.051       17.183554      8774.5164      10112.159    
      4800   303.83963     -3239.7791     -3257.3347      17.555637      8595.482       10112.159    
      4900   311.66311     -3238.7039     -3256.7116      18.007671      8931.0096      10112.159    
      5000   296.77208     -3239.2005     -3256.3478      17.147279      9442.9876      10112.159    
      5100   295.33769     -3240.0053     -3257.0697      17.0644        8988.2469      10112.159    
      5200   298.5882      -3240.3909     -3257.6431      17.252213      8704.9936      10112.159    
      5300   306.77592     -3239.6325     -3257.3578      17.725293      9019.6886      10112.159    
      5400   311.25606     -3238.1103     -3256.0944      17.984152      9462.478       10112.159    
      5500   312.89135     -3238.8366     -3256.9152      18.078639      8871.1433      10112.159    
      5600   303.43295     -3239.8473     -3257.3794      17.532139      8773.5273      10112.159    
      5700   289.29118     -3240.2656     -3256.9806      16.715038      8617.9215      10112.159    
      5800   305.89279     -3239.9429     -3257.6172      17.674266      8859.0498      10112.159    
      5900   290.24286     -3239.2608     -3256.0309      16.770025      8815.9532      10112.159    
      6000   334.32864     -3237.5119     -3256.8292      19.31727       9105.8857      10112.159    
      6100   299.74807     -3238.6594     -3255.9786      17.319229      9329.7652      10112.159    
      6200   317.90413     -3239.6392     -3258.0075      18.368273      9016.6256      10112.159    
      6300   281.55927     -3240.5011     -3256.7694      16.268293      8841.6622      10112.159    
      6400   316.1291      -3239.9072     -3258.1729      18.265713      8379.0085      10112.159    
      6500   285.89588     -3239.8252     -3256.344       16.518859      9308.6695      10112.159    
      6600   328.42076     -3238.3216     -3257.2975      18.975917      8873.6139      10112.159    
      6700   310.46004     -3237.8386     -3255.7767      17.938159      9257.9431      10112.159    
      6800   316.63537     -3238.1332     -3256.4282      18.294965      8959.6829      10112.159    
      6900   297.3306      -3239.8304     -3257.01        17.179549      8658.4092      10112.159    
      7000   298.65718     -3240.3467     -3257.6029      17.256198      8945.8365      10112.159    
      7100   301.27499     -3240.5089     -3257.9164      17.407453      8865.576       10112.159    
      7200   294.10349     -3240.2244     -3257.2174      16.993089      8748.7694      10112.159    
      7300   306.84651     -3239.0397     -3256.769       17.729372      9112.792       10112.159    
      7400   305.84184     -3238.5139     -3256.1853      17.671323      8883.4299      10112.159    
      7500   313.56798     -3238.569      -3256.6868      18.117734      9064.7158      10112.159    
      7600   277.96633     -3240.2342     -3256.2949      16.060696      9100.5202      10112.159    
      7700   299.80908     -3240.3864     -3257.7092      17.322754      8785.0257      10112.159    
      7800   286.65819     -3240.6611     -3257.224       16.562905      8922.2305      10112.159    
      7900   319.06295     -3239.5802     -3258.0154      18.435229      8785.2131      10112.159    
      8000   310.2983      -3238.4213     -3256.3501      17.928814      9268.7275      10112.159    
      8100   295.29837     -3238.6466     -3255.7088      17.062129      9351.6496      10112.159    
      8200   308.25733     -3240.0387     -3257.8496      17.810888      8806.6362      10112.159    
      8300   288.50868     -3240.8729     -3257.5428      16.669825      8866.4899      10112.159    
      8400   292.16754     -3240.4374     -3257.3186      16.881231      8924.7141      10112.159    
      8500   314.0618      -3239.4783     -3257.6245      18.146266      9085.6625      10112.159    
      8600   297.95943     -3239.2107     -3256.4266      17.215883      9347.6946      10112.159    
      8700   290.55894     -3239.4195     -3256.2078      16.788288      9330.39        10112.159    
      8800   305.69118     -3240.5981     -3258.2607      17.662618      8283.8065      10112.159    
      8900   280.0542      -3241.3675     -3257.5489      16.181332      8734.5072      10112.159    
      9000   312.04752     -3240.4903     -3258.5201      18.029883      8890.7831      10112.159    
      9100   299.46234     -3239.7909     -3257.0936      17.30272       8878.5062      10112.159    
      9200   293.23294     -3239.1124     -3256.0552      16.94279       9219.2539      10112.159    
      9300   310.70498     -3239.0352     -3256.9875      17.952312      9160.4912      10112.159    
      9400   294.52363     -3239.7663     -3256.7837      17.017364      8822.7325      10112.159    
      9500   317.966       -3239.9798     -3258.3517      18.371848      8654.5582      10112.159    
      9600   276.54199     -3240.9658     -3256.9442      15.978399      8773.591       10112.159    
      9700   294.74259     -3241.0165     -3258.0465      17.030016      8907.0536      10112.159    
      9800   301.2013      -3239.6771     -3257.0803      17.403196      9222.3871      10112.159    
      9900   307.46732     -3238.5112     -3256.2765      17.765242      8899.8753      10112.159    
     10000   318.50312     -3238.2628     -3256.6657      18.402883      9009.6114      10112.159    
     10100   291.01998     -3239.8207     -3256.6356      16.814926      8992.6814      10112.159    
     10200   294.04021     -3240.5352     -3257.5247      16.989433      8899.3139      10112.159    
     10300   291.17078     -3240.5348     -3257.3585      16.823639      8889.1248      10112.159    
     10400   316.39727     -3239.6145     -3257.8958      18.281208      8703.3637      10112.159    
     10500   312.70575     -3238.7447     -3256.8126      18.067915      8987.1218      10112.159    
     10600   296.21093     -3238.2908     -3255.4056      17.114855      9768.6853      10112.159    
     10700   315.91212     -3238.7966     -3257.0498      18.253177      9085.0093      10112.159    
     10800   304.87946     -3240.1858     -3257.8015      17.615717      8866.2252      10112.159    
     10900   291.78164     -3240.928      -3257.787       16.858934      8767.8045      10112.159    
     11000   288.98638     -3240.7506     -3257.4481      16.697426      8772.514       10112.159    
     11100   305.57674     -3239.2113     -3256.8673      17.656005      9186.8898      10112.159    
     11200   303.40916     -3238.9617     -3256.4924      17.530764      8935.5502      10112.159    
     11300   300.84138     -3239.3638     -3256.7462      17.3824        9422.155       10112.159    
     11400   312.61357     -3239.5758     -3257.6383      18.062588      8709.612       10112.159    
     11500   289.52608     -3240.3543     -3257.0829      16.72861       8881.027       10112.159    
     11600   287.16318     -3240.2653     -3256.8574      16.592083      9097.341       10112.159    
     11700   297.96425     -3240.2177     -3257.4339      17.216161      8848.4676      10112.159    
     11800   302.19879     -3240.4457     -3257.9065      17.46083       8844.1965      10112.159    
     11900   293.08022     -3240.2234     -3257.1573      16.933966      8656.8426      10112.159    
     12000   310.11168     -3238.8252     -3256.7432      17.918031      9008.6761      10112.159    
     12100   304.85804     -3238.93       -3256.5445      17.614479      9176.4729      10112.159    
     12200   290.22592     -3239.931      -3256.7         16.769046      8777.9076      10112.159    
     12300   276.77978     -3241.8199     -3257.8121      15.992138      8585.0618      10112.159    
     12400   294.09167     -3242.2185     -3259.2109      16.992406      8296.4529      10112.159    
     12500   281.6639      -3241.4558     -3257.7301      16.274339      8547.2473      10112.159    
     12600   292.75849     -3240.1387     -3257.054       16.915376      8690.0573      10112.159    
     12700   303.09636     -3239.5113     -3257.024       17.512691      9171.6932      10112.159    
     12800   294.88683     -3239.4546     -3256.493       17.03835       9011.2252      10112.159    
     12900   323.04319     -3239.1734     -3257.8386      18.665204      8747.0614      10112.159    
     13000   290.81777     -3240.3353     -3257.1386      16.803242      9007.974       10112.159    
     13100   288.89751     -3241.1425     -3257.8348      16.692291      8748.8916      10112.159    
     13200   291.87056     -3240.7389     -3257.6029      16.864072      8719.5206      10112.159    
     13300   304.73975     -3239.0654     -3256.6731      17.607645      8987.2561      10112.159    
     13400   327.27535     -3238.5919     -3257.5016      18.909736      8783.7379      10112.159    
     13500   286.0211      -3239.534      -3256.0601      16.526094      9440.2135      10112.159    
     13600   324.15909     -3239.7333     -3258.4629      18.729681      8848.115       10112.159    
     13700   297.9598      -3240.4395     -3257.6554      17.215904      8798.6703      10112.159    
     13800   299.17683     -3240.2651     -3257.5513      17.286224      8928.4983      10112.159    
     13900   305.78874     -3238.9789     -3256.6472      17.668255      8977.5791      10112.159    
     14000   305.12314     -3237.6601     -3255.2899      17.629797      9727.208       10112.159    
     14100   320.61998     -3238.0766     -3256.6018      18.525193      8927.0786      10112.159    
     14200   304.96593     -3239.8674     -3257.4881      17.620713      9169.8932      10112.159    
     14300   286.92896     -3240.2975     -3256.876       16.57855       8876.3507      10112.159    
     14400   288.42227     -3240.125      -3256.7898      16.664833      8876.5086      10112.159    
     14500   311.61013     -3239.3385     -3257.3431      18.00461       8873.2491      10112.159    
     14600   313.90855     -3238.6817     -3256.8191      18.137411      8932.7499      10112.159    
     14700   296.23481     -3239.7217     -3256.8379      17.116235      8881.6583      10112.159    
     14800   289.85155     -3241.1423     -3257.8897      16.747415      8780.2595      10112.159    
     14900   286.41455     -3241.2868     -3257.8357      16.548828      8912.4248      10112.159    
     15000   295.70315     -3240.3432     -3257.4287      17.085516      8710.6555      10112.159    
     15100   316.30823     -3239.3258     -3257.6019      18.276063      8958.5251      10112.159    
     15200   296.58687     -3239.5314     -3256.668       17.136577      9257.2969      10112.159    
     15300   303.26337     -3239.7554     -3257.2777      17.522341      8762.9266      10112.159    
     15400   291.53213     -3240.7231     -3257.5676      16.844518      8883.5783      10112.159    
     15500   298.56545     -3241.3235     -3258.5744      17.250898      8390.5747      10112.159    
     15600   291.44695     -3240.8526     -3257.6922      16.839597      8783.2721      10112.159    
     15700   301.96065     -3239.2284     -3256.6754      17.447071      9299.1786      10112.159    
     15800   300.67931     -3238.9166     -3256.2896      17.373036      9135.3036      10112.159    
     15900   310.3302      -3239.2069     -3257.1376      17.930657      9087.4253      10112.159    
     16000   288.56123     -3240.884      -3257.5568      16.672862      8947.3953      10112.159    
     16100   281.48739     -3241.3029     -3257.567       16.26414       8928.7437      10112.159    
     16200   298.08062     -3240.5061     -3257.729       17.222885      8811.5898      10112.159    
     16300   305.19427     -3239.855      -3257.4889      17.633907      8765.6946      10112.159    
     16400   285.25979     -3239.7637     -3256.2459      16.482107      9555.2617      10112.159    
     16500   315.77054     -3239.1626     -3257.4075      18.244996      9194.893       10112.159    
     16600   289.0426      -3239.769      -3256.4696      16.700675      9153.3837      10112.159    
     16700   309.79507     -3240.0426     -3257.9423      17.899738      8858.6123      10112.159    
     16800   311.21098     -3240.0926     -3258.0742      17.981548      8774.1888      10112.159    
     16900   292.72489     -3239.9905     -3256.9039      16.913435      9059.7632      10112.159    
     17000   300.38263     -3239.2784     -3256.6343      17.355894      9200.0728      10112.159    
     17100   316.76693     -3238.2941     -3256.5967      18.302567      9396.5115      10112.159    
     17200   321.16701     -3237.6955     -3256.2523      18.5568        9390.1925      10112.159    
     17300   317.31654     -3239.1416     -3257.476       18.334323      8882.5179      10112.159    
     17400   285.66211     -3240.4199     -3256.9252      16.505352      9097.7691      10112.159    
     17500   288.21932     -3240.504      -3257.1571      16.653106      8785.1131      10112.159    
     17600   295.6091      -3239.9461     -3257.0261      17.080082      9033.6592      10112.159    
     17700   314.33029     -3238.8756     -3257.0374      18.161779      9209.7903      10112.159    
     17800   316.22522     -3238.7486     -3257.0199      18.271267      8974.1349      10112.159    
     17900   299.43522     -3239.8483     -3257.1495      17.301153      9095.8071      10112.159    
     18000   285.01862     -3241.3703     -3257.8385      16.468172      8752.3642      10112.159    
     18100   307.73573     -3241.0184     -3258.7991      17.78075       8677.2104      10112.159    
     18200   293.81266     -3239.9238     -3256.9001      16.976285      8992.2133      10112.159    
     18300   296.22532     -3239.3626     -3256.4783      17.115687      9258.6751      10112.159    
     18400   289.07412     -3239.695      -3256.3975      16.702496      9253.936       10112.159    
     18500   324.17611     -3239.5159     -3258.2466      18.730664      8818.9451      10112.159    
     18600   292.26656     -3240.5779     -3257.4648      16.886953      8898.9131      10112.159    
     18700   280.4199      -3241.9985     -3258.201       16.202461      8578.5734      10112.159    
     18800   284.05624     -3241.4408     -3257.8534      16.412566      8860.7838      10112.159    
     18900   296.8856      -3240.5491     -3257.7029      17.153838      8626.3226      10112.159    
     19000   295.28332     -3239.9273     -3256.9886      17.061259      8894.455       10112.159    
     19100   301.48123     -3239.285      -3256.7044      17.41937       9074.9599      10112.159    
     19200   309.91112     -3239.0009     -3256.9074      17.906443      8965.1201      10112.159    
     19300   284.65888     -3240.0774     -3256.5247      16.447387      8905.935       10112.159    
     19400   298.81577     -3241.0735     -3258.3388      17.265361      8654.8292      10112.159    
     19500   291.00572     -3241.0593     -3257.8734      16.814102      8749.1544      10112.159    
     19600   315.30189     -3239.421      -3257.6389      18.217918      8883.1081      10112.159    
     19700   289.54431     -3239.4808     -3256.2105      16.729663      9098.8471      10112.159    
     19800   312.40146     -3239.2538     -3257.3042      18.050333      8683.6548      10112.159    
     19900   296.41153     -3239.7053     -3256.8317      17.126446      9308.038       10112.159    
     20000   277.94599     -3241.0886     -3257.1481      16.05952       8812.4767      10112.159    
     20100   301.76561     -3241.2419     -3258.6777      17.435801      8358.9219      10112.159    
     20200   306.27624     -3240.0653     -3257.7617      17.696422      8768.0298      10112.159    
     20300   307.34858     -3238.4869     -3256.2453      17.758381      9060.1069      10112.159    
     20400   304.66509     -3238.5123     -3256.1157      17.603331      9396.393       10112.159    
     20500   296.02824     -3239.784      -3256.8883      17.1043        8874.727       10112.159    
     20600   302.03341     -3240.4227     -3257.874       17.451274      8584.3628      10112.159    
     20700   289.59722     -3240.7237     -3257.4564      16.73272       8972.1692      10112.159    
     20800   274.58234     -3240.3889     -3256.2541      15.865171      8981.7911      10112.159    
     20900   318.90113     -3238.6632     -3257.0891      18.425879      8485.0066      10112.159    
     21000   299.94893     -3238.9495     -3256.2804      17.330835      9065.9454      10112.159    
     21100   303.88382     -3239.4721     -3257.0303      17.55819       8791.904       10112.159    
     21200   290.50662     -3240.639      -3257.4242      16.785265      8695.0957      10112.159    
     21300   298.44766     -3241.0043     -3258.2484      17.244092      8559.6573      10112.159    
     21400   296.37923     -3240.3557     -3257.4802      17.12458       8897.2022      10112.159    
     21500   299.19188     -3238.5006     -3255.7877      17.287093      9092.067       10112.159    
     21600   300.59637     -3238.5394     -3255.9077      17.368243      9465.769       10112.159    
     21700   302.01596     -3239.3564     -3256.8067      17.450266      9095.9153      10112.159    
     21800   311.37266     -3240.3706     -3258.3615      17.990889      8851.3541      10112.159    
     21900   280.41604     -3241.4736     -3257.6758      16.202238      8622.6717      10112.159    
     22000   292.95909     -3240.9899     -3257.9169      16.926967      8955.6239      10112.159    
     22100   296.79341     -3240.2771     -3257.4256      17.148511      8530.4149      10112.159    
     22200   312.51935     -3239.3889     -3257.4461      18.057145      8973.4918      10112.159    
     22300   289.12403     -3239.2135     -3255.9189      16.70538       9413.8158      10112.159    
     22400   316.96477     -3238.1788     -3256.4928      18.313998      9262.047       10112.159    
     22500   325.05563     -3237.4818     -3256.2633      18.781482      9575.0698      10112.159    
     22600   304.66347     -3239.0225     -3256.6258      17.603238      9242.7225      10112.159    
     22700   303.6591      -3239.9509     -3257.4961      17.545206      8625.6168      10112.159    
     22800   307.16093     -3240.3311     -3258.0787      17.747539      8744.3075      10112.159    
     22900   267.39005     -3241.0584     -3256.5081      15.449606      9000.528       10112.159    
     23000   305.36954     -3239.9159     -3257.5599      17.644034      8909.1863      10112.159    
     23100   302.93434     -3238.6557     -3256.159       17.503329      9138.0953      10112.159    
     23200   326.19362     -3238.6381     -3257.4853      18.847234      9066.3171      10112.159    
     23300   291.57869     -3239.3431     -3256.1903      16.847208      9102.0025      10112.159    
     23400   305.22357     -3239.5394     -3257.175       17.635599      9228.7038      10112.159    
     23500   289.44318     -3240.343      -3257.0668      16.72382       8982.1408      10112.159    
     23600   298.61754     -3240.8326     -3258.0866      17.253908      8845.3903      10112.159    
     23700   307.87332     -3241.1356     -3258.9243      17.7887        8435.4265      10112.159    
     23800   287.1249      -3240.5162     -3257.1061      16.589871      8701.4791      10112.159    
     23900   287.24885     -3239.1858     -3255.7828      16.597033      9518.2372      10112.159    
     24000   321.43638     -3238.5442     -3257.1165      18.572364      9200.0922      10112.159    
     24100   307.35796     -3239.1106     -3256.8695      17.758923      8977.7948      10112.159    
     24200   302.82502     -3240.0892     -3257.5862      17.497013      9081.2449      10112.159    
     24300   285.62353     -3241.2694     -3257.7725      16.503123      8697.0259      10112.159    
     24400   292.50762     -3240.9863     -3257.8872      16.900881      8645.3321      10112.159    
     24500   291.21567     -3240.3349     -3257.1612      16.826233      8783.701       10112.159    
     24600   307.8458      -3239.2941     -3257.0812      17.78711       8765.9753      10112.159    
     24700   316.46679     -3238.8011     -3257.0863      18.285225      8939.4913      10112.159    
     24800   286.36797     -3239.7295     -3256.2756      16.546136      9093.8904      10112.159    
     24900   293.96361     -3241.5152     -3258.5002      16.985007      8570.7612      10112.159    
     25000   277.91485     -3241.6243     -3257.6821      16.057721      8739.4814      10112.159    
     25100   303.8294      -3240.3692     -3257.9243      17.555046      8850.3818      10112.159    
     25200   305.93479     -3239.7468     -3257.4235      17.676693      9179.4574      10112.159    
     25300   289.90691     -3239.6137     -3256.3643      16.750614      9204.2668      10112.159    
     25400   310.71745     -3239.0039     -3256.9569      17.953032      9050.0358      10112.159    
     25500   312.20042     -3238.612      -3256.6507      18.038717      9255.5512      10112.159    
     25600   297.3756      -3239.4808     -3256.6629      17.182149      9190.3082      10112.159    
     25700   294.691       -3240.6646     -3257.6916      17.027035      8729.6287      10112.159    
     25800   299.03016     -3240.8275     -3258.1053      17.277749      8513.9017      10112.159    
     25900   286.07399     -3240.2224     -3256.7515      16.52915       9010.9716      10112.159    
     26000   310.54648     -3238.3393     -3256.2824      17.943154      9338.4894      10112.159    
     26100   313.91638     -3238.4521     -3256.59        18.137864      9418.6184      10112.159    
     26200   320.54065     -3239.2488     -3257.7694      18.52061       8730.2356      10112.159    
     26300   289.87277     -3240.4101     -3257.1587      16.748641      8934.5338      10112.159    
     26400   298.586       -3240.4879     -3257.74        17.252086      8823.7006      10112.159    
     26500   274.64641     -3240.1631     -3256.032       15.868873      8964.0429      10112.159    
     26600   321.01222     -3239.2426     -3257.7905      18.547857      9031.5253      10112.159    
     26700   303.07845     -3239.6075     -3257.1192      17.511656      8993.8715      10112.159    
     26800   291.00964     -3239.8845     -3256.6988      16.814329      9217.7645      10112.159    
     26900   296.25846     -3239.9058     -3257.0234      17.117602      8614.5725      10112.159    
     27000   304.81932     -3239.7248     -3257.337       17.612242      8972.2772      10112.159    
     27100   300.76855     -3239.5256     -3256.9037      17.378192      9186.1433      10112.159    
     27200   287.63424     -3239.8547     -3256.474       16.619301      8674.5516      10112.159    
     27300   310.07978     -3239.9438     -3257.86        17.916188      8998.2781      10112.159    
     27400   297.26092     -3240.548      -3257.7235      17.175524      8730.0056      10112.159    
     27500   291.20884     -3241.0064     -3257.8322      16.825838      8826.7438      10112.159    
     27600   296.06085     -3239.9457     -3257.0518      17.106184      8937.0895      10112.159    
     27700   297.0496      -3238.9483     -3256.1116      17.163313      9248.1668      10112.159    
     27800   312.3631      -3239.0837     -3257.1318      18.048116      9143.7315      10112.159    
     27900   296.90433     -3240.1353     -3257.2902      17.15492       8784.6383      10112.159    
     28000   282.65613     -3241.2446     -3257.5762      16.331669      8793.9911      10112.159    
     28100   281.22588     -3243.1486     -3259.3976      16.24903       8171.0491      10112.159    
     28200   269.87766     -3243.041      -3258.6344      15.593338      8273.4109      10112.159    
     28300   285.37338     -3241.7891     -3258.2778      16.48867       8684.8269      10112.159    
     28400   295.5213      -3240.524      -3257.599       17.075009      8955.8709      10112.159    
     28500   288.98302     -3239.4852     -3256.1824      16.697232      9336.9917      10112.159    
     28600   309.45043     -3238.7514     -3256.6313      17.879825      9324.478       10112.159    
     28700   319.11914     -3239.0139     -3257.4523      18.438476      9059.8597      10112.159    
     28800   266.62253     -3240.9247     -3256.3299      15.405259      8802.0548      10112.159    
     28900   305.66304     -3240.5919     -3258.2529      17.660992      8614.4051      10112.159    
     29000   295.11456     -3240.4723     -3257.5238      17.051508      9021.6896      10112.159    
     29100   305.99587     -3239.6955     -3257.3757      17.680223      8563.7776      10112.159    
     29200   306.30545     -3238.2417     -3255.9398      17.69811       9041.3337      10112.159    
     29300   323.72198     -3237.8762     -3256.5807      18.704424      9206.1171      10112.159    
     29400   295.85878     -3239.0119     -3256.1064      17.094509      9210.3881      10112.159    
     29500   305.33796     -3239.3987     -3257.0409      17.642209      9092.4534      10112.159    
     29600   301.1885      -3240.1876     -3257.59        17.402456      8832.7837      10112.159    
     29700   299.58307     -3241.013      -3258.3227      17.309696      8393.2339      10112.159    
     29800   277.26689     -3241.3748     -3257.3951      16.020283      8624.0935      10112.159    
     29900   315.58264     -3239.3283     -3257.5625      18.234139      9041.7732      10112.159    
     30000   303.19595     -3238.9491     -3256.4676      17.518445      9159.4623      10112.159    
     30100   313.07577     -3238.9542     -3257.0435      18.089294      9181.2835      10112.159    
     30200   290.51176     -3240.1027     -3256.8883      16.785562      8955.4994      10112.159    
     30300   294.9501      -3241.3242     -3258.3662      17.042006      8475.2309      10112.159    
     30400   284.93079     -3241.4763     -3257.9394      16.463098      8593.9526      10112.159    
     30500   284.43324     -3240.8335     -3257.2678      16.434349      8710.463       10112.159    
     30600   303.28454     -3240.1643     -3257.6879      17.523564      8812.2323      10112.159    
     30700   300.0682      -3239.7181     -3257.0559      17.337726      8793.8905      10112.159    
     30800   323.51897     -3238.517      -3257.2096      18.692695      9322.2313      10112.159    
     30900   299.59084     -3238.4149     -3255.7251      17.310144      9715.1393      10112.159    
     31000   294.85297     -3240.3779     -3257.4143      17.036394      8852.7963      10112.159    
     31100   298.55202     -3241.2279     -3258.478       17.250122      8731.8704      10112.159    
     31200   284.07977     -3241.0033     -3257.4173      16.413926      8444.3797      10112.159    
     31300   315.13804     -3239.5212     -3257.7296      18.20845       8887.301       10112.159    
     31400   297.06854     -3239.2924     -3256.4568      17.164408      9185.2603      10112.159    
     31500   297.77359     -3239.5381     -3256.7433      17.205145      9226.1784      10112.159    
     31600   301.22951     -3240.5005     -3257.9053      17.404826      8670.1208      10112.159    
     31700   305.74425     -3241.6531     -3259.3188      17.665684      8133.656       10112.159    
     31800   261.8242      -3242.5407     -3257.6687      15.128015      8730.8659      10112.159    
     31900   291.16799     -3240.9482     -3257.7716      16.823478      8783.5025      10112.159    
     32000   305.53026     -3239.6374     -3257.2907      17.65332       8693.3323      10112.159    
     32100   304.53065     -3239.1501     -3256.7457      17.595563      9229.2559      10112.159    
     32200   305.25344     -3239.0789     -3256.7163      17.637325      9252.0311      10112.159    
     32300   288.24283     -3240.1866     -3256.8411      16.654465      8749.4237      10112.159    
     32400   293.14065     -3241.2784     -3258.2159      16.937457      8539.3216      10112.159    
     32500   296.0001      -3241.1841     -3258.2868      17.102674      8553.5589      10112.159    
     32600   294.39175     -3240.1278     -3257.1375      17.009745      8779.0547      10112.159    
     32700   291.47713     -3239.898      -3256.7394      16.84134       8862.6361      10112.159    
     32800   312.20543     -3239.6607     -3257.6997      18.039006      9178.5368      10112.159    
     32900   284.86807     -3239.9076     -3256.3671      16.459473      8881.6452      10112.159    
     33000   315.09281     -3239.3254     -3257.5312      18.205837      9019.4909      10112.159    
     33100   295.83008     -3239.6819     -3256.7747      17.092851      8965.1169      10112.159    
     33200   293.42766     -3240.5859     -3257.5399      16.954041      8571.6566      10112.159    
     33300   277.44239     -3241.6062     -3257.6367      16.030423      8369.2807      10112.159    
     33400   292.90554     -3240.9542     -3257.8781      16.923872      8459.8458      10112.159    
     33500   299.30811     -3239.594      -3256.8878      17.293809      9320.7838      10112.159    
     33600   312.94506     -3239.1669     -3257.2486      18.081742      8676.301       10112.159    
     33700   302.08194     -3239.2979     -3256.7519      17.454079      8998.2453      10112.159    
     33800   277.61558     -3240.1956     -3256.236       16.040429      9265.6849      10112.159    
     33900   299.41078     -3241.1837     -3258.4835      17.299741      8381.8676      10112.159    
     34000   278.56098     -3242.5019     -3258.597       16.095054      8336.7083      10112.159    
     34100   305.43915     -3241.3332     -3258.9813      17.648056      8190.6561      10112.159    
     34200   280.94289     -3239.6049     -3255.8376      16.232679      9243.7375      10112.159    
     34300   313.09171     -3239.0046     -3257.0948      18.090215      8881.2326      10112.159    
     34400   294.93351     -3239.6646     -3256.7056      17.041047      8750.4031      10112.159    
     34500   288.36181     -3240.4763     -3257.1377      16.661339      8640.3717      10112.159    
     34600   290.93027     -3241.3387     -3258.1485      16.809743      8401.062       10112.159    
     34700   294.69529     -3241.2936     -3258.3209      17.027283      8292.3825      10112.159    
     34800   291.60933     -3239.4312     -3256.2801      16.848979      8978.1539      10112.159    
     34900   312.48942     -3238.9274     -3256.9828      18.055415      8965.2199      10112.159    
     35000   306.31327     -3239.5077     -3257.2063      17.698562      8972.6219      10112.159    
     35100   285.32578     -3240.3214     -3256.8073      16.48592       8469.2969      10112.159    
     35200   305.89412     -3240.4435     -3258.1179      17.674343      8754.014       10112.159    
     35300   273.64817     -3241.5124     -3257.3236      15.811196      8615.8242      10112.159    
     35400   300.01293     -3241.3486     -3258.6831      17.334532      8255.6023      10112.159    
     35500   309.54938     -3240.0297     -3257.9153      17.885542      8463.6246      10112.159    
     35600   285.37618     -3239.3599     -3255.8488      16.488831      9190.4771      10112.159    
     35700   305.2954      -3238.7964     -3256.4362      17.63975       8684.1719      10112.159    
     35800   305.9737      -3239.1003     -3256.7792      17.678942      9041.3342      10112.159    
     35900   300.03984     -3240.9283     -3258.2644      17.336087      8582.4346      10112.159    
     36000   291.99795     -3241.4736     -3258.345       16.871433      8608.7773      10112.159    
     36100   280.1707      -3240.7243     -3256.9124      16.188063      8463.8736      10112.159    
     36200   301.32955     -3239.8193     -3257.2299      17.410606      8994.7588      10112.159    
     36300   309.16314     -3239.3774     -3257.2406      17.863225      8914.8219      10112.159    
     36400   293.53583     -3239.2159     -3256.1762      16.96029       9295.4777      10112.159    
     36500   307.07452     -3239.8006     -3257.5431      17.742546      9007.4557      10112.159    
     36600   293.4207      -3240.9835     -3257.9372      16.953638      8166.2488      10112.159    
     36700   312.57429     -3240.4883     -3258.5486      18.060319      8809.3409      10112.159    
     36800   282.43259     -3240.2384     -3256.5572      16.318753      9022.1485      10112.159    
     36900   312.82593     -3238.4706     -3256.5455      18.074858      9090.5485      10112.159    
     37000   310.72822     -3238.1789     -3256.1325      17.953655      8992.0494      10112.159    
     37100   308.93575     -3239.0107     -3256.8608      17.850087      8989.4883      10112.159    
     37200   294.23844     -3239.9591     -3256.9599      17.000887      8945.4208      10112.159    
     37300   293.68344     -3240.2973     -3257.2661      16.968819      9085.7457      10112.159    
     37400   296.48944     -3240.2135     -3257.3444      17.130948      8741.277       10112.159    
     37500   314.24123     -3239.4388     -3257.5954      18.156634      8838.9489      10112.159    
     37600   296.39582     -3238.2863     -3255.4119      17.125539      9408.1792      10112.159    
     37700   330.99536     -3237.148      -3256.2726      19.124675      9584.1464      10112.159    
     37800   307.97536     -3238.5507     -3256.3453      17.794596      9601.6967      10112.159    
     37900   316.29184     -3239.5446     -3257.8197      18.275116      9041.32        10112.159    
     38000   283.44228     -3240.352      -3256.7291      16.377092      8846.5655      10112.159    
     38100   301.76129     -3239.8812     -3257.3168      17.435552      9210.4307      10112.159    
     38200   300.42713     -3239.4514     -3256.8099      17.358465      9002.7636      10112.159    
     38300   302.63162     -3239.2277     -3256.7135      17.485839      9137.2225      10112.159    
     38400   316.23239     -3239.2468     -3257.5185      18.271682      9037.28        10112.159    
     38500   288.3825      -3240.2106     -3256.8731      16.662535      8868.4682      10112.159    
     38600   307.45914     -3240.5306     -3258.2954      17.764769      8542.9011      10112.159    
     38700   285.20519     -3241.143      -3257.622       16.478952      8696.7093      10112.159    
     38800   300.75665     -3240.4221     -3257.7996      17.377504      9019.3086      10112.159    
     38900   305.24769     -3238.9841     -3256.6211      17.636993      9003.6355      10112.159    
     39000   328.62068     -3237.9382     -3256.9256      18.987468      9204.0368      10112.159    
     39100   314.71023     -3238.9395     -3257.1232      18.183732      9000.7068      10112.159    
     39200   294.09107     -3239.9534     -3256.9458      16.992372      8972.2444      10112.159    
     39300   290.3061      -3240.2118     -3256.9855      16.773679      9084.0976      10112.159    
     39400   302.76774     -3239.835      -3257.3287      17.493704      8978.6644      10112.159    
     39500   322.16022     -3238.8781     -3257.4923      18.614187      8939.5197      10112.159    
     39600   305.11324     -3238.2845     -3255.9137      17.629225      9447.2925      10112.159    
     39700   314.37405     -3238.2374     -3256.4017      18.164308      9458.3112      10112.159    
     39800   298.53551     -3239.6928     -3256.9419      17.249168      9275.5431      10112.159    
     39900   295.18234     -3240.375      -3257.4304      17.055424      8600.329       10112.159    
     40000   315.63256     -3240.4066     -3258.6437      18.237024      8467.6105      10112.159    
     40100   289.28627     -3240.4886     -3257.2034      16.714754      8808.6311      10112.159    
     40200   296.74069     -3238.729      -3255.8745      17.145465      9278.053       10112.159    
     40300   313.74817     -3237.5892     -3255.7173      18.128145      9570.9543      10112.159    
     40400   319.78481     -3238.463      -3256.9399      18.476938      8996.7143      10112.159    
     40500   310.20229     -3239.454      -3257.3772      17.923267      8731.3179      10112.159    
     40600   293.69762     -3240.1529     -3257.1225      16.969639      8853.8949      10112.159    
     40700   290.43696     -3240.381      -3257.1623      16.78124       9232.9143      10112.159    
     40800   292.55431     -3240.3119     -3257.2155      16.903579      9272.6078      10112.159    
     40900   305.83511     -3239.9402     -3257.6111      17.670934      8757.3162      10112.159    
     41000   300.42413     -3239.1465     -3256.5048      17.358292      9041.9358      10112.159    
     41100   315.51876     -3238.5568     -3256.7872      18.230448      9259.4216      10112.159    
     41200   294.56528     -3239.5159     -3256.5356      17.019771      9138.5366      10112.159    
     41300   302.94506     -3240.5495     -3258.0535      17.503949      8738.72        10112.159    
     41400   293.28512     -3241.1648     -3258.1106      16.945804      8672.4137      10112.159    
     41500   285.53258     -3240.9454     -3257.4433      16.497868      8655.2757      10112.159    
     41600   320.02259     -3239.0356     -3257.5263      18.490677      9069.5237      10112.159    
     41700   301.96771     -3238.9848     -3256.4322      17.447478      9280.4184      10112.159    
     41800   306.47155     -3239.4062     -3257.1139      17.707707      9147.665       10112.159    
     41900   292.40481     -3240.7188     -3257.6137      16.894941      8661.1608      10112.159    
     42000   300.73092     -3240.6617     -3258.0377      17.376018      8864.1382      10112.159    
     42100   289.64508     -3240.1095     -3256.845       16.735486      8856.2745      10112.159    
     42200   306.74315     -3238.5714     -3256.2948      17.7234        9264.5644      10112.159    
     42300   328.54249     -3237.5819     -3256.5649      18.98295       8934.4731      10112.159    
     42400   304.82511     -3238.3772     -3255.9897      17.612577      9336.2769      10112.159    
     42500   313.08137     -3239.4197     -3257.5093      18.089618      8995.2706      10112.159    
     42600   279.30899     -3240.456      -3256.5943      16.138273      9091.916       10112.159    
     42700   314.87702     -3240.0499     -3258.2432      18.193369      8856.0865      10112.159    
     42800   298.28358     -3240.1277     -3257.3623      17.234612      8941.932       10112.159    
     42900   296.70497     -3239.5671     -3256.7105      17.143401      8894.4667      10112.159    
     43000   323.6673      -3238.3077     -3257.009       18.701265      9642.0395      10112.159    
     43100   308.26011     -3238.3748     -3256.1859      17.811049      9403.2206      10112.159    
     43200   302.57831     -3239.8354     -3257.3181      17.482759      8925.888       10112.159    
     43300   288.55819     -3240.7697     -3257.4424      16.672686      8785.9365      10112.159    
     43400   289.12471     -3240.4323     -3257.1377      16.705419      8836.7004      10112.159    
     43500   314.69871     -3239.7355     -3257.9185      18.183066      8629.7201      10112.159    
     43600   302.79391     -3239.4729     -3256.9681      17.495216      9031.5036      10112.159    
     43700   313.7399      -3237.7294     -3255.8571      18.127667      9220.1988      10112.159    
     43800   305.37478     -3237.9563     -3255.6006      17.644336      9330.146       10112.159    
     43900   309.53656     -3239.2564     -3257.1412      17.884801      9141.5163      10112.159    
     44000   314.31426     -3239.6892     -3257.8501      18.160853      9088.4307      10112.159    
     44100   297.63383     -3240.2557     -3257.4528      17.19707       8949.1409      10112.159    
     44200   289.63562     -3240.6419     -3257.3768      16.734939      8620.2322      10112.159    
     44300   289.26845     -3240.5447     -3257.2584      16.713724      8792.8371      10112.159    
     44400   317.23224     -3239.0628     -3257.3923      18.329452      9052.7838      10112.159    
     44500   310.37223     -3238.7691     -3256.7022      17.933086      9287.4823      10112.159    
     44600   316.10661     -3239.2174     -3257.4818      18.264414      8890.6376      10112.159    
     44700   287.77963     -3240.9655     -3257.5933      16.627701      8943.6791      10112.159    
     44800   278.7046      -3241.3254     -3257.4287      16.103352      9031.5181      10112.159    
     44900   304.28761     -3240.4979     -3258.0794      17.581521      8526.5246      10112.159    
     45000   302.77726     -3239.9739     -3257.4682      17.494253      8784.2527      10112.159    
     45100   304.86812     -3239.2439     -3256.859       17.615062      9252.5538      10112.159    
     45200   306.93707     -3238.8946     -3256.6292      17.734604      9213.9025      10112.159    
     45300   285.07811     -3240.9258     -3257.3974      16.471609      8634.5582      10112.159    
     45400   310.18368     -3241.315      -3259.2372      17.922191      8427.2559      10112.159    
     45500   285.33094     -3241.0199     -3257.5062      16.486218      8672.3061      10112.159    
     45600   302.07426     -3239.5601     -3257.0138      17.453634      9478.5337      10112.159    
     45700   299.2499      -3239.2576     -3256.548       17.290445      9128.7215      10112.159    
     45800   303.52608     -3239.3434     -3256.8809      17.53752       9172.5166      10112.159    
     45900   308.57941     -3239.7575     -3257.587       17.829497      8999.8754      10112.159    
     46000   283.34977     -3241.3301     -3257.7018      16.371747      8562.1206      10112.159    
     46100   284.00433     -3241.4155     -3257.825       16.409567      8772.1513      10112.159    
     46200   295.68199     -3240.3157     -3257.4         17.084294      8795.3916      10112.159    
     46300   307.45765     -3238.8814     -3256.6461      17.764683      9281.0482      10112.159    
     46400   309.27354     -3239.0356     -3256.9052      17.869604      9042.0624      10112.159    
     46500   301.72092     -3239.9273     -3257.3605      17.433219      8982.5092      10112.159    
     46600   296.26257     -3240.7002     -3257.818       17.117839      8799.7274      10112.159    
     46700   287.80824     -3240.834      -3257.4634      16.629354      8742.399       10112.159    
     46800   306.73748     -3238.8725     -3256.5956      17.723072      9148.9867      10112.159    
     46900   308.88346     -3238.2775     -3256.1246      17.847065      9380.3897      10112.159    
     47000   301.41839     -3239.0007     -3256.4164      17.415739      9312.4171      10112.159    
     47100   316.92203     -3239.8294     -3258.1409      18.311528      8974.4699      10112.159    
     47200   286.26791     -3240.8085     -3257.3489      16.540355      8790.9706      10112.159    
     47300   284.94837     -3240.6904     -3257.1545      16.464113      9096.6674      10112.159    
     47400   293.1421      -3240.3856     -3257.3231      16.937541      8712.1887      10112.159    
     47500   311.71704     -3239.6373     -3257.6481      18.010788      8789.8976      10112.159    
     47600   300.08065     -3239.0299     -3256.3684      17.338446      9182.1685      10112.159    
     47700   298.2732      -3238.3833     -3255.6173      17.234012      9126.3973      10112.159    
     47800   329.78757     -3237.5349     -3256.5898      19.05489       9608.9695      10112.159    
     47900   300.24226     -3238.9971     -3256.3449      17.347783      9320.9475      10112.159    
     48000   309.03773     -3240.0698     -3257.9258      17.855979      8597.9476      10112.159    
     48100   291.03974     -3240.7297     -3257.5457      16.816068      9032.7766      10112.159    
     48200   293.55987     -3240.0295     -3256.9912      16.961679      8853.8998      10112.159    
     48300   304.8698      -3239.0644     -3256.6795      17.615159      9611.4627      10112.159    
     48400   303.83324     -3239.2406     -3256.7958      17.555267      8805.4945      10112.159    
     48500   311.12524     -3239.093      -3257.0696      17.976594      9189.7649      10112.159    
     48600   302.70788     -3239.6474     -3257.1376      17.490245      8828.4404      10112.159    
     48700   292.03197     -3240.5952     -3257.4686      16.873399      8928.6731      10112.159    
     48800   303.49236     -3240.5405     -3258.076       17.535571      8953.116       10112.159    
     48900   279.54515     -3239.9088     -3256.0607      16.151919      9142.9345      10112.159    
     49000   313.77398     -3238.5567     -3256.6863      18.129636      9232.6199      10112.159    
     49100   310.68919     -3238.7804     -3256.7318      17.951399      9057.9934      10112.159    
     49200   293.79616     -3240.0702     -3257.0455      16.975332      8780.3537      10112.159    
     49300   287.35737     -3240.6468     -3257.2501      16.603303      8863.8962      10112.159    
     49400   298.74988     -3240.6804     -3257.942       17.261554      8870.0282      10112.159    
     49500   305.35899     -3240.6184     -3258.2618      17.643424      8462.1325      10112.159    
     49600   291.4902      -3239.1492     -3255.9913      16.842095      9261.5031      10112.159    
     49700   312.23631     -3238.4452     -3256.486       18.040791      9243.9419      10112.159    
     49800   309.26369     -3239.3603     -3257.2293      17.869035      8976.6809      10112.159    
     49900   287.69226     -3240.4742     -3257.0969      16.622653      8855.3063      10112.159    
     50000   307.02221     -3240.5168     -3258.2563      17.739524      8795.6821      10112.159    
     50100   290.98257     -3240.3948     -3257.2076      16.812765      8778.9982      10112.159    
     50200   299.13108     -3239.6034     -3256.8869      17.28358       9107.7626      10112.159    
     50300   301.75175     -3239.6151     -3257.0501      17.435001      8850.4947      10112.159    
     50400   284.69772     -3239.7928     -3256.2424      16.449631      9090.3374      10112.159    
     50500   316.71954     -3239.2921     -3257.5919      18.299828      8768.5235      10112.159    
     50600   289.87953     -3239.971      -3256.72        16.749032      9037.4133      10112.159    
     50700   288.17307     -3240.828      -3257.4784      16.650434      8838.4717      10112.159    
     50800   277.31752     -3241.8047     -3257.8279      16.023208      8217.3644      10112.159    
     50900   295.21435     -3241.6303     -3258.6876      17.057274      8368.7939      10112.159    
     51000   307.09776     -3239.7603     -3257.5042      17.743889      8684.3205      10112.159    
     51100   308.50518     -3239.0761     -3256.9014      17.825209      9099.1102      10112.159    
     51200   307.84221     -3239.1613     -3256.9482      17.786903      8941.8721      10112.159    
     51300   290.43826     -3240.3621     -3257.1434      16.781315      8969.4155      10112.159    
     51400   282.68844     -3241.0439     -3257.3775      16.333536      8710.7095      10112.159    
     51500   299.76208     -3240.5022     -3257.8222      17.320039      8596.4614      10112.159    
     51600   313.57079     -3238.2848     -3256.4027      18.117896      9160.0067      10112.159    
     51700   313.56666     -3238.0029     -3256.1205      18.117657      9364.8186      10112.159    
     51800   299.02234     -3239.3152     -3256.5925      17.277297      9320.8399      10112.159    
     51900   303.75213     -3240.2663     -3257.8169      17.550581      8505.78        10112.159    
     52000   285.653       -3240.8479     -3257.3527      16.504826      8516.5043      10112.159    
     52100   306.81588     -3240.1308     -3257.8584      17.727602      8556.9125      10112.159    
     52200   312.52885     -3238.6889     -3256.7466      18.057694      9281.0366      10112.159    
     52300   311.16132     -3237.7088     -3255.6875      17.978678      9592.4207      10112.159    
     52400   309.64559     -3237.936      -3255.8271      17.891101      9063.1212      10112.159    
     52500   309.85025     -3239.6362     -3257.5391      17.902926      8781.4356      10112.159    
     52600   291.30999     -3241.1434     -3257.9751      16.831683      8769.0565      10112.159    
     52700   280.33568     -3241.2023     -3257.3999      16.197595      8581.7841      10112.159    
     52800   299.46864     -3239.7747     -3257.0778      17.303084      9062.8144      10112.159    
     52900   299.39185     -3239.2985     -3256.5972      17.298647      9397.108       10112.159    
     53000   303.00567     -3239.5504     -3257.0578      17.507451      9078.1837      10112.159    
     53100   295.8237      -3240.5447     -3257.6372      17.092482      8941.0659      10112.159    
     53200   271.51615     -3242.1219     -3257.8099      15.688009      8570.067       10112.159    
     53300   291.39318     -3241.7566     -3258.593       16.83649       8536.1584      10112.159    
     53400   298.588       -3240.6097     -3257.8619      17.252201      8850.7067      10112.159    
     53500   304.44932     -3239.9987     -3257.5896      17.590864      8587.9714      10112.159    
     53600   298.83322     -3239.5651     -3256.8315      17.26637       9094.8124      10112.159    
     53700   303.76314     -3239.2688     -3256.82        17.551217      9175.5608      10112.159    
     53800   311.94095     -3239.726      -3257.7497      18.023725      8846.263       10112.159    
     53900   289.39277     -3241.1771     -3257.898       16.720907      8748.8961      10112.159    
     54000   290.61786     -3241.2868     -3258.0785      16.791692      8523.2648      10112.159    
     54100   302.03628     -3240.0394     -3257.4908      17.45144       8771.7841      10112.159    
     54200   298.04613     -3239.3305     -3256.5514      17.220892      9249.0882      10112.159    
     54300   296.28461     -3239.2886     -3256.4077      17.119113      9276.3525      10112.159    
     54400   310.15264     -3239.4705     -3257.3909      17.920398      9007.7177      10112.159    
     54500   293.52017     -3240.5434     -3257.5028      16.959386      8749.7512      10112.159    
     54600   282.6306      -3241.4775     -3257.8077      16.330194      8776.1358      10112.159    
     54700   278.1464      -3241.9095     -3257.9806      16.0711        8665.543       10112.159    
     54800   300.56136     -3240.7276     -3258.0938      17.36622       8783.3109      10112.159    
     54900   300.50089     -3239.5352     -3256.8979      17.362727      9170.2894      10112.159    
     55000   316.03894     -3238.7278     -3256.9883      18.260504      9024.3862      10112.159    
     55100   307.70256     -3239.0167     -3256.7956      17.778834      9178.7349      10112.159    
     55200   290.64921     -3240.5205     -3257.314       16.793504      8789.446       10112.159    
     55300   286.13543     -3241.4589     -3257.9916      16.532701      8657.7414      10112.159    
     55400   293.05918     -3240.917      -3257.8498      16.93275       8570.1516      10112.159    
     55500   294.5279      -3240.2242     -3257.2418      17.017612      8938.1845      10112.159    
     55600   305.10665     -3239.6147     -3257.2435      17.628844      9412.007       10112.159    
     55700   283.59087     -3239.8465     -3256.2322      16.385678      9084.6284      10112.159    
     55800   311.10868     -3240.0305     -3258.0062      17.975637      8967.212       10112.159    
     55900   291.40565     -3240.6038     -3257.441       16.83721       8638.4216      10112.159    
     56000   303.90145     -3240.3015     -3257.8607      17.559208      8885.3495      10112.159    
     56100   284.48535     -3239.9868     -3256.4242      16.43736       9357.3046      10112.159    
     56200   309.02015     -3238.8285     -3256.6834      17.854963      8952.9075      10112.159    
     56300   319.42846     -3238.1058     -3256.5621      18.456348      9283.2231      10112.159    
     56400   302.26564     -3239.3357     -3256.8003      17.464693      9163.4899      10112.159    
     56500   297.92166     -3240.8261     -3258.0398      17.2137        8494.7386      10112.159    
     56600   289.15349     -3240.8042     -3257.5112      16.707082      8723.1598      10112.159    
     56700   293.92598     -3239.7606     -3256.7435      16.982833      8996.9849      10112.159    
     56800   314.65483     -3239.0438     -3257.2243      18.180531      9058.0604      10112.159    
     56900   303.66217     -3239.4454     -3256.9907      17.545383      8902.1207      10112.159    
     57000   297.10715     -3239.7754     -3256.9421      17.166639      9200.9982      10112.159    
     57100   291.36912     -3240.4931     -3257.3282      16.835099      8998.0142      10112.159    
     57200   271.81626     -3242.5267     -3258.232       15.705349      8492.6345      10112.159    
     57300   301.08334     -3241.487      -3258.8834      17.39638       8584.3023      10112.159    
     57400   290.2351      -3240.2175     -3256.9871      16.769576      8755.2184      10112.159    
     57500   299.91683     -3239.4441     -3256.7731      17.32898       9326.7779      10112.159    
     57600   300.60384     -3239.2996     -3256.6682      17.368675      9317.6089      10112.159    
     57700   293.00576     -3239.8644     -3256.7941      16.929663      9040.0867      10112.159    
     57800   297.06844     -3240.8459     -3258.0103      17.164402      8588.5157      10112.159    
     57900   293.62741     -3241.3664     -3258.332       16.965582      8551.6902      10112.159    
     58000   273.28425     -3241.8525     -3257.6427      15.790168      8684.1943      10112.159    
     58100   309.89909     -3240.3514     -3258.2572      17.905748      8671.6121      10112.159    
     58200   298.12195     -3239.5572     -3256.7825      17.225273      8880.6422      10112.159    
     58300   311.47571     -3238.91       -3256.9069      17.996844      8822.474       10112.159    
     58400   307.66606     -3238.9688     -3256.7456      17.776725      9288.9821      10112.159    
     58500   290.22593     -3240.601      -3257.37        16.769046      8856.1812      10112.159    
     58600   287.57553     -3241.348      -3257.9639      16.615908      8380.4262      10112.159    
     58700   284.71657     -3240.7879     -3257.2387      16.45072       9198.5837      10112.159    
     58800   302.2423      -3239.8046     -3257.2679      17.463344      9059.9863      10112.159    
     58900   303.75414     -3239.4641     -3257.0148      17.550697      9471.5413      10112.159    
     59000   305.92166     -3239.4628     -3257.1387      17.675935      8715.6173      10112.159    
     59100   293.26818     -3239.9595     -3256.9044      16.944826      9182.5436      10112.159    
     59200   303.55861     -3240.2838     -3257.8232      17.5394        8834.9946      10112.159    
     59300   274.68072     -3241.2856     -3257.1565      15.870855      9160.4906      10112.159    
     59400   293.2064      -3241.4149     -3258.3562      16.941256      8508.8327      10112.159    
     59500   309.15243     -3240.3633     -3258.2259      17.862606      8627.2         10112.159    
     59600   298.21031     -3239.1751     -3256.4054      17.230379      9118.9679      10112.159    
     59700   297.13076     -3238.7671     -3255.9351      17.168003      9361.7671      10112.159    
     59800   313.03027     -3239.4013     -3257.488       18.086665      9217.162       10112.159    
     59900   304.54275     -3240.2185     -3257.8147      17.596262      8654.353       10112.159    
     60000   299.6213      -3240.2462     -3257.5581      17.311905      8685.4795      10112.159    
     60100   293.39097     -3240.0354     -3256.9873      16.951921      8961.8481      10112.159    
     60200   309.26067     -3239.121      -3256.9899      17.86886       9184.8724      10112.159    
     60300   319.84586     -3237.8293     -3256.3098      18.480465      9343.1189      10112.159    
     60400   304.18058     -3237.9758     -3255.5512      17.575336      9446.2304      10112.159    
     60500   311.36063     -3239.8598     -3257.85        17.990195      8959.9634      10112.159    
     60600   287.34298     -3240.9558     -3257.5582      16.602472      8815.5525      10112.159    
     60700   308.30654     -3240.4451     -3258.2588      17.813732      8460.4121      10112.159    
     60800   289.69179     -3239.6422     -3256.3804      16.738185      9068.4879      10112.159    
     60900   311.15658     -3238.6997     -3256.6781      17.978405      9542.7778      10112.159    
     61000   292.48383     -3239.4358     -3256.3353      16.899506      9161.739       10112.159    
     61100   299.78117     -3240.3195     -3257.6407      17.321142      8703.7253      10112.159    
     61200   284.51864     -3242.4101     -3258.8494      16.439283      8200.7858      10112.159    
     61300   281.0162      -3242.2553     -3258.4922      16.236915      8474.0924      10112.159    
     61400   272.05651     -3241.0919     -3256.8111      15.71923       8934.0592      10112.159    
     61500   304.68669     -3239.8182     -3257.4228      17.604579      9016.7568      10112.159    
     61600   304.21617     -3239.7725     -3257.3499      17.577393      9263.3023      10112.159    
     61700   289.01242     -3240.1202     -3256.8192      16.698931      8923.0108      10112.159    
     61800   324.85096     -3239.2294     -3257.999       18.769656      9139.9872      10112.159    
     61900   272.47032     -3239.4429     -3255.186       15.74314       9479.8263      10112.159    
     62000   310.46207     -3239.688      -3257.6263      17.938277      8849.8145      10112.159    
     62100   297.08871     -3241.2072     -3258.3727      17.165573      8358.5857      10112.159    
     62200   288.75326     -3241.4028     -3258.0867      16.683957      8738.5849      10112.159    
     62300   293.9827      -3240.4449     -3257.431       16.98611       8828.9168      10112.159    
     62400   284.5076      -3239.6762     -3256.1149      16.438646      9127.6808      10112.159    
     62500   319.41943     -3239.3077     -3257.7636      18.455826      9146.4664      10112.159    
     62600   298.47556     -3240.1687     -3257.4144      17.245704      8689.7745      10112.159    
     62700   295.39833     -3240.2296     -3257.2975      17.067904      8682.7075      10112.159    
     62800   297.95417     -3239.75       -3256.9656      17.215579      8913.9089      10112.159    
     62900   299.82043     -3238.7882     -3256.1116      17.32341       9056.7757      10112.159    
     63000   315.34017     -3237.4403     -3255.6604      18.220129      9474.7786      10112.159    
     63100   307.20648     -3238.3584     -3256.1086      17.750171      8943.6281      10112.159    
     63200   301.48452     -3239.6366     -3257.0562      17.41956       8796.5175      10112.159    
     63300   296.57741     -3240.4931     -3257.6291      17.136031      8794.2177      10112.159    
     63400   285.08545     -3240.6429     -3257.115       16.472033      9023.9374      10112.159    
     63500   299.14703     -3239.7113     -3256.9958      17.284501      9339.3805      10112.159    
     63600   307.93137     -3238.7163     -3256.5084      17.792054      9044.3232      10112.159    
     63700   331.67718     -3236.7088     -3255.8728      19.16407       9295.8964      10112.159    
     63800   320.72695     -3237.485      -3256.0164      18.531374      9560.0646      10112.159    
     63900   301.17689     -3238.6019     -3256.0037      17.401785      9072.0922      10112.159    
     64000   300.73146     -3239.923      -3257.2991      17.376049      9101.0012      10112.159    
     64100   295.81026     -3240.4162     -3257.5079      17.091705      8831.5319      10112.159    
     64200   308.50942     -3240.176      -3258.0015      17.825453      8810.9982      10112.159    
     64300   299.0678      -3239.8131     -3257.093       17.279924      9102.4995      10112.159    
     64400   314.67949     -3238.518      -3256.7         18.181956      9252.8596      10112.159    
     64500   287.69028     -3238.9503     -3255.5728      16.622538      9284.5673      10112.159    
     64600   304.39869     -3240.6606     -3258.2486      17.587938      8976.2685      10112.159    
     64700   283.64099     -3241.4601     -3257.8487      16.388573      8738.1048      10112.159    
     64800   297.14302     -3240.5222     -3257.6909      17.168711      8674.9529      10112.159    
     64900   309.96573     -3239.4003     -3257.3099      17.909598      9094.2478      10112.159    
     65000   295.72587     -3238.9816     -3256.0685      17.086829      9176.3675      10112.159    
     65100   305.03114     -3239.0919     -3256.7164      17.624481      9291.697       10112.159    
     65200   292.03366     -3241.203      -3258.0765      16.873496      8285.7121      10112.159    
     65300   300.71358     -3241.1015     -3258.4765      17.375016      8536.1486      10112.159    
     65400   292.37374     -3240.1732     -3257.0664      16.893146      8863.8095      10112.159    
     65500   282.70727     -3239.491      -3255.8257      16.334624      9307.3537      10112.159    
     65600   319.00883     -3239.0482     -3257.4803      18.432102      9020.941       10112.159    
     65700   307.17263     -3239.9604     -3257.7086      17.748215      8589.1929      10112.159    
     65800   276.41817     -3241.7344     -3257.7057      15.971244      8546.2636      10112.159    
     65900   284.31949     -3241.6472     -3258.0749      16.427777      8494.0966      10112.159    
     66000   286.31454     -3240.5458     -3257.0888      16.543049      8795.4323      10112.159    
     66100   322.82631     -3239.7117     -3258.3644      18.652673      8927.2639      10112.159    
     66200   276.25813     -3240.275      -3256.237       15.961997      8840.1483      10112.159    
     66300   309.59825     -3239.4887     -3257.3771      17.888365      9315.4565      10112.159    
     66400   307.85894     -3239.0454     -3256.8333      17.787869      9222.6013      10112.159    
     66500   305.84186     -3238.885      -3256.5563      17.671324      9241.3216      10112.159    
     66600   310.72488     -3239.3867     -3257.3402      17.953461      8974.5924      10112.159    
     66700   292.72306     -3240.5688     -3257.4822      16.913329      8702.1216      10112.159    
     66800   286.61318     -3241.2432     -3257.8035      16.560304      8837.4705      10112.159    
     66900   298.63469     -3240.7431     -3257.998       17.254899      8762.1661      10112.159    
     67000   300.61306     -3239.0726     -3256.4418      17.369208      8849.4346      10112.159    
     67100   299.64417     -3238.9132     -3256.2264      17.313226      9258.2114      10112.159    
     67200   312.46928     -3239.3426     -3257.3969      18.054252      9051.4546      10112.159    
     67300   283.57987     -3240.6173     -3257.0023      16.385042      9110.256       10112.159    
     67400   305.20339     -3240.7686     -3258.403       17.634433      8700.2848      10112.159    
     67500   277.6112      -3240.5876     -3256.6278      16.040177      8918.4348      10112.159    
     67600   287.96342     -3240.1305     -3256.7688      16.63832       9284.8456      10112.159    
     67700   320.92798     -3239.7614     -3258.3044      18.542989      8485.1657      10112.159    
     67800   295.16731     -3239.7888     -3256.8433      17.054556      9154.875       10112.159    
     67900   288.21769     -3239.2012     -3255.8542      16.653012      9494.1636      10112.159    
     68000   319.29655     -3238.7228     -3257.1715      18.448726      9464.1417      10112.159    
     68100   304.95914     -3239.3109     -3256.9312      17.620321      8864.1239      10112.159    
     68200   306.46976     -3240.1009     -3257.8085      17.707604      9067.5021      10112.159    
     68300   275.5091      -3241.2559     -3257.1746      15.918719      8848.414       10112.159    
     68400   293.44266     -3241.1925     -3258.1474      16.954907      8632.9028      10112.159    
     68500   312.83913     -3239.5089     -3257.5845      18.075621      9038.902       10112.159    
     68600   298.1712      -3238.8348     -3256.0629      17.228119      9513.9968      10112.159    
     68700   312.07373     -3238.9322     -3256.9636      18.031397      9314.6076      10112.159    
     68800   295.25241     -3239.8881     -3256.9476      17.059473      9161.6738      10112.159    
     68900   306.87828     -3240.4843     -3258.2155      17.731208      8475.4296      10112.159    
     69000   272.1553      -3241.9597     -3257.6846      15.724939      8634.3424      10112.159    
     69100   297.6737      -3242.1994     -3259.3988      17.199374      8213.1856      10112.159    
     69200   297.81306     -3240.6059     -3257.8133      17.207425      8389.8471      10112.159    
     69300   298.8269      -3239.5461     -3256.8121      17.266005      9424.4902      10112.159    
     69400   315.43329     -3239.0044     -3257.2299      18.22551       8883.1305      10112.159    
     69500   297.57717     -3239.5071     -3256.7009      17.193796      8960.4946      10112.159    
     69600   296.87886     -3240.4753     -3257.6288      17.153448      8924.7213      10112.159    
     69700   290.69701     -3241.2527     -3258.049       16.796266      8481.1086      10112.159    
     69800   303.76333     -3240.9362     -3258.4875      17.551228      8395.7581      10112.159    
     69900   301.59157     -3239.2085     -3256.6343      17.425745      9011.0564      10112.159    
     70000   295.32812     -3238.4911     -3255.555       17.063847      9350.7808      10112.159    
     70100   314.0241      -3238.934      -3257.078       18.144088      9269.0062      10112.159    
     70200   306.197       -3239.8849     -3257.5767      17.691844      8561.9334      10112.159    
     70300   289.8749      -3240.289      -3257.0377      16.748764      8701.3501      10112.159    
     70400   309.5295      -3240.308      -3258.1924      17.884393      8828.0237      10112.159    
     70500   278.28852     -3241.2779     -3257.3572      16.079312      8881.5701      10112.159    
     70600   283.79429     -3242.2742     -3258.6717      16.397431      8257.8678      10112.159    
     70700   284.29367     -3241.6049     -3258.0312      16.426285      8460.0774      10112.159    
     70800   303.35624     -3240.1201     -3257.6478      17.527706      8744.376       10112.159    
     70900   301.52823     -3239.6209     -3257.043       17.422086      8775.0341      10112.159    
     71000   299.92987     -3239.4576     -3256.7873      17.329733      9330.4016      10112.159    
     71100   306.00406     -3239.7605     -3257.4412      17.680696      8990.688       10112.159    
     71200   305.60317     -3240.6449     -3258.3024      17.657533      8497.3811      10112.159    
     71300   283.62176     -3241.6985     -3258.086       16.387462      8603.6447      10112.159    
     71400   294.82957     -3241.1126     -3258.1476      17.035042      8563.4864      10112.159    
     71500   301.70497     -3239.6084     -3257.0407      17.432297      9127.8253      10112.159    
     71600   302.20005     -3239.3627     -3256.8236      17.460903      8970.8602      10112.159    
     71700   299.44683     -3239.4043     -3256.7062      17.301824      9024.4615      10112.159    
     71800   301.80507     -3239.9462     -3257.3843      17.438081      8768.4966      10112.159    
     71900   285.83414     -3241.2959     -3257.8111      16.515292      8781.0617      10112.159    
     72000   286.39689     -3241.3818     -3257.9296      16.547807      8630.1515      10112.159    
     72100   299.59624     -3239.6352     -3256.9456      17.310456      8851.9961      10112.159    
     72200   300.23797     -3238.8643     -3256.2119      17.347535      9261.2476      10112.159    
     72300   309.71509     -3239.1499     -3257.045       17.895116      8868.7641      10112.159    
     72400   311.79338     -3239.9069     -3257.9221      18.015199      8647.9523      10112.159    
     72500   281.99844     -3241.2476     -3257.5412      16.293668      9141.7542      10112.159    
     72600   275.7201      -3241.3514     -3257.2823      15.93091       8655.3312      10112.159    
     72700   301.00086     -3240.6419     -3258.0335      17.391614      8790.2382      10112.159    
     72800   311.7355      -3240.0018     -3258.0136      18.011854      8671.283       10112.159    
     72900   302.40011     -3239.6308     -3257.1033      17.472462      8891.6613      10112.159    
     73000   301.96317     -3239.5215     -3256.9687      17.447216      9373.701       10112.159    
     73100   282.25415     -3240.0475     -3256.3559      16.308443      9046.9968      10112.159    
     73200   306.8332      -3240.3463     -3258.0749      17.728603      8420.2459      10112.159    
     73300   303.42243     -3240.7863     -3258.3178      17.531531      8621.0566      10112.159    
     73400   285.87609     -3240.792      -3257.3098      16.517716      8775.3161      10112.159    
     73500   301.34088     -3239.4523     -3256.8636      17.411261      8987.7423      10112.159    
     73600   314.79125     -3238.5978     -3256.7862      18.188413      9423.7974      10112.159    
     73700   303.23449     -3239.1045     -3256.6252      17.520672      9064.2815      10112.159    
     73800   303.28256     -3240.3813     -3257.9048      17.52345       8844.3366      10112.159    
     73900   276.0843      -3242.1355     -3258.0875      15.951953      8551.2578      10112.159    
     74000   295.56127     -3241.2641     -3258.3414      17.077319      8973.5889      10112.159    
     74100   297.80589     -3240.3233     -3257.5303      17.207012      8641.8011      10112.159    
     74200   297.99286     -3239.2884     -3256.5062      17.217814      9023.6044      10112.159    
     74300   313.39081     -3238.7031     -3256.8106      18.107497      9070.8806      10112.159    
     74400   306.72888     -3239.3534     -3257.076       17.722575      9095.4568      10112.159    
     74500   286.67251     -3240.0106     -3256.5744      16.563732      8514.3286      10112.159    
     74600   296.78668     -3239.955      -3257.1032      17.148122      8793.1165      10112.159    
     74700   296.37611     -3240.1502     -3257.2746      17.1244        8772.9841      10112.159    
     74800   302.16805     -3240.5006     -3257.9597      17.459054      8661.202       10112.159    
     74900   286.75438     -3240.6906     -3257.2591      16.568463      8791.6701      10112.159    
     75000   292.67855     -3239.3267     -3256.2375      16.910757      9365.3828      10112.159    
     75100   311.53344     -3238.6056     -3256.6058      18.000179      8920.9331      10112.159    
     75200   321.15358     -3238.7811     -3257.3372      18.556024      8872.147       10112.159    
     75300   287.48476     -3240.8263     -3257.437       16.610664      8784.5795      10112.159    
     75400   292.93739     -3240.8994     -3257.8251      16.925713      8408.8251      10112.159    
[...]
    281800   311.22245     -3239.9312     -3257.9134      17.982211      8537.8896      10112.159    
    281900   307.35616     -3238.2203     -3255.9791      17.758819      9323.7706      10112.159    
    282000   307.36934     -3238.0823     -3255.8418      17.75958       9480.0639      10112.159    
    282100   319.06524     -3239.0996     -3257.5349      18.435361      8853.1657      10112.159    
    282200   293.75516     -3239.8019     -3256.7748      16.972963      8782.2762      10112.159    
    282300   298.95475     -3240.1373     -3257.4107      17.273392      9009.8392      10112.159    
    282400   295.9553      -3240.5622     -3257.6623      17.100086      8510.1304      10112.159    
    282500   312.32853     -3239.7781     -3257.8242      18.046119      8850.9599      10112.159    
    282600   302.90391     -3238.4569     -3255.9585      17.501571      9246.2114      10112.159    
    282700   313.67943     -3238.2289     -3256.353       18.124173      9253.3504      10112.159    
    282800   300.53697     -3239.397      -3256.7618      17.364811      8800.4866      10112.159    
    282900   302.56698     -3240.5655     -3258.0476      17.482104      8539.0742      10112.159    
    283000   283.26985     -3241.6672     -3258.0343      16.367129      8614.9067      10112.159    
    283100   286.76778     -3241.4197     -3257.9889      16.569237      8732.3993      10112.159    
    283200   299.69165     -3240.8523     -3258.1683      17.315969      8512.1708      10112.159    
    283300   291.9575      -3240.0686     -3256.9377      16.869096      9091.8711      10112.159    
    283400   301.31209     -3238.9599     -3256.3695      17.409597      9022.2584      10112.159    
    283500   327.10846     -3238.4765     -3257.3766      18.900093      9350.0402      10112.159    
    283600   285.95236     -3239.8382     -3256.3603      16.522123      9118.5888      10112.159    
    283700   295.76998     -3240.3578     -3257.4471      17.089378      8903.4473      10112.159    
    283800   290.49125     -3240.4747     -3257.2591      16.784377      8886.8751      10112.159    
    283900   313.68903     -3240.0712     -3258.196       18.124728      8591.677       10112.159    
    284000   293.05199     -3240.2014     -3257.1338      16.932334      8765.6703      10112.159    
    284100   291.63558     -3239.8635     -3256.714       16.850495      9127.5656      10112.159    
    284200   309.97046     -3239.3467     -3257.2566      17.909872      8994.5496      10112.159    
    284300   306.17133     -3239.6363     -3257.3267      17.690361      8576.6361      10112.159    
    284400   303.24986     -3239.8541     -3257.3757      17.52156       8996.1895      10112.159    
    284500   292.89782     -3240.3071     -3257.2306      16.923427      8950.9922      10112.159    
    284600   280.95117     -3241.3435     -3257.5766      16.233158      8357.1154      10112.159    
    284700   294.3834      -3241.5959     -3258.6052      17.009262      8427.4811      10112.159    
    284800   292.50697     -3240.2257     -3257.1265      16.900844      8842.0426      10112.159    
    284900   310.72068     -3238.9476     -3256.9008      17.953219      9048.7047      10112.159    
    285000   307.24399     -3239.2479     -3257.0002      17.752338      8861.2142      10112.159    
    285100   296.3207      -3240.1628     -3257.284       17.121198      8947.4677      10112.159    
    285200   303.02735     -3240.6955     -3258.2042      17.508703      8512.7013      10112.159    
    285300   275.14822     -3241.9673     -3257.8651      15.897867      7959.9483      10112.159    
    285400   293.21961     -3241.8303     -3258.7724      16.942019      8370.1989      10112.159    
    285500   295.07267     -3240.305      -3257.3541      17.049088      8682.6892      10112.159    
    285600   309.18835     -3239.4831     -3257.3478      17.864682      9089.8016      10112.159    
    285700   308.95341     -3239.459      -3257.3102      17.851107      8966.5591      10112.159    
    285800   298.46672     -3239.7827     -3257.0279      17.245193      9175.8484      10112.159    
    285900   294.0092      -3240.4083     -3257.3959      16.987641      8834.4034      10112.159    
    286000   286.1931      -3241.5443     -3258.0803      16.536033      8602.2243      10112.159    
    286100   281.794       -3241.3547     -3257.6366      16.281856      8607.646       10112.159    
    286200   304.16673     -3239.867      -3257.4416      17.574536      8681.2329      10112.159    
    286300   297.48143     -3239.4027     -3256.591       17.188264      9078.8939      10112.159    
    286400   297.88099     -3239.3755     -3256.5868      17.21135       9278.2692      10112.159    
    286500   303.05829     -3239.756      -3257.2665      17.510491      8563.3188      10112.159    
    286600   294.91701     -3241.2322     -3258.2723      17.040094      8499.4661      10112.159    
    286700   266.07796     -3242.5033     -3257.8771      15.373794      8580.8005      10112.159    
    286800   286.17297     -3241.4922     -3258.0271      16.534869      8505.3853      10112.159    
    286900   289.15347     -3240.5498     -3257.2569      16.707081      9026.9916      10112.159    
    287000   305.48033     -3239.659      -3257.3094      17.650435      9017.3219      10112.159    
    287100   310.51411     -3239.1641     -3257.1054      17.941283      8997.6736      10112.159    
    287200   294.57609     -3239.5414     -3256.5618      17.020396      8836.3365      10112.159    
    287300   287.65883     -3241.1658     -3257.7865      16.620722      8887.6438      10112.159    
    287400   283.10043     -3241.5949     -3257.9522      16.35734       8657.6461      10112.159    
    287500   302.91001     -3240.6099     -3258.1118      17.501924      8568.3862      10112.159    
    287600   301.24554     -3239.925      -3257.3307      17.405752      8961.8961      10112.159    
    287700   302.15298     -3239.5201     -3256.9783      17.458183      8865.9709      10112.159    
    287800   303.73133     -3239.5074     -3257.0568      17.549379      8795.8862      10112.159    
    287900   295.61295     -3240.1036     -3257.1839      17.080305      8792.0359      10112.159    
    288000   294.80448     -3241.15       -3258.1836      17.033592      8603.9287      10112.159    
    288100   288.93431     -3242.2632     -3258.9576      16.694418      8068.3675      10112.159    
    288200   274.00527     -3241.8133     -3257.6452      15.831829      8634.9809      10112.159    
    288300   300.07358     -3240.0551     -3257.3931      17.338037      9182.0342      10112.159    
    288400   300.19678     -3239.5046     -3256.8497      17.345155      8684.4093      10112.159    
    288500   304.94395     -3239.0883     -3256.7078      17.619444      9290.6693      10112.159    
    288600   307.39346     -3239.4159     -3257.1769      17.760974      9183.6835      10112.159    
    288700   281.11506     -3240.6536     -3256.8962      16.242627      8855.0062      10112.159    
    288800   291.50628     -3241.2887     -3258.1317      16.843025      8430.8109      10112.159    
    288900   290.76367     -3241.436      -3258.2361      16.800117      8457.0736      10112.159    
    289000   304.53384     -3239.4944     -3257.0902      17.595748      8925.5781      10112.159    
    289100   318.63894     -3238.7122     -3257.1229      18.41073       9187.1828      10112.159    
    289200   298.50392     -3239.3042     -3256.5516      17.247343      9326.0567      10112.159    
    289300   291.70357     -3240.2897     -3257.1442      16.854424      8837.5986      10112.159    
    289400   296.97465     -3241.1651     -3258.324       17.158983      8610.8593      10112.159    
    289500   267.08292     -3242.7232     -3258.155       15.43186       8478.5813      10112.159    
    289600   295.18807     -3241.7716     -3258.8274      17.055755      8417.7344      10112.159    
    289700   302.02323     -3240.2341     -3257.6847      17.450686      8656.7736      10112.159    
    289800   286.32205     -3239.945      -3256.4885      16.543483      9061.1744      10112.159    
    289900   305.67171     -3239.3747     -3257.0362      17.661493      9058.3271      10112.159    
    290000   302.16677     -3239.3691     -3256.8281      17.45898       9097.844       10112.159    
    290100   312.42955     -3239.5248     -3257.5767      18.051956      8766.6484      10112.159    
    290200   288.23728     -3240.6648     -3257.3189      16.654144      8832.816       10112.159    
    290300   287.76602     -3241.4032     -3258.0301      16.626915      8751.4725      10112.159    
    290400   286.56105     -3241.1818     -3257.7391      16.557292      8763.9866      10112.159    
    290500   309.29141     -3239.2249     -3257.0955      17.870637      8843.1726      10112.159    
    290600   301.0716      -3238.9173     -3256.313       17.395702      9237.987       10112.159    
    290700   302.55972     -3239.2337     -3256.7153      17.481684      9141.3629      10112.159    
    290800   295.83785     -3240.4045     -3257.4978      17.093299      8410.1564      10112.159    
    290900   291.31333     -3241.3801     -3258.212       16.831876      8435.6784      10112.159    
    291000   300.30207     -3241.1016     -3258.4528      17.351239      8694.371       10112.159    
    291100   304.36333     -3238.83       -3256.4159      17.585895      9386.6347      10112.159    
    291200   309.00801     -3238.6032     -3256.4575      17.854262      9386.9969      10112.159    
    291300   305.80844     -3239.3659     -3257.0353      17.669393      9117.6015      10112.159    
    291400   290.38696     -3240.5974     -3257.3757      16.778351      8899.063       10112.159    
    291500   297.63539     -3240.8247     -3258.0218      17.19716       8716.7175      10112.159    
    291600   315.04618     -3240.2644     -3258.4675      18.203143      8625.66        10112.159    
    291700   288.10242     -3238.816      -3255.4623      16.646352      9249.077       10112.159    
    291800   320.22762     -3237.6609     -3256.1635      18.502523      9615.5536      10112.159    
    291900   303.06326     -3238.8689     -3256.3797      17.510778      9070.5896      10112.159    
    292000   316.58137     -3239.9179     -3258.2097      18.291845      8642.5831      10112.159    
    292100   275.63823     -3241.089      -3257.0152      15.92618       8656.4926      10112.159    
    292200   303.78539     -3240.4029     -3257.9554      17.552503      8629.3311      10112.159    
    292300   291.21941     -3240.1203     -3256.9468      16.826449      8768.8798      10112.159    
    292400   297.50482     -3239.598      -3256.7876      17.189616      8969.4535      10112.159    
    292500   327.35052     -3238.2747     -3257.1888      18.914079      9058.2297      10112.159    
    292600   324.55449     -3236.5872     -3255.3398      18.752526      9644.5617      10112.159    
    292700   328.9749      -3236.7849     -3255.7928      19.007934      9520.7466      10112.159    
    292800   321.00399     -3238.711      -3257.2584      18.547381      9223.8761      10112.159    
    292900   288.08797     -3239.9636     -3256.6091      16.645517      9095.3785      10112.159    
    293000   283.39917     -3240.6255     -3257.0001      16.374602      8934.336       10112.159    
    293100   299.21226     -3240.7845     -3258.0727      17.28827       8880.2593      10112.159    
    293200   304.17928     -3240.3128     -3257.888       17.575261      8888.6813      10112.159    
    293300   310.3573      -3238.8277     -3256.7599      17.932223      9198.8401      10112.159    
    293400   296.04315     -3238.7127     -3255.8178      17.105162      9545.9019      10112.159    
    293500   305.64819     -3239.1426     -3256.8027      17.660134      8949.75        10112.159    
    293600   292.39071     -3240.3666     -3257.2608      16.894126      8812.7567      10112.159    
    293700   298.51723     -3240.8376     -3258.0857      17.248112      8671.0145      10112.159    
    293800   290.59963     -3240.5233     -3257.3139      16.790639      8644.367       10112.159    
    293900   312.287       -3239.3686     -3257.4123      18.04372       9046.2022      10112.159    
    294000   303.28708     -3239.0483     -3256.572       17.523711      9089.4376      10112.159    
    294100   299.04602     -3239.6693     -3256.948       17.278665      9013.2695      10112.159    
    294200   289.13081     -3241.1515     -3257.8572      16.705771      8760.9817      10112.159    
    294300   299.73561     -3241.3423     -3258.6608      17.318509      8431.1388      10112.159    
    294400   296.43394     -3240.5848     -3257.7125      17.127741      8967.3954      10112.159    
    294500   280.54901     -3240.3303     -3256.5402      16.209921      8688.0416      10112.159    
    294600   323.92687     -3239.5113     -3258.2275      18.716263      8668.8831      10112.159    
    294700   305.82889     -3239.4918     -3257.1624      17.670575      9306.4248      10112.159    
    294800   287.30524     -3239.847      -3256.4473      16.600291      9050.0955      10112.159    
    294900   307.36988     -3240.3855     -3258.1451      17.759612      8713.7299      10112.159    
    295000   284.5408      -3241.4654     -3257.906       16.440564      8413.7123      10112.159    
    295100   295.15352     -3240.9752     -3258.0289      17.053759      8843.1591      10112.159    
    295200   299.88412     -3239.63       -3256.9571      17.32709       8627.4773      10112.159    
    295300   306.42116     -3239.1781     -3256.8829      17.704795      9066.2912      10112.159    
    295400   308.06923     -3239.4089     -3257.2089      17.80002       9387.1798      10112.159    
    295500   299.22684     -3240.0799     -3257.369       17.289113      8781.354       10112.159    
    295600   291.18364     -3240.2651     -3257.0895      16.824382      8649.311       10112.159    
    295700   308.91977     -3238.971      -3256.8201      17.849163      8961.1888      10112.159    
    295800   318.31778     -3237.362      -3255.7542      18.392174      9218.5451      10112.159    
    295900   315.99011     -3238.1288     -3256.3865      18.257683      9247.2184      10112.159    
    296000   305.27956     -3239.6526     -3257.2915      17.638834      9009.87        10112.159    
    296100   284.12441     -3240.4935     -3256.91        16.416505      8689.4287      10112.159    
    296200   307.05736     -3240.0636     -3257.8051      17.741555      8789.2361      10112.159    
    296300   303.00453     -3239.5793     -3257.0867      17.507385      9002.3379      10112.159    
    296400   287.83723     -3239.2084     -3255.8395      16.631029      8938.3775      10112.159    
    296500   316.72187     -3238.2917     -3256.5917      18.299963      9286.6469      10112.159    
    296600   309.38543     -3238.763      -3256.6391      17.876069      9034.0757      10112.159    
    296700   307.57663     -3240.3304     -3258.102       17.771558      8663.485       10112.159    
    296800   285.14371     -3240.8999     -3257.3753      16.4754        8929.2151      10112.159    
    296900   293.3468      -3240.3001     -3257.2494      16.949368      8580.3325      10112.159    
    297000   296.16731     -3239.4086     -3256.5209      17.112335      8984.7908      10112.159    
    297100   311.27761     -3238.7592     -3256.7446      17.985398      9267.9764      10112.159    
    297200   289.95932     -3240.3678     -3257.1215      16.753642      8848.9968      10112.159    
    297300   289.63287     -3241.3905     -3258.1253      16.73478       8364.0188      10112.159    
    297400   302.86083     -3240.6979     -3258.1969      17.499082      8535.6492      10112.159    
    297500   300.40721     -3239.5083     -3256.8656      17.357314      8711.0497      10112.159    
    297600   302.64872     -3238.9608     -3256.4476      17.486827      9380.797       10112.159    
    297700   294.08506     -3239.475      -3256.467       16.992024      8635.8165      10112.159    
    297800   304.95115     -3240.0345     -3257.6544      17.61986       8945.2938      10112.159    
    297900   283.54173     -3241.6109     -3257.9937      16.382838      8564.6585      10112.159    
    298000   280.49405     -3242.7359     -3258.9426      16.206746      8364.9241      10112.159    
    298100   282.15415     -3241.7795     -3258.0822      16.302665      8594.4128      10112.159    
    298200   287.60312     -3240.6217     -3257.2392      16.617502      8675.167       10112.159    
    298300   307.50787     -3239.629      -3257.3966      17.767585      8793.1968      10112.159    
    298400   310.91456     -3239.0557     -3257.0201      17.964421      9279.6096      10112.159    
    298500   303.27589     -3239.3911     -3256.9142      17.523064      9153.5473      10112.159    
    298600   281.13011     -3240.881      -3257.1245      16.243497      9072.8666      10112.159    
    298700   299.83735     -3240.9825     -3258.3069      17.324388      8607.0835      10112.159    
    298800   288.0184      -3240.7743     -3257.4158      16.641497      8812.1592      10112.159    
    298900   291.26688     -3240.1355     -3256.9647      16.829192      9155.3979      10112.159    
    299000   309.06206     -3239.8187     -3257.6761      17.857385      8723.9787      10112.159    
    299100   292.97354     -3240.0193     -3256.9471      16.927801      9116.3436      10112.159    
    299200   302.05943     -3239.9089     -3257.3617      17.452778      8771.8832      10112.159    
    299300   281.70447     -3240.6095     -3256.8862      16.276683      8580.838       10112.159    
    299400   312.50197     -3240.3617     -3258.4178      18.05614       8642.2818      10112.159    
    299500   293.12818     -3239.7401     -3256.6769      16.936737      9091.02        10112.159    
    299600   305.47902     -3238.5134     -3256.1638      17.650359      9216.9588      10112.159    
    299700   329.05125     -3237.7899     -3256.8022      19.012346      9177.0719      10112.159    
    299800   302.43861     -3239.6297     -3257.1043      17.474687      9149.9371      10112.159    
    299900   290.48786     -3240.4468     -3257.231       16.784181      8544.778       10112.159    
    300000   289.36865     -3240.2836     -3257.0031      16.719514      8994.042       10112.159    
Loop time of 2352.78 on 20 procs for 300000 steps with 448 atoms

Performance: 11.017 ns/day, 2.178 hours/ns, 127.509 timesteps/s, 57.124 katom-step/s
99.9% CPU use with 20 MPI tasks x 1 OpenMP threads

MPI task timing breakdown:
Section |  min time  |  avg time  |  max time  |%varavg| %total
---------------------------------------------------------------
Pair    | 1691.7     | 1993.9     | 2279.9     | 410.7 | 84.74
Neigh   | 19.564     | 24.527     | 36.567     |  79.1 |  1.04
Comm    | 33.422     | 331.48     | 638.86     |1026.6 | 14.09
Output  | 0.32816    | 0.49609    | 0.55822    |   6.6 |  0.02
Modify  | 1.8146     | 2.163      | 2.4193     |  13.5 |  0.09
Other   |            | 0.2514     |            |       |  0.01

Nlocal:           22.4 ave          25 max          18 min
Histogram: 3 1 0 0 1 3 0 1 10 1
Nghost:          495.7 ave         523 max         465 min
Histogram: 4 0 1 3 4 0 0 0 3 5
Neighs:              0 ave           0 max           0 min
Histogram: 20 0 0 0 0 0 0 0 0 0
FullNghs:       1286.1 ave        1452 max        1025 min
Histogram: 3 1 0 0 1 3 1 1 9 1

Total # of neighbors = 25722
Ave neighs/atom = 57.415179
Neighbor list builds = 300000
Dangerous builds not checked
Total wall time: 0:39:12
