ITEM: TIMESTEP
0
ITEM: NUMBER OF ATOMS
96
ITEM: BOX BOUNDS xy xz yz pp pp pp
-1.9502768608408696e+00 1.1339214512371766e+01 0.0000000000000000e+00
0.0000000000000000e+00 1.1464909705241407e+01 -1.9502768608408696e+00
0.0000000000000000e+00 1.1581352099068955e+01 0.0000000000000000e+00
ITEM: ATOMS id type x y z fx fy fz
   1 1    3.777313470000000616977331447    3.408539530000000539189386473    1.177186220000000060892375586    2.859868209707921771212113526   -3.803657832219414558494463563    0.435855675444610179969373576
   2 1    1.258177700000000065472249844    0.786030950000000117050547033    0.813910669999999947243907172   -2.248390408035878973436183514    0.375577892488440312490638462    3.357608889386509254393331503
   3 1    0.982587160000000126025554437    3.024085729999999916373099040    4.198175220000000429365627497   -2.319564980068519854938813296   -1.594648532120510830978332706   -2.679594289694416264779874837
   4 1    3.152002279999999601045601594    5.279791140000000382315192837    4.838792080000000161987827596    2.913025193966811698942365183    3.098022456910606514668415912    0.363485449391042936273521491
   5 2    3.648175689999999971036004354    1.683335880000000006617710824    0.039725800000000005551825666   -3.086870965844433101210597670    2.500847564843343473484083006    0.356191941960585400916983190
   6 2    2.060489489999999701552724218    4.722040129999999891197148827    3.150515710000000968449285210    3.693169475002466395352485051    0.634288310673743249701317382   -0.969644267264783366044866852
   7 2    1.342705870000000079045321399    4.602942089999999986105194694    6.580578209999999650392510375    1.096687934028405031483544008   -3.125187712800161499160367384   -2.569070719331590701983714098
   8 2    1.691838019999999609410679113    0.781513410000000185995361335    2.894278939999999966659061101    2.742713267392750342565932442    2.135973921899977145955062952   -2.028154072441430866291511848
   9 2    5.061004399999999847636900085    4.186326870000000255345184996    3.753815209999999957801719574   -0.596529898384136947342426538   -1.789244963483324069031255021   -0.404696468293442634944767633
  10 2   -0.353363940000000431584936678    1.074352020000000296207076644    4.843496720000000088646174845   -1.043925948941678782944109116   -0.265604694021717158136652870    1.625628863534134049828594470
  11 2   -0.344910560000000310232337597    1.303016350000000045383785618    2.257744199999999867856104174    1.122245488628525800223201259    3.508449927655863831432725419   -1.330457511032069550793721646
  12 2    6.002036740000000314410044666    3.620616860000001047126261255    0.718635189999999979271194661   -2.589132491065802899044001606    2.284068259984475712798257518   -0.405321601702579470405396478
  13 1    2.826825359999999509597046199    3.148854510000000495040239912    7.181260619999999761375875096    0.137402118330862799133740282   -0.895022123025413507413361458    2.727989101307966901543977656
  14 1    0.570660709999999404828940897   11.010801375241406674376776209    7.071726080000000358438683179   -1.608765683047056249677098094    0.508985384894869996585953231   -2.287471089199888840681751390
  15 1   -0.664199030000001355844574391    2.325973390000000140531710713    9.297243090000000265149537881    6.686173603148987787392343307   -1.233141916197706189350924433    1.985978344907673776020828882
  16 1    1.679440859999999924312419353    5.233465910000000498314420838   10.402241610000000804348019301   -1.293882796713467620008941594   -2.419516008830016051689426604   -4.303702893166020615467459720
  17 2    2.421161559999999823844518687    1.150314550000000268781263912    6.796885060000000144952991832   -1.560313460453304212904868109   -0.941004611481124686456212203    0.042886945817843497019694610
  18 2    0.539898560000000138359155244    4.399165060000000515572082804    8.695880320000000551772245672    2.142758581689707231276997845   -1.379615489395305427677840271    0.688655620144498659129794760
  19 2   -0.376154630000001821699129323    4.376561470000000397817530029   10.554312950000001691819306870    3.500233058191013935100954768   -0.395779994811089386175240179    2.320676394475140735806917291
  20 2    1.371191109999998936075371603    2.071803759999999883234522713    8.635368610000000444415491074   -0.776426311813112390858293566   -1.895712604702863846029003980    0.194103646048468192475411342
  21 2    3.119837459999999396131897811    4.111135410000001044750206347    9.430659159999999374690560217   -0.088165977268827411261753468   -1.704496288240476165043446599   -0.530342286203315582682193963
  22 2    8.746779792371764727931804373    0.932129919999999945190438666   11.168385839999999120664142538    5.068241828006027738240391045    1.865772523919699166228269860   -0.382820152097425481230175137
  23 2   10.139479122371765740240334708    1.659264990000000050685002861    7.123430630000000540746896149   -1.577225892867815559839073103    1.657720418090578684555680411    4.153223243013731469375215966
  24 2    4.729799549999999186411514529    4.176349499999999714816567575    6.584973290000000645250111120   -3.982224935078069183447269097    2.266849548207171327618425494   -0.493777166200421113728680211
  25 1    3.569124359999999995807229425    8.875597799999999537590156251    1.966281029999999985236058819    2.627022368439478228197003773    1.810860484986410501306863807    1.008248291978106836452866446
  26 1    1.729636160000000089098648459    6.076722479999999926292275632    1.388334870000000220713332055   -5.341164078991996078116244462    0.983329385253767229713162124    0.036278291167564535868450548
  27 1    0.106738289999999791390905557    8.695734050000000436853042629    3.939286210000000121311813928    1.175467359747394802127473667   -1.693372139609550908190271912   -2.804323420697289570568955241
  28 1    3.827464550000000187424120668   11.135853640000000552845449420    4.533334049999999670887973480   -1.550749871574047755728997799    1.254121492029718787364345189    1.344164511050612631493095250
  29 2    2.615661970000000113856231110    7.796204369999999883589225647    0.263678689999999993354151684   -0.361740095964697139230281664   -1.147673802062743497742758336    1.189883722704431878725017668
  30 2    1.598625139999999777984385219    9.904298150000000688919499225    3.286540930000000582111852054    1.133270826787660778833810582   -4.562699776094550685456852079   -2.652034759366808991387642891
  31 2    1.639236539999998854000295978   10.870627139999999855035639484    5.226770110000000357786120730    0.921284269237982123001984291   -0.550813574781583326078759910    2.609844982916107003489969429
  32 2    2.952627140000000149910874825    7.238420470000000328525402438    4.397249869999999560832293355   -0.053195800739974152815392472   -1.166854048721587711057168235   -3.960924925281457120718187070
  33 2    4.849927189999999832537014299    9.472559820000000740947143640    3.563173540000000638627852823   -3.247961150560726206748540790    2.583800596826816065032517145    3.465127103999079860585652568
  34 2    0.469171339999999936765107122    6.699262359999999638660028722    4.834873250000001121406967286   -2.131159678889390729494834886    3.190065113046428812992871826    1.520296513582344744008878479
  35 2    0.056160859999999812597337723    7.579166129999999945709987514    2.079412370000000009895302355    0.836766734724725402827516518    1.336748933336228351009822291    2.225450166709684207688724200
  36 2    4.799565199999999087765445438   10.240230309999999391834535345    1.091078500000000062186700234   -1.246558298896127237043174318   -1.743528363935813452201273321   -1.129924616506955636907605367
  37 1    3.148649269999999944502633298    8.997328810000000842705958348    7.375764440000001087582859327    2.424064371329500477969531858   -1.545316194436150425417508814   -0.315969840333420959321841792
  38 1    0.611057799999999762263769298    6.410627190000000474867647426    7.018956770000000844333953864   -0.775748229686702095442285554   -1.380283214032944627547294658   -1.470281308349539628466118302
  39 1   -0.263420160000001013500536828    7.905700360000000870286385179    9.730045040000000255986378761   -2.485907634285802636497919593    2.391382779657396540073932556    2.233821373021644518530592904
  40 1    2.410738550000000035566927181    0.092571074758595425779894583    9.353271290000000348641151504    0.433831291082367065392588756   -0.685176099155192952494530800    2.464859784822363231171493680
  41 2    2.774290779999999845273350729    6.700706979999999646224750904    6.388679009999999713897977927    0.579839694446259823479294937    0.743831158137331138746617398    4.512754350797089308855447598
  42 2    1.435637539999999212625425571    9.246756369999999947140167933    8.386766529999999164601831581   -0.487584251071675911504144096    1.690731389793925565356857987   -0.916672341471612139862656932
  43 2    1.320872209999998769802687093   10.507156560000000311561052513   10.735794809999999799288161739    0.382257613607702328994975005    1.454062633402549931105340875   -2.179887897250530670589796500
  44 2    0.889218929999999962987544677    6.554459460000000348145476892    9.043661970000000493996594741    0.984433898635981963209928836    1.548373579285808876448982119    1.098273964126556645481969099
  45 2    4.188472250000000229874785873    9.539318310000000522563823324    9.301222020000000867412381922   -1.032600417830877415070744973   -1.798649040491957062926076105    1.555132229284105438438245983
  46 2    9.399679292371764915969833964    6.925053339999999835185917618   10.210443330000000372592694475    1.214839431711637551813964819    0.157842765749110824913259421   -2.373911239501112824257234024
  47 2   -1.035296370000001076050466509    7.795554630000001594680725248    7.113964649999999778628989588   -0.234011307668859025454821676   -2.905939188730197297871882256    0.280928537759038698951030710
  48 2    4.180196890000000387033196603   10.583374220000001386665644532    7.403643029999999569668034383    0.595277665738976446974106693    4.424149133022270419246524398   -2.094839726402168977870132949
  49 1    9.597969269999996555498000816    3.526039879999999904214291746    1.999316700000000279757728094    1.065806263598043646112500937   -1.720182250478020868911244179    0.312117425063761277925777904
  50 1    7.122207129999999608571670251    0.473944020000000076908719393    1.195729240000000137555957735   -0.115407904427407406733330220    1.272439051323840386586994100    1.110440863483655116183967948
  51 1    6.471302199999999338331235776    2.669745489999999943364628052    3.843161419999999939278723105   -1.050647341514036048337743523    0.460629114408200313057761832    0.910234779701502905169263613
  52 1    8.793302320000000449340404884    5.269991790000000619897946308    5.585326280000000309655661113   -3.882166647869194520126256975    1.785852081295222104628805937   -2.086319761040380527106208319
  53 2    8.982729570000000052232280723    2.066570710000000143935494634    0.096735970000000018331753893   -2.012546827688799666589147819    1.257577361487612455093199060    3.334141916761681478931222955
  54 2    7.936507870000000686161456542    4.438898810000001304842953687    3.439683819999999947469859762    1.401976696272792421993358403   -2.949617887143988870235489230   -0.967978549670221788403523533
  55 2    6.740295579999999731057869212    4.685407660000000085176452558    6.159511219999999731555817561    4.390306235240785781570593826   -1.186410725488902251356648776   -1.877360340375863856365867832
  56 2    8.425682720000001069138306775    1.543226269999999900051079749    3.400978550000000044661874199   -0.199995214639753338126126891    2.777125546152910295916171890   -1.412204856851073220269654485
  57 2    0.090675167628234354388894189    4.480181479999999716312686360    3.059637570000000028613840186   -4.537254834897957778139243601   -4.303199326834684868003932934    0.681697454534290869787582778
  58 2    4.970534479999999533106347371    1.499045290000000196783958017    5.231841010000000125046426547    0.172909165747715309890963908   -2.627829556559435175699945830   -3.052801026724979216453448316
  59 2    5.674869790000000691065906722    2.005839009999999866806774662    1.722646670000000046485411076    1.421081847974848377802459254   -4.560252871005247676805538504    3.783085352662866718276291067
  60 2   10.874375889999999600377122988    5.765990580000000420568539994    0.807288569999999983117788815   -1.634578816665284151099513110   -1.848679577252537731268944299    0.292360334269529120732045158
  61 1    8.986938679999999735059645900    3.423431320000000610548340774    7.664317960000000873321823747   -2.853483274133917113601910387    0.789622637127724513739224221   -0.901498687086285555025710892
  62 1    6.412984619999998692208009743    0.295352520000000062783129806    7.542209360000000195611846721   -2.648235145475163143657937326    2.940689937446834267831263787   -0.537354799372197433626752172
  63 1    4.820220709999998298656009865    2.755025450000000653005827189   10.049966230000002553879312472    1.530536259048000058413663282   -0.858561073456155732230854483   -0.435702455778748221071339231
  64 1    7.549409759999998748014604644    5.478036900000000208876826946   10.286112179999999938218024909    2.892574826238957896862302732    1.879724440581732158861427706   -0.035014191503022651374976704
  65 2    7.551042610000000543379883311    1.357882280000000108088897832    5.786155100000000217619344767   -0.623832841491717582371734352   -0.454266724530834775652721191    3.093503796687270490650689680
  66 2    6.979791130000000620725586487    4.548694150000000213651674130    8.140275819999999384890543297    1.692379713280205200121031339   -0.643024680907640089344567969    4.027564427805808477955906710
  67 2    5.653127979999998942162164894    4.327432059999999580668372801   11.461649680000000728341547074    6.216475955653010920798351435   -0.034558598813716659425843147   -3.185017259565689595746107443
  68 2    6.489556059999999959586602927    2.102931040000000528777945874    9.232515460000000118157004181    0.620566897534607253561489415   -0.716871329827945658053067746   -3.355474328813715434449704844
  69 2    9.193712660000000980176082521    3.330786540000000961470050242    9.652387290000000064082996687   -3.865559824942744526765636692    1.276796963668299866867528181   -1.151397062932932424672571869
  70 2    5.210193310000000188608737517    0.283947539999999998272528501   10.137498170000000641266524326   -2.706321744597040446222990795    1.659145061958641642618772494    2.485375242027292763680179633
  71 2    4.338742929999999553558609477    2.127345500000000111384679258    7.966969540000000016277681425    0.295314374126934620079509841   -0.773074602457677451106121680    3.319025850883281503200805673
  72 2   -1.100801872371767853309165730    5.089226570000000116067440104    7.646553950000000376974185201   -3.029831841466442465815589458   -0.572520277707836644509598045   -4.721438583843799996486723103
  73 1    8.522944830000000138170435093    8.707984939999999340898284572    1.803582580000000046283048505    2.367758728192433270720584915    1.656914605486438096804135967   -0.772751262529445370752512190
  74 1    7.193994560000001925459400809    5.730693870000000522679783899    1.129780369999999978247728905   -1.666928046275085284477768255    0.178471744718909974825038489    2.228594757741662046868214020
  75 1    6.582358460000000022205313144    8.475350750000002264528120577    4.607985769999999980939264788   -3.156555098031564199345666566   -2.994441906199611924677128627   -1.814504685808816741854343491
  76 1    9.087501639999999270003172569   11.441967070000000461504896521    5.078979320000000186041688721   -0.478239542321861055285125985    2.023915640790608705401609768   -2.272458100215299925395129321
  77 2    8.008259020000000560912667424    7.376736209999999793751612742    0.229900309999999996612984887   -0.549774865148473068643397710   -5.398695467851209350840235857    3.251808271249070791952817672
  78 2    7.694055050000000228749286180   10.549102579999999562687662547    3.142359410000000075058324001   -1.422699320058721683679436865   -0.171034984624554575738386575   -5.135463099110754825460389839
  79 2    7.484093619999999447145455633   10.019971740000000792747414380    5.396857190000000414897840528    0.358302363926971123575526690   -0.921865046958481482164415866    4.354954378194645592259348632
  80 2    7.679539719999999292099346349    6.448313070000000202242063096    3.111300169999999809533619555    3.517410950101491629027350427    3.802360144498493355058599263   -3.451130060871207216877110113
  81 2    9.535652349999999444207787747    9.671081120000000197478584596    4.117976360000000113359419629    5.213469778071042171063709247   -1.526721498024917966773728040    0.500979130428814034559081847
  82 2    6.018923100000000303566594084    6.209083989999999886322257225    4.769926759999999710259999119   -1.878648085070964590670428151    0.750541570457036288921415235    0.856487449303552472734679668
  83 2    5.519299159999999204728737823    7.498952530000002170140760427    2.964211280000000225953726840   -1.852906966389860521360333223    0.803869754504935696282075241   -1.499837968925497033723104323
  84 2   10.281446090000001092334969144   10.208468039999999632527760696    0.685304710000000039116230255    1.308740618336064365223592176   -0.608028196172461621316074343    2.068107402306500475219763757
  85 1    8.312332530000000829772943689    8.319053280000000327731868310    7.319411940000000171835381479    1.020893766279636238891725952    2.019294974652285468152967951    2.188441050064385606788164296
  86 1    5.685721410000000197726421902    5.983999450000000663862920192    7.681291630000000481004462927    0.389675012247698515643890005   -1.245095509684471579703313182   -4.207616027330744579160182184
  87 1    5.386071330000000045856722863    8.202994150000002093747752951    9.989876329999999526876308664    1.455957552164846902087447233   -0.090106030111273743843369743   -0.633725735317187011119699491
  88 1    7.947613500000000108514086605   10.865222870000000199297574000   10.302266019999999357992237492    0.026422912337643822411337169   -1.692104275700585525044061797    2.950351242097964288291223056
  89 2    7.194837060000000228399130719    7.099989070000002122640125890    6.265497720000000825280039862    3.079370042677404217812409115    0.995907949472270015434105517   -2.212844372754690258631171673
  90 2    7.437355649999998874477569188    9.498681969999999807896529092    8.930878740000000703957994119   -1.584160900493698509450268830    0.665233109501727315482355607   -4.346249984902718743740024365
  91 2    6.768507539999999877977643337    9.213150340000002103124643327   11.261034029999999361848495028   -2.364381173348424791669231126    2.364494741906774333273233424    0.150636087118880324098313395
  92 2    7.303535909999999020669747551    6.985029840000001044586497301    8.499542959999999425235728268   -0.565716834956881187146393586   -0.211205683852512926534927828    4.122770892030952261109177925
  93 2   -1.614490972371769084148240836   10.386423410000002576225597295    9.594313500000000161094249052    1.360963903726428725349251181    0.505852968440623218526752680    1.637753050067221494145996985
  94 2    4.412743769999998733055690536    6.019739519999999899368958722   10.260645439999999339875103033   -0.844456991706034609812547842    3.269992671582447663070070121   -1.399904778791666970505502832
  95 2    5.081206339999999599399416184    8.395699570000001443759174435    7.046130070000000245045157499    0.097151478162232129953679305   -3.437889487797439524996434557    0.491221292138125764648037830
  96 2   -1.212538492371766363220331186    9.797703860000000375407580577    7.414354050000000917464149097    0.077211024831059127393473318    2.626868057263423317237993615   -2.199129814068424781936528234
