96
Lattice="11.339214512371766 0.0 0.0 0.0 11.464909705241407 0.0 -1.9502768608408696 0.0 11.581352099068955" Properties=species:S:1:pos:R:3:forces:R:3 energy=-719.919440803591 stress="0.12086535030724062 0.01046791497088895 -0.024698439848865248 0.01046791497088895 0.09799955305831347 0.0067282590041815825 -0.024698439848865248 0.0067282590041815825 0.09854493868174195" free_energy=-85448.40440203773 pbc="T T T"
Hf       3.77731347       3.40853953       1.17718622       4.00791146      -3.60775164       0.80499389
Hf       1.25817770       0.78603095       0.81391067      -3.42324517      -0.76722644       3.18629436
Hf       0.98258716       3.02408573       4.19817522      -2.93094139      -2.26888773      -2.76280976
Hf       3.15200228       5.27979114       4.83879208       3.11774001       3.49235102      -0.15788296
O        3.64817569       1.68333588       0.03972580      -1.99022617       2.56764374       1.14610112
O        2.06048949       4.72204013       3.15051571       4.58787777      -0.12946919      -0.88727562
O        1.34270587       4.60294209       6.58057821       1.33209266      -2.75736802      -2.55407654
O        1.69183802       0.78151341       2.89427894       2.91413692       2.44082562      -1.30165363
O        5.06100440       4.18632687       3.75381521      -0.88491843      -1.88231002      -1.12329903
O       -0.35336394       1.07435202       4.84349672      -0.95357974       0.27945320       0.90051088
O       -0.34491056       1.30301635       2.25774420       0.52829922       2.98719558      -2.26755384
O        6.00203674       3.62061686       0.71863519      -4.91016940       2.27576337      -0.47180591
Hf       2.82682536       3.14885451       7.18126062       1.07223358      -2.13943757       2.57527915
Hf       0.57066071      -0.45410833       7.07172608      -1.25870361       1.03651607      -2.72939313
Hf      -0.66419903       2.32597339       9.29724309       7.28144746      -2.01817406       1.55956330
Hf       1.67944086       5.23346591      10.40224161       0.11950102      -2.76633165      -4.33879726
O        2.42116156       1.15031455       6.79688506      -1.40971915      -0.06037362      -1.31299811
O        0.53989856       4.39916506       8.69588032       1.23302626      -2.05333466       1.62239103
O       -0.37615463       4.37656147      10.55431295       3.53187762       0.34505336       2.37645754
O        1.37119111       2.07180376       8.63536861      -0.99310582      -2.39073693       1.99814388
O        3.11983746       4.11113541       9.43065916      -0.38525153      -0.95450019       0.33343428
O       -2.59243472       0.93212992      11.16838584       5.26281960       2.20941297       0.31798813
O       -1.19973539       1.65926499       7.12343063      -0.78171332       1.99174646       3.61502324
O        4.72979955       4.17634950       6.58497329      -5.09342375       2.15802176       0.68704350
Hf       3.56912436       8.87559780       1.96628103       2.82925323       2.08865905       0.46346706
Hf       1.72963616       6.07672248       1.38833487      -5.67947432       0.76066884       1.08425014
Hf       0.10673829       8.69573405       3.93928621       1.65089120      -2.10119189      -2.66519448
Hf       3.82746455      11.13585364       4.53333405      -1.76199422       1.78158320       1.24667984
O        2.61566197       7.79620437       0.26367869      -0.41200103      -1.96882199       0.37159074
O        1.59862514       9.90429815       3.28654093       1.50030477      -3.07549241      -2.26240932
O        1.63923654      10.87062714       5.22677011       0.88353029      -1.71254471       4.15267279
O        2.95262714       7.23842047       4.39724987       0.69345918      -0.95978818      -3.27957089
O        4.84992719       9.47255982       3.56317354      -1.95461150       4.01486526       3.55218419
O        0.46917134       6.69926236       4.83487325      -1.62541362       2.02502116       1.98027882
O        0.05616086       7.57916613       2.07941237       0.97921492       1.74259628       2.72596842
O        4.79956520      10.24023031       1.09107850      -0.80868445      -1.73341744       1.43047772
Hf       3.14864927       8.99732881       7.37576444       3.87665458      -2.04509993      -0.66381976
Hf       0.61105780       6.41062719       7.01895677      -0.09467008      -1.18528164      -3.49573948
Hf      -0.26342016       7.90570036       9.73004504      -3.33464264       3.11286545       2.12430380
Hf       2.41073855      11.55748078       9.35327129       0.09438957      -0.54196926       3.22282588
O        2.77429078       6.70070698       6.38867901      -1.16304160       1.16121895       3.74492745
O        1.43563754       9.24675637       8.38676653      -0.88198429       1.23706263      -1.39954581
O        1.32087221      10.50715656      10.73579481       0.49516722       2.57471710      -3.00085637
O        0.88921893       6.55445946       9.04366197       1.25135797       2.38506534       1.19405759
O        4.18847225       9.53931831       9.30122202      -1.81760281      -2.17955732       1.93528015
O       -1.93953522       6.92505334      10.21044333       1.19950087       0.61070076      -1.46021330
O       -1.03529637       7.79555463       7.11396465      -0.31741066      -3.74975341       0.64075362
O        4.18019689      10.58337422       7.40364303       0.65488414       3.52918542      -2.62702568
Hf       9.59796927       3.52603988       1.99931670       1.01736727      -2.26202134       0.81175872
Hf       7.12220713       0.47394402       1.19572924      -0.24278387       1.40956103       1.32789559
Hf       6.47130220       2.66974549       3.84316142      -1.32780123       0.45864804       1.03933066
Hf       8.79330232       5.26999179       5.58532628      -4.35018005       2.06389778      -2.36371412
O        8.98272957       2.06657071       0.09673597      -2.26212032       0.94720109       3.66649518
O        7.93650787       4.43889881       3.43968382       2.28725929      -4.26530871      -0.15727387
O        6.74029558       4.68540766       6.15951122       4.82485892       1.49322138      -3.68127877
O        8.42568272       1.54322627       3.40097855      -1.55902723       1.24395422      -1.43649822
O       11.42988968       4.48018148       3.05963757      -5.34735439      -4.52550358       1.01655840
O        4.97053448       1.49904529       5.23184101      -0.42194014      -3.01060959      -2.70192140
O        5.67486979       2.00583901       1.72264667       2.44482600      -4.55274338       3.21613792
O       10.87437589       5.76599058       0.80728857      -1.10973672      -3.17435107      -1.64768786
Hf       8.98693868       3.42343132       7.66431796      -2.49017332       0.44124861      -1.99914378
Hf       6.41298462       0.29535252       7.54220936      -3.48014085       3.38519773      -0.64631183
Hf       4.82022071       2.75502545      10.04996623       1.30604996      -1.08738843      -1.76311754
Hf       7.54940976       5.47803690      10.28611218       3.37587233       1.01144344      -0.05701113
O        7.55104261       1.35788228       5.78615510      -0.36433252      -1.66837753       3.09846753
O        6.97979113       4.54869415       8.14027582       1.45890101      -0.11951207       5.63979372
O        5.65312798       4.32743206      11.46164968       5.91489404       1.13908098      -1.71139311
O        6.48955606       2.10293104       9.23251546       1.40396065      -1.23357287      -2.70060397
O        9.19371266       3.33078654       9.65238729      -4.31948545       1.99232290      -0.70819674
O        5.21019331       0.28394754      10.13749817      -1.79647709       1.01212890       2.62068406
O        4.33874293       2.12734550       7.96696954       0.66060690      -0.62429907       3.29436117
O       10.23841264       5.08922657       7.64655395      -4.23165708      -0.96089067      -3.89572008
Hf       8.52294483       8.70798494       1.80358258       2.79924254       2.30856473      -1.32045739
Hf       7.19399456       5.73069387       1.12978037      -2.26437827       0.53403638       1.89014855
Hf       6.58235846       8.47535075       4.60798577      -3.87650443      -3.98244468      -2.52321868
Hf       9.08750164      11.44196707       5.07897932       0.36802154       2.75416262      -3.10957701
O        8.00825902       7.37673621       0.22990031      -1.21470895      -3.83382515       2.43370469
O        7.69405505      10.54910258       3.14235941      -1.55495794      -1.05888570      -5.29864767
O        7.48409362      10.01997174       5.39685719      -0.17952471      -0.01738914       4.24344225
O        7.67953972       6.44831307       3.11130017       2.16540185       4.23191753      -2.68650250
O        9.53565235       9.67108112       4.11797636       3.75481129      -2.16521288      -0.25688637
O        6.01892310       6.20908399       4.76992676      -1.68489121       0.82635847      -0.45547478
O        5.51929916       7.49895253       2.96421128       0.02406707      -0.51007293      -1.87844283
O       10.28144609      10.20846804       0.68530471       0.38911692       0.36079442       1.35571956
Hf       8.31233253       8.31905328       7.31941194       1.57981100       2.67437049       2.27970384
Hf       5.68572141       5.98399945       7.68129163      -0.22866389      -2.17673990      -5.34756239
Hf       5.38607133       8.20299415       9.98987633       1.49567473       1.25895018      -0.68533552
Hf       7.94761350      10.86522287      10.30226602       0.47992906      -1.94624102       3.76756396
O        7.19483706       7.09998907       6.26549772       3.03348187       1.22485426      -1.08960112
O        7.43735565       9.49868197       8.93087874      -1.83735197       0.04298062      -4.12905232
O        6.76850754       9.21315034      11.26103403      -2.64576928       2.05300813      -0.34571979
O        7.30353591       6.98502984       8.49954296      -1.33475041      -0.87329062       4.39813627
O        9.72472354      10.38642341       9.59431350       0.74836380       0.01806431       1.15812539
O        4.41274377       6.01973952      10.26064544       1.23704155       3.67030067      -1.14700434
O        5.08120634       8.39569957       7.04613007       0.49737219      -2.82554570       0.55685466
O       10.12667602       9.79770386       7.41435405       0.62673725       4.55858390      -2.30254835
