ITEM: TIMESTEP
0
ITEM: NUMBER OF ATOMS
97
ITEM: BOX BOUNDS xy xz yz pp pp pp
-6.4403077717034334e+00 1.2880619210125166e+01 -6.4403077717034334e+00
0.0000000000000000e+00 1.1154943116692575e+01 0.0000000000000000e+00
0.0000000000000000e+00 1.5046356078130312e+01 0.0000000000000000e+00
ITEM: ATOMS id type x y z
1 1     6.43275432957392     11.1505809071819     15.0223244857811
2 1 -0.00755686229977082      1.8635206141775     2.53175686066403
3 1     6.43174242474442     11.1499962643399      5.0061743185494
4 1   0.0012550314456635     1.85843285235204     7.52778989966943
5 1   0.0012546153064212 0.000724413916957219     10.0262918240939
6 1 -0.00856901879507336     1.86410493464139     12.5479072066254
7 1     11.2623496114606     2.79346595245304     15.0333163397573
8 1    -1.61326890675158     4.64610707992629     2.51495489282357
9 1     11.2625536465908     2.79334835494998     5.01924746943862
10 1    -1.61074472554618      4.6494152740887     7.52747962498686
11 1    -1.60674926524981     2.78681478758572     10.0246532703267
12 1    -1.61096622947778     4.64992816764463     12.5345706975883
13 1    -3.21836637940339     5.57850366073202     15.0458920065789
14 1    -3.22329664672547     7.43475742822929      2.5149551410592
15 1     9.65869036035134     5.57644616280987     5.01832471801371
16 1    -3.21916852383472     7.43528717611767     7.52747984343422
17 1     9.65794974683999     5.57601858864514     10.0293830428567
18 1    -3.21883615202969     7.43484012829805     12.5345712536361
19 1     8.05038856113064     8.35674807567858     15.0333167965109
20 1    -4.83023113918508     10.2166394473575     2.53175754579438
21 1     8.05038885332432     8.35698221288141     5.01924803541586
22 1    -4.83023032149332     10.2268129158478     7.52779004861081
23 1    -4.83023066695709     8.37004906552905     10.0246537171508
24 1    -4.83023096811389     10.2154700004844     12.5479078818263
25 1    -3.21259692963593     11.1505804840606     15.0223252503468
26 1     3.22771062519695      1.8635201406846     2.53175763515921
27 1    -3.21158361459423     11.1499955289147     5.00617481502066
28 1     3.21890045248742     1.85843252997389     7.52779017769334
29 1     3.21890033857769 0.000724041167225863     10.0262921716238
30 1     3.22872363820128     1.86410439062827     12.5479080704854
31 1     1.61007697449964     2.79746166838333     15.0223244857811
32 1     1.61007812642275     4.65735257664371     2.52076532442943
33 1     1.61007738773871     2.79863022871658     5.00617436819653
34 1     1.61007850706064     4.64405101255716     7.52942819527155
35 1     1.61007789966464      2.7872873234275     10.0262918439527
36 1     1.61007806593834     4.65711831854907     12.5348341053833
37 1  0.00314350962034265     5.57934330468753     15.0391268706574
38 1 -0.00178642524930966     7.43559679010392     2.50819004485544
39 1 -0.00131615898157427     5.57925960726138     5.01951058928031
40 1  0.00251856267828156     7.43808078423888     7.52469909794246
41 1 -0.000982124914190359     5.57881249899587     10.0266023370826
42 1  0.00177661935710733      7.4376536533441     12.5357569759613
43 1    -1.60688374678638     8.36799325001785     15.0391272976227
44 1    -1.60188402200776     10.2206348308354     2.52076570174759
45 1    -1.60918560804059     8.36417147724595     5.01951107582215
46 1    -1.61340209877568      10.227284575224     7.52942864209569
47 1    -1.60940620528365     8.36468424991008     10.0266028136951
48 1    -1.60208715044961     10.2207515216499     12.5348349195962
49 1 5.07435688224902e-05     11.1512855552888     15.0391269798811
50 1     6.44035838883871     1.86281461611213     2.51495532971828
51 1     6.44251740182799 0.000246810693694975     5.01951106589273
52 1       6.441963226964       1.858975646481     7.52747973421054
53 1      6.4419627199774 0.000181136220769611     10.0266028335539
54 1     6.44251706255046     1.85891065706164     12.5345713727892
55 1     4.83842376798537     2.79346559985194     15.0333170149582
56 1     4.83342495441419     4.64610672732519     2.51495491268242
57 1     4.83822106262643     2.79334855643632      5.0192478566862
58 1     4.83090229551817     4.64941514312258     7.52747992286963
59 1     4.82690518531562     2.78681501929501     10.0246540448219
60 1     4.83112202653858     4.64992843965119     12.5345712933538
61 1     3.21701202878476     5.57934325431595     15.0391271089636
62 1     3.22194392377814     7.43559646772578      2.5081900647143
63 1     3.22147349058768     5.57925971807887     5.01951110561043
64 1     3.21764060900386     7.43808119728588      7.5246988397774
65 1     3.22113954704219     5.57881268033357     10.0266022973649
66 1     3.21838070858447     7.43765354252661     12.5357569660319
67 1     1.61007867554184     8.36620739598095     15.0462015564134
68 1     1.61007889077212     10.2274288495186     2.50819012429085
69 1     1.61007910873743     8.36620703330554     5.00978911590964
70 1      1.6100798369411     10.2224587758651     7.52469918730729
71 1     1.61007938074397     8.36620684189352     10.0311312373383
72 1     1.61007911173087     10.2233143876131     12.5357570553967
73 1     3.22010671704681     11.1512858575183     15.0391269699517
74 1     9.66041544026869     1.86281504930776     2.51495496232955
75 1     9.65825730603746 0.000246639430304853     5.01951073822169
76 1     9.65881210195468     1.85897539462308     7.52747935689238
77 1     9.65881163526542  0.00018131755847665     10.0266024264475
78 1     9.65825741002987     1.85891037498076     12.5345709557533
79 1     8.05038670875497     2.78667169198618     15.0458924236148
80 1      8.0503873370323     4.64789343767904     2.50788001840851
81 1      8.0503876463427     2.79078602292555     5.01832450949578
82 1     8.05038875751095     4.64789279292275     7.52295093324912
83 1      8.0503878882668     2.79164082872824      10.029383142151
84 1     8.05038763926175     4.64789297426046     12.5442930348189
85 1     6.43852198805278      5.5785040032588      15.045892056226
86 1     6.44345367148556     7.43475762971563     2.51495490275299
87 1      6.4420857875568     5.57644656578256      5.0183251846967
88 1     6.43932748303793      7.4352876697592     7.52747957533974
89 1     6.44282658226533     5.57601902184078     10.0293833010218
90 1     6.43899301562797     7.43484079320298     12.5345714125069
91 1     4.82704099771402     8.36799389477414     15.0391267415749
92 1     4.82204152931222      10.220635072619     2.52076516555862
93 1     4.82934414722469     8.36417261564378      5.0195110162456
94 1     4.83356132090001     10.2272854113923     7.52942840378948
95 1     4.82956449277829     8.36468493496363     10.0266022179295
96 1     4.82224444623182      10.220752095886      12.534834284113
97 2     1.61007684884343    0.929579005884228     1.25386289728718
ITEM: TIMESTEP
1
ITEM: NUMBER OF ATOMS
97
ITEM: BOX BOUNDS xy xz yz pp pp pp
-6.4403077717034334e+00 1.2880619210125166e+01 -6.4403077717034334e+00
0.0000000000000000e+00 1.1154943116692575e+01 0.0000000000000000e+00
0.0000000000000000e+00 1.5046356078130312e+01 0.0000000000000000e+00
ITEM: ATOMS id type x y z
1 1     6.43479104391045     11.1517567362478     15.0263558873487
2 1 -0.00552014909832686     1.86234466736881     2.52772557416078
3 1     6.43340643674665      11.150956894644     5.01117422992722
4 1 0.000926200050659738     1.85862268574437      7.5253300303808
5 1 0.000925776171915673 0.000534503012367714     10.0287517511866
6 1 -0.00690498255223324     1.86314415574304     12.5429073443322
7 1     11.2605976316146     2.79447741045947     15.0380261679553
8 1    -1.61223259192164     4.64767139575464     2.51201445095516
9 1     11.2609178366203     2.79429270908042     5.02396281263269
10 1     -1.6104723834374     4.64910613516254     7.52624405321719
11 1    -1.60682631703614     2.78685920240444      10.027656531591
12 1     -1.6112164388891     4.65056763523398     12.5333640717941
13 1    -3.21833033580521       5.578524518026     15.0462712741386
14 1    -3.22142373908208     7.43487277290308     2.51201472795803
15 1     9.65901393579329     5.57663306340668     5.01869270761512
16 1    -3.21930014460624     7.43567779501657     7.52624430269521
17 1     9.65793502364862     5.57601013286291     10.0301179648505
18 1    -3.21840743721637     7.43430382480481     12.5333645658645
19 1     8.05038847734159     8.35472509859788     15.0380266194767
20 1    -4.83023109420588     10.2189911617557     2.52772617012233
21 1     8.05038882212028      8.3550934760199     5.02396326807692
22 1    -4.83023027638466     10.2264331554279     7.52533018384152
23 1    -4.83023064218155     8.36996020192177     10.0276569432677
24 1    -4.83023091264847     10.2173914051763     12.5429079261021
25 1    -3.21463361396704     11.1517563489887     15.0263565533629
26 1     3.22567403070336     1.86234424649597       2.527726225783
27 1    -3.21324764519266     11.1509562509348     5.01117468350786
28 1     3.21922942201576     1.85862239319982     7.52533030473572
29 1     3.21922921816473 0.000534166680453083     10.0287520649384
30 1     3.22705969425555     1.86314367438934     12.5429080704854
31 1     1.61007704496301     2.79510987850156     15.0263558758057
32 1     1.61007814161957     4.65937555494606     2.51605550864958
33 1     1.61007745723404     2.79670882831899     5.01117428618807
34 1     1.61007857002401     4.64413982131716     7.52642498004696
35 1     1.61007792880869     2.78766701967637     10.0287517615603
36 1     1.61007809776348     4.65900699137314     12.5301188532289
37 1  0.00127061487450832     5.57922794503621     15.0420673045965
38 1 -0.00182248783857514     7.43557594136305      2.5078107414111
39 1 -0.00174492316591903     5.57979599992555     5.02071731524419
40 1  0.00253311521922698     7.43808932764695     7.52396416619171
41 1 -0.000850740081387083     5.57842191743346     10.0278378582901
42 1  0.00145299117848765     7.43746683590663     12.5353890982644
43 1    -1.60792012193421     8.36642898122648     15.0420676859555
44 1    -1.60013203070529      10.219623337902     2.51605586361606
45 1    -1.60893548110282     8.36353211366039     5.02071775781343
46 1    -1.61332520073346     10.2272402489637     7.52642541867423
47 1    -1.60967871572931     8.36499347764084     10.0278382743832
48 1    -1.60045141872806     10.2198072491619     12.5301195380968
49 1 0.000887284709027133     11.1529651823518     15.0420674404586
50 1     6.44119502008806     1.86113501209344     2.51201488103158
51 1     6.44319621352825 0.000349889085114925     5.02071779789556
52 1     6.44155928099858     1.85889422501835     7.52624422278663
53 1     6.44155875826384 0.000262586481204478     10.0278383107203
54 1     6.44319592982891      1.8588075044003      12.533364670224
55 1     4.84017579539179     2.79447708673458     15.0380267837422
56 1     4.83238866296082     4.64767107543479     2.51201456973338
57 1     4.83985685636008     2.79429284563971     5.02396316594565
58 1     4.83062994862178     4.64910599938644     7.52624439031571
59 1     4.82698219214712     2.78685937368044     10.0276572297301
60 1     4.83137231287118     4.65056782416136     12.5333646176541
61 1     3.21888496186458     5.57922791629338     15.0420675095612
62 1     3.22198002018342     7.43557569949401     2.50781077744053
63 1     3.22190218810836     5.57979609118864     5.02071772015883
64 1     3.21762597833992     7.43808967995937     7.52396394299426
65 1     3.22100808285611     5.57842209381111     10.0278378093066
66 1      3.2187043622153     7.43746675021696     12.5353890621241
67 1     1.61007866226029     8.36620741653286 0.000340248317968033
68 1     1.61007890227536      10.227470526247      2.5078108003491
69 1     1.61007910362883     8.36620708895336      5.0118300418529
70 1     1.61007976760844     10.2224419368386     7.52396425793722
71 1     1.61007932017517     8.36620695339909     10.0308569727792
72 1     1.61007907650918     10.2236881463485     12.5353891227117
73 1     3.21927018839771     11.1529654787395      15.042067383774
74 1     9.65957881720718     1.86113541468045     2.51201453842115
75 1     9.65757839072187 0.000349788908388333     5.02071744949431
76 1     9.65921600706616     1.85889403808562     7.52624384501435
77 1     9.65921553548406 0.000262759088155096     10.0278379326327
78 1     9.65757848243381     1.85880730992335     12.5333643077678
79 1     8.05038671791349     2.78662999856431     15.0462716233429
80 1     8.05038737622933     4.64789339945349     2.50738537659987
81 1     8.05038756074344     2.79041226379401     5.01869254398664
82 1     8.05038865551357     4.64789278556779     7.52322518795201
83 1      8.0503877902069     2.79165775487685     10.0301180183559
84 1     8.05038763639626     4.64789296708718     12.5422520975887
85 1     6.43848594705742     5.57852482549396     15.0462713049583
86 1     6.44158079668144     7.43487293455585     2.51201454720162
87 1     6.44176216837866     5.57663340455259       5.018693066376
88 1     6.43945901643634     7.43567818857827     7.52624410290056
89 1     6.44284126894237     5.57601050161426     10.0301181687206
90 1     6.43856437523961     7.43430439756528     12.5333646648656
91 1     4.82807733041485     8.36642957130715     15.0420672361434
92 1     4.82028957932616     10.2196235650232     2.51605534902423
93 1     4.82909397517422     8.36353309844227      5.0207176433196
94 1     4.83348441358206     10.2272409923858     7.52642515125686
95 1     4.82983697524503     8.36499406376559     10.0278377847513
96 1     4.82060879782975     10.2198077539536     12.5301189729722
97 2      1.6100768737928    0.929578954495321     1.25386291016467
ITEM: TIMESTEP
2
ITEM: NUMBER OF ATOMS
97
ITEM: BOX BOUNDS xy xz yz pp pp pp
-6.4403077717034334e+00 1.2880619210125166e+01 -6.4403077717034334e+00
0.0000000000000000e+00 1.1154943116692575e+01 0.0000000000000000e+00
0.0000000000000000e+00 1.5046356078130312e+01 0.0000000000000000e+00
ITEM: ATOMS id type x y z
1 1     6.43569039884146     11.1522758617368     15.0274926748867
2 1 -0.00462079463949816     1.86182535112353     2.52658896991469
3 1     6.43550519147847     11.1521684672446     5.01582287470058
4 1 0.000370673883401203     1.85894339847646     7.52419591732174
5 1 0.000370228473343288 0.000213674240925026     10.0298859516616
6 1 -0.00480618957795785     1.86193234773531     12.5382587929538
7 1     11.2583798143678     2.79575778853476     15.0430261658139
8 1    -1.61078042889823      4.6498819250914     2.50944250240462
9 1     11.2587328081235     2.79555410864096     5.02819398749944
10 1    -1.61011861319906     4.64887931773809     7.52579788776755
11 1    -1.60704246189376     2.78698388189745     10.0308052347777
12 1     -1.6113582778875     4.65134146005893     12.5328148316322
13 1    -3.21853955326382     5.57840381071713     15.0459160403988
14 1    -3.21878324681963     7.43502514642459     2.50944279512822
15 1     9.65960869101783     5.57697658651689     5.01837849259778
16 1    -3.21931980176287     7.43609789597204     7.52579815439075
17 1     9.65806811596196     5.57608705132269      10.030324092166
18 1    -3.21780815677703     7.43379426352036     12.5328152216649
19 1     8.05038833866387     8.35216421868284      15.043026586991
20 1    -4.83023101153356     10.2200295119708     2.52658941060516
21 1     8.05038876503517     8.35257063480968     5.02819430335775
22 1    -4.83023021157886     10.2257916035034     7.52419606231554
23 1    -4.83023060685319     8.36971079274146     10.0308055904798
24 1    -4.83023082258528     10.2198147859311     12.5382592286003
25 1    -3.21553290576542     11.1522755326798     15.0274931744692
26 1      3.2247748846088     1.86182500795625     2.52658941933644
27 1    -3.21534643880776     11.1521679791624     5.01582324857993
28 1     3.21978515869049     1.85894315485232     7.52419616925856
29 1     3.21978481381531 0.000213400220017378     10.0298862105567
30 1     3.22496105183508     1.86193196757918     12.5382593093814
31 1     1.61007715978876     2.79407139410634     15.0274926543535
32 1     1.61007816023872     4.66193642725406     2.51105554497771
33 1      1.6100775724358     2.79428544690599     5.01582293583013
34 1     1.61007866133828     4.64438915659205      7.5232763593666
35 1     1.61007796203851      2.7883084772473     10.0298859525064
36 1     1.61007814916531     4.66152973945461     12.5258877967174
37 1 -0.00136984349471461     5.57907553211357     15.0446392624913
38 1  -0.0016133146415273      7.4356966674125     2.50816594347066
39 1 -0.00234427426153508     5.58030570519991     5.02126671164503
40 1  0.00239974522051188     7.43801255197942     7.52375802196694
41 1 -0.000831463094385043     5.57800188613486     10.0282839689319
42 1 0.000858152325082874     7.43712344874444     12.5357034612101
43 1    -1.60937238782542     8.36421852507436     15.0446395689751
44 1    -1.59791417563711     10.2183428991705     2.51105586361606
45 1    -1.60879377972668     8.36275845662316     5.02126708305229
46 1     -1.6131093119297     10.2271157196659     7.52327676911794
47 1    -1.61003276166019     8.36522043174796     10.0282842987463
48 1    -1.59826649243013     10.2185459736478     12.5258882923656
49 1     6.44238329550353 0.000384936676345689      15.044639429598
50 1     6.44238341738202     1.85877218344048     2.50944290239983
51 1     6.44393714414818 0.000614014825556744      5.0212671750924
52 1     6.44118587683194     1.85870103736113       7.525798124333
53 1     6.44118533126793 0.000455815876976775     10.0282843503547
54 1     6.44393696268009     1.85854325713459     12.5328153020922
55 1     4.84239370299149     2.79575751918229     15.0430266797494
56 1     4.83093654591632     4.64988165608363     2.50944272344784
57 1     4.84204185841143     2.79555414073143     5.02819429278633
58 1     4.83027615099955      4.6488791786707     7.52579823640091
59 1      4.8271982640783     2.78698396359229     10.0308058085015
60 1     4.83151428369976     4.65134152642682     12.5328152726217
61 1     3.22152550123492     5.57907554386106     15.0446394222643
62 1     3.22177088371638     7.43569654478589     2.50816598948546
63 1       3.222501426085     5.58030577238612     5.02126697101378
64 1     3.21775920895423     7.43801281153605     7.52375784789504
65 1     3.22098867058321     5.57800205019602      10.028283927454
66 1     3.21929924544723     7.43712340293834     12.5357034003232
67 1     1.61007864006104     8.36620744779455     0.00086621369971
68 1     1.61007892075412     10.2272290539692     2.50816598011911
69 1     1.61007909156818     8.36620717895085     5.01443498661597
70 1     1.61007966402863     10.2225958726055     7.52375810952565
71 1     1.61007921753716     8.36620711551528     10.0302806642844
72 1     1.61007902590061     10.2243751132242     12.5357034298045
73 1     9.65838974152813 0.000385215568280657     15.0446393056386
74 1     9.65839044610767     1.85877253534718     2.50944260204587
75 1     9.65683728767394  0.00061401831499046     5.02126681614842
76 1     9.65958934965433     1.85870095713877     7.52579776659265
77 1     9.65958886859365 0.000455974899486794     10.0282840192016
78 1     9.65683736769616     1.85854320085296     12.5328150155169
79 1     8.05038673489146       2.786871461085      15.045916287714
80 1     8.05038744922664     4.64789332683471     2.50685958221531
81 1     8.05038742754836     2.78972529163508     5.01837839687623
82 1     8.05038849383266     4.64789278160053      7.5238014761925
83 1     8.05038763658213     2.79150395566277     10.0303240957586
84 1     8.05038763922391      4.6478929573548     12.5396471257811
85 1     6.43869516896129     5.57840405608879     15.0459160579478
86 1     6.43894037203962     7.43502524352444      2.5094426852083
87 1     6.44116733927433     5.57697682819259     5.01837871586688
88 1     6.43947851860268     7.43609813916798     7.52579804314866
89 1     6.44270810803818     5.57608731424743      10.030324233379
90 1     6.43796521735068     7.43379468070251     12.5328152426283
91 1     4.82952953105985      8.3642190109542     15.0446392666042
92 1     4.81807179948975     10.2183431074846     2.51105540162817
93 1     4.82895218150201     8.36275919029134     5.02126691499114
94 1      4.8332684925851     10.2271163002437     7.52327647665287
95 1     4.83019096259673     8.36522087038814     10.0282839597926
96 1     4.81842402528925     10.2185463670301     12.5258878467824
97 2     1.61007692828202    0.929578879800141     1.25386293854909
ITEM: TIMESTEP
3
ITEM: NUMBER OF ATOMS
97
ITEM: BOX BOUNDS xy xz yz pp pp pp
-6.4403077717034334e+00 1.2880619210125166e+01 -6.4403077717034334e+00
0.0000000000000000e+00 1.1154943116692575e+01 0.0000000000000000e+00
0.0000000000000000e+00 1.5046356078130312e+01 0.0000000000000000e+00
ITEM: ATOMS id type x y z
1 1     6.43520820330572     11.1519973306517     15.0242490963269
2 1 -0.00510297193019539      1.8621036714455     2.52983274259687
3 1     6.43635820419466     11.1526608043681     5.01638091998549
4 1 -0.000368826815741106     1.85937034789795      7.5265878527705
5 1      6.4399421264348     11.1547297462394     10.0274940909025
6 1 -0.00395313281803175     1.86143977686181     12.5377008758167
7 1     11.2572693527832     2.79639882643194     15.0446933192594
8 1    -1.60989394152054     4.65156637469157     2.50983965295782
9 1     11.2568602248013     2.79663511940313      5.0285865283875
10 1    -1.60996295818846     4.64901771812754     7.52707167343287
11 1    -1.60750253062737     2.78724939450261     10.0321210124191
12 1    -1.61110686679587     4.65163812758926     12.5338524311959
13 1    -3.21933633301072     5.57794388483773     15.0444618774108
14 1    -3.21688116049207     7.43495063556679     2.50983990074375
15 1     9.66030764064592      5.5773802841037     5.01725362584024
16 1    -3.21912223367757     7.43616384542864     7.52707189777171
17 1     9.65850585120492     5.57633987807954     10.0295893384719
18 1    -3.21742545857256     7.43386384716945     12.5338527014916
19 1     8.05038819083038     8.35088195033267     15.0446936550521
20 1    -4.83023089042536     10.2194725574999     2.52983300727954
21 1     8.05038868276711     8.35040858135385     5.02858674220756
22 1    -4.83023016320953     10.2249376444943     7.52658796715207
23 1     -4.8302305884816     8.36917972665463     10.0321212930525
24 1    -4.83023072258853     10.2207997068389     12.5377011663159
25 1    -3.21505060740379     11.1519970585094     15.0242493968118
26 1     3.22525734533495     1.86210339989656     2.52983297780122
27 1    -3.21619952298097     11.1526604945864     5.01638117903926
28 1     3.22052484442159     1.85937015779463     7.52658805423602
29 1    -3.21978341202414     11.1547295482127     10.0274942838872
30 1      3.2241081610499     1.86143950645178     12.5377011990728
31 1       1.610077280733     2.79462817943462     15.0242490747583
32 1     1.61007817426608     4.66321866345537      2.5093884661716
33 1     1.61007769531103      2.7933005138912     5.01638097395001
34 1     1.61007872569646     4.64492018450118      7.5219607011607
35 1     1.61007796218968     2.78916236314871     10.0274940916175
36 1     1.61007820319859      4.6636917222617     12.5254953414954
37 1 -0.00327186991348538     5.57914997320916     15.0442421657132
38 1 -0.000816602049681738     7.43615662042234     2.50962011846407
39 1 -0.00272702941329153     5.58023627075933     5.02022928134213
40 1  0.00196170380058449     7.43775988686081     7.52449275317763
41 1 -0.00102942712105318     5.57793603138938     10.0270101837699
42 1 0.000159115960348705     7.43671989254316      12.536828416073
43 1    -1.61025898718959     8.36253414153922     15.0442423907661
44 1    -1.59680362888879      10.217701785865     2.50938873424115
45 1    -1.60904535339289      8.3624619665773     5.02022956375284
46 1    -1.61264952519674     10.2268503822365     7.52196103974534
47 1    -1.61018872060879     8.36508216437807     10.0270104330373
48 1    -1.59639396112726     10.2174650759898     12.5254956691495
49 1      6.4433987997403  0.00199488917710132     15.0442423425743
50 1     6.44339910926257     1.85716228949843     2.50983997905263
51 1     6.44406821086675 0.000980125504595839     5.02022965192984
52 1     6.44122780402687     1.85849679520073     7.52707192004914
53 1     6.44122724059245 0.000660088556285889     10.0270104762182
54 1     6.44406816873246     1.85817702172833     12.5338527610334
55 1     4.84350429903823      2.7963986362877     15.0446937009622
56 1      4.8300501264595     4.65156615744239     2.50983987509098
57 1     4.84391441158247     2.79663504831652     5.02858677008368
58 1      4.8301204149034      4.6490175855738     7.52707194140004
59 1      4.8276582542544     2.78724940148111     10.0321214311251
60 1     4.83126303037561     4.65163808926874     12.5338527207595
61 1      3.2234276540596     5.57915003243124      15.044242288962
62 1     3.22097417124072     7.43615659656448     2.50962014930264
63 1     3.22288404142563      5.5802363274932     5.02022943813703
64 1     3.21819705603216     7.43776005587311     7.52449262897507
65 1     3.22118647585869     5.57793617487505     10.0270101836026
66 1     3.21999833421443     7.43671988841833     12.5368283629815
67 1      1.6100786120695     8.36620747443656  0.00140700969694267
68 1      1.6100789441606     10.2263091539387      2.5096201489016
69 1     1.61007906463314      8.3662072697961     5.01662867226522
70 1     1.61007956854304     10.2231015788569     7.52449281986337
71 1     1.61007909853313      8.3662072451461     10.0302310304709
72 1      1.6100789933156     10.2251824002519     12.5368283879831
73 1     9.65737426961893   0.0019951287954214     15.0442421709953
74 1     9.65737481983835      1.8571625780604     2.50983973044116
75 1     9.65670602651051 0.000980214034909442     5.02022934173059
76 1     9.65954736896624     1.85849682955051      7.5270716254706
77 1     9.65954687442468 0.000660230534623377     10.0270102102252
78 1     9.65670611578508      1.8581770980684      12.533852530733
79 1     8.05038676652705     2.78779138102257     15.0444620278023
80 1     8.05038754833958     4.64789322679575     2.50631890574486
81 1     8.05038730409854     2.78891798943459     5.01725359339505
82 1       8.050388328703     4.64789279452479     7.52385108404452
83 1     8.05038748572181     2.79099838640963     10.0295893338347
84 1     8.05038766192909     4.64789295411975     12.5374534102313
85 1     6.43949196839288     5.57794404890656     15.0444619082954
86 1     6.43703838595397     7.43495066397062     2.50983983582348
87 1     6.44046830189604     5.57738042160381     5.01725376552678
88 1        6.43928075257     7.43616395488957     7.52707184437762
89 1     6.44227027207941      5.5763400301506     10.0295894498198
90 1     6.43758265613479     7.43386408287955     12.5338526774114
91 1     4.83041606977384     8.36253448740805     15.0442421985613
92 1     4.81696135737053     10.2177019780522      2.5093883739619
93 1     4.82920360280709     8.36246242761528      5.0202294046374
94 1     4.83280862552324      10.226850766244     7.52196076989047
95 1      4.8303468234719     8.36508246965234     10.0270102171516
96 1     4.81655170132974     10.2174653546652     12.5254953610884
97 2     1.61007702077956    0.929578813726354     1.25386298298787
ITEM: TIMESTEP
4
ITEM: NUMBER OF ATOMS
97
ITEM: BOX BOUNDS xy xz yz pp pp pp
-6.4403077717034334e+00 1.2880619210125166e+01 -6.4403077717034334e+00
0.0000000000000000e+00 1.1154943116692575e+01 0.0000000000000000e+00
0.0000000000000000e+00 1.5046356078130312e+01 0.0000000000000000e+00
ITEM: ATOMS id type x y z
1 1     6.43615083511027     11.1525414699892     15.0249382641259
2 1 -0.00416031228511854     1.86155939415349     2.52914370899332
3 1     6.43641041252805     11.1526908693966     5.01733187805646
4 1 -0.000966102409896267     1.85971519693723     7.52703374363504
5 1     6.43934482483999     11.1543848659441     10.0270482380268
6 1 -0.00390088571816236     1.86140958535597     12.5367500082175
7 1     11.2570974945729     2.79649799709909     15.0459097997754
8 1    -1.60971332280862     4.65227272784358      2.5097877528987
9 1     11.2558052242996     2.79724415584101     5.02953212993134
10 1     -1.6099953477421     4.64904590560702     7.52723735939915
11 1    -1.60793579716819     2.78749948756903     10.0334000396195
12 1    -1.61092726982355     4.65163422610176     12.5339588546088
13 1    -3.21996237781732     5.57758247790577     15.0440375626243
14 1    -3.21617908420221     7.43475384914106      2.5097879486584
15 1    -3.21997352926405     5.57757554861963     5.01724287701518
16 1    -3.21911408702893     7.43612191812758     7.52723753816226
17 1     9.65882589470806     5.57652473308388     10.0296572745374
18 1    -3.21733898505448     7.43402143474965     12.5339590438035
19 1     8.05038811297481     8.35068345855306      15.045910054265
20 1    -4.83023079302886     10.2205608943348     2.52914385722071
21 1     8.05038861473311     8.34919049802031      5.0295322691403
22 1    -4.83023015065994      10.224247975191       7.527033837903
23 1    -4.83023060087163     8.36867952958352     10.0334002549583
24 1    -4.83023065817062     10.2208599751955     12.5367502082949
25 1    -3.21599314936136     11.1525412295705     15.0249384281373
26 1     3.22431490869351     1.86155916472325     2.52914380964481
27 1    -3.21625180255584     11.1526906699561     5.01733205019607
28 1     3.22112219172263     1.85971504106914     7.52703390535062
29 1    -3.21918613923372     11.1543847219559     10.0270483852802
30 1     3.22405602103594     1.86140938635074     12.5367502229797