ITEM: TIMESTEP
13
ITEM: NUMBER OF ATOMS
97
ITEM: BOX BOUNDS xy xz yz pp pp pp
-6.4403077717034334e+00 1.2880619210125166e+01 -6.4403077717034334e+00
0.0000000000000000e+00 1.1154943116692575e+01 0.0000000000000000e+00
0.0000000000000000e+00 1.5046356078130312e+01 0.0000000000000000e+00
ITEM: ATOMS id type x y z
1 1      6.4359893727932     11.1524478932291     15.0247708701222
2 1 -0.00432168905339503     1.86165258542694     2.52931134291185
3 1     6.43625034596905      11.152598470476     5.01745475212078
4 1 -0.00139128582389634     1.85996070899643     7.52701830163001
5 1     6.43891962519092     11.1541395578136      10.027063787791
6 1 -0.00406064220796261     1.86150184368793     12.5366273346809
7 1     11.2577939634126     2.79609590513719     15.0459909845808
8 1    -1.61020041478834     4.65229461601113     2.50959121381191
9 1     11.2558261624245     2.79723204174628     5.02931250929723
10 1    -1.61006439540331      4.6489113380691     7.52720844516192
11 1    -1.60849527729494     2.78782251883749      10.033661482051
12 1      -1.610719193144     4.65147626800031       12.53418503405
13 1      9.6600359099344     5.57722374118612     15.0436077342556
14 1    -3.21640353482193     7.43432072533202     2.50959121353833
15 1    -3.21993427041376     5.57759837787604      5.0175535683568
16 1    -3.21926543666693     7.43613000103663     7.52720843775491
17 1     9.65926399215901     5.57677796558132     10.0295754503146
18 1    -3.21737160780207     7.43428058665394     12.5341850325909
19 1     8.05038820243734     8.35148709967352     15.0459909812495
20 1    -4.83023044422987     10.2203739459139     2.52931129513503
21 1     8.05038830200487     8.34921475636726     5.02931248478852
22 1    -4.83023036523829     10.2237574633109     7.52701830104229
23 1    -4.83023088371406     8.36803374314761     10.0336614807374
24 1     -4.8302304587477     10.2206752931961     12.5366273367256
25 1    -3.21583109073908     11.1524477614499     15.0247707525711
26 1     3.22447705724837     1.86165245714955     2.52931121778897
27 1    -3.21609204031178     11.1525984590403     5.01745475356239
28 1     3.22154700454588     1.85996069149945     7.52701830277836
29 1    -3.21876129455954     11.1541395413412     10.0270637907725
30 1     3.22421618313586     1.86150182838061     12.5366273416312
31 1      1.6100776617084     2.79372640246251     15.0247707954041
32 1     1.61007827643727     4.66261325009908     2.50809110866499
33 1     1.61007777252897     2.79342500892527     5.01745475520463
34 1     1.61007834319138     4.64606650697843     7.52042061039998
35 1     1.61007778064757     2.79034278646253     10.0270637898823
36 1     1.61007827411548     4.66488554415623     12.5247696037818
37 1 -0.00374920375425887     5.57977962345327     15.0444908772093
38 1 0.000430561694648192     7.43687660693973     2.51047435715505
39 1 -0.00278103393034004      5.5798197117717     5.01989705859921
40 1  0.00120267180329858     7.43732228300251     7.52450664126544
41 1 -0.000887110067044397     5.57797024797051     10.0268736532197
42 1 -0.000218371448625737     7.43650192133462     12.5365285225262
43 1    -1.60995231715472     8.36180573159263      15.044490877934
44 1     -1.5973275373411     10.2180044439053     2.50809110871481
45 1    -1.60943344424841     8.36262403045169     5.01989705744116
46 1    -1.61165730985068     10.2262777295111     7.52042060869364
47 1    -1.61008814602821     8.36518891243235     10.0268736476143
48 1    -1.59535964016994     10.2168682578146     12.5247695883734
49 1     6.44418327017318  0.00209353815488804     15.0444908729421
50 1     6.44418376761082     1.85706369216986     2.50959122113377
51 1     6.44373405719285  0.00123504681397484     5.01989706005548
52 1     6.44118594983174      1.8586375397565     7.52720843045332
53 1     6.44118543797528 0.000519590169592027     10.0268736453472
54 1     6.44373450164753     1.85792212488248      12.534185029318
55 1     4.84298055743687      2.7960958988738     15.0459909801471
56 1     4.83035690014255     4.65229457897427     2.50959122358235
57 1     4.84494850779904     2.79723200492687     5.02931245200145
58 1     4.83022107147732     4.64891130851631     7.52720843127102
59 1     4.82865081821882     2.78782250480768      10.033661480559
60 1     4.83087571449995     4.65147625199063     12.5341850271872
61 1     3.22390552884793     5.57977963912946     15.0444908677243
62 1     3.21972688738535     7.43687661358541     2.51047434772667
63 1     3.22293752301483     5.57981973670108     5.01989706188609
64 1     3.21895495228867      7.4373222886633     7.52450664818363
65 1     3.22104362748619     5.57797025676942     10.0268736484209
66 1     3.22037583287251     7.43650193697549      12.536528520727
67 1       1.610078630498     8.36620734839374  0.00176717905235545
68 1     1.61007916394178     10.2248689270898     2.51047435169938
69 1     1.61007871295228     8.36620731321118     5.01971511290171
70 1     1.61007925063426     10.2239774203532     7.52450664611037
71 1     1.61007872319502     8.36620729752049     10.0310263066024
72 1     1.61007917724312     10.2256182396513     12.5365285217271
73 1     9.65659043321254  0.00209354452145372     15.0444908701742
74 1     9.65659093068837     1.85706369916249     2.50959121984445
75 1     9.65703979852318  0.00123506149664027     5.01989706260157
76 1     9.65958895665161     1.85863754656729     7.52720844810713
77 1     9.65958844518125 0.000519597277974018     10.0268736603648
78 1      9.6570402426255     1.85792214049949     12.5341850316101
79 1     8.05038726125005     2.78923142628634     15.0436077399912
80 1     8.05038784315534     4.64789300512859     2.50595883390313
81 1     8.05038734414511     2.78848206346639     5.01755357012007
82 1     8.05038794280213     4.64789295640473     7.52305578445639
83 1      8.0503873687421     2.79012283346289     10.0295754456874
84 1     8.05038785655232     4.64789299077416     12.5343669781304
85 1     6.44073958159362     5.57722374031571     15.0436077423978
86 1     6.43656094000464      7.4343207147963     2.50959122188972
87 1     6.44009073360741     5.57759836698294     5.01755356977012
88 1     6.43942303476746     7.43612999908431     7.52720844088991
89 1     6.44151170980142     5.57677796709662     10.0295754416424
90 1     6.43752904281959     7.43428056865872     12.5341850284764
91 1     4.83010957529665     8.36180577605032     15.0444908667373
92 1     4.81748586635755     10.2180044555583     2.50809111006645
93 1     4.82959085666473      8.3626240524869     5.01989706281522
94 1     4.83181580239946     10.2262777510413     7.52042061115394
95 1     4.83024559561108     8.36518894572079     10.0268736582505
96 1     4.81551801356253     10.2168682983193     12.5247696353615
97 2      1.6100774901224     0.92957861764561      1.2538630065882
