ITEM: TIMESTEP
2005
ITEM: NUMBER OF ATOMS
4861
ITEM: BOX BOUNDS pp pp pp
0.0000000000000000e+00 4.7496081794731396e+01
0.0000000000000000e+00 4.9359376101810554e+01
0.0000000000000000e+00 4.6322427954443121e+01
ITEM: ATOMS id type q x y z
1 1  0.00487656740697886     3.20847545677695     1.77477661545668     1.28841059954587
2 1 -0.00441741322653016     1.66739895647277    0.887253418987032     3.76648126944867
3 1  0.00475601211299281     47.4724277609325     3.54017793035211     3.76407448111114
4 1 -0.00264356395255783     1.57440449932984     4.48126337085019     1.16363619988342
5 1  0.00222424700214184     3.27996502882851     1.82109984509482     6.36752412209122
6 1 -0.000607617503431137     1.57273846839753    0.881850251679431     8.92065014573789
7 1 -0.00681918689196138     47.4787926873544      3.5209784447422     8.95718409422565
8 1 -0.00254688372836621     1.64871513170839     4.52983281575923     6.35133699968616
9 1  0.00113909571814848     3.12562086807501     1.81285160340012      11.575598307765
10 1  0.00418808618636735     1.61539257885126    0.955404727803419     14.1609964405812
11 1  0.00327921086813582   0.0241152719728066     3.75293640458401     14.0297766290095
12 1  0.00425646474665883     1.60643738401503     4.58036949359891     11.5040245451019
13 1 -0.00143296433176984     3.19992236624845     1.83252828238708     16.7232021781512
14 1  0.00312485617280981     1.60999791065081    0.856911316553477     19.2592281842595
15 1 -0.00745017256737504      47.450994613187     3.57595237834422     19.2312050221406
16 1 -0.00434131594904268     1.56848090986739      4.6130439906366     16.5798512374746
17 1  0.00856638195689632     3.17159552916847     1.74748152405866     21.7696188381974
18 1   -0.013483207676186     1.53381628083943     1.27695137125919     24.2525907803718
19 1  0.00941265217028421     47.3559425336719     3.72084664174236     24.5007988435415
20 1  -0.0099337803831262     1.58128923901709     4.23568667302256     22.0342254073146
21 1 -0.00177083442203161     3.11225083721223     1.85844717389125     27.0168549161181
22 1 -0.00269664683524726     1.52249958232581    0.904733182832426     29.6201099341041
23 1 -0.00590747535294283   0.0575806840573523     3.72629180629654     29.4989011330165
24 1  0.00425093695881987     1.59985252006176     4.64004202609801     26.9119315186077
25 1  0.00607899988180874     3.21697044857551     1.95702879397782     32.0498018326568
26 1 -0.000449796904525079     1.62461371553067     1.04401075752863     34.7141430899406
27 1 -0.00376440666302748     0.01638088978384      3.6719943650638     34.6311851639443
28 1  0.00753980382663637     1.61551009829664      4.5874231330598     32.0788423025607
29 1  0.00233642276152325     3.17911104969801     1.91398510434066     37.2777935752348
30 1  0.00537515268291491     1.69801108554087    0.964335989060435     39.8433317078248
31 1 0.000807155831544474   0.0743660914656176     3.74814587163244     39.7938444333844
32 1 -0.00623115257789264     1.63178689215813     4.66702943527566     37.2719971580023
33 1 -0.00917736277560324     3.22771239781494     1.77033028849713     42.4205011229156
34 1 0.000170093773582523     1.64817140869356    0.937867069356974     45.0787428093883
35 1 -0.00230379196439126     47.4913815136339     3.69293260976445     44.8842110805117
36 1  0.00280529204283928     1.69997488361645     4.61564045537777     42.4170043241618
37 1 -0.00237163955534937     3.21001603559392     7.24707934208986     1.14821545964586
38 1 -0.00865141192811258     1.57967128363792     6.29827401002493     3.74357079913405
39 1 -0.00772135013666519    0.099505564456401     9.08921401116775     3.77772372864354
40 1  0.00161903324832193      1.6882931873383     10.1279464667224     1.13271338406327
41 1   0.0139209949204293     3.15697051270879     7.28739261893271      6.3424663250813
42 1  0.00613061185066066     1.55771531477317     6.30293230667437     8.88518389537216
43 1  0.00025872206127278   0.0311006170215887     9.13773679602195     9.00691023609041
44 1 -0.00251193350791372      1.6698615966281      9.9248348757623     6.30271161418354
45 1 -0.00404274269905132     3.22065158959323     7.26753968477278     11.4744519070786
46 1 -0.000935311665024926     1.61513522722666     6.41389217104107     14.0635750380629
47 1  0.00450157414810154   0.0559482167318972     9.14057587495152     14.0598382354772
48 1 0.000205504829094226     1.57505446085306     10.0880867670674     11.5716718293194
49 1 0.000191284722184592     3.15457940934921     7.33389340233661     16.6969022666521
50 1  -0.0030185216620683      1.5752291130622     6.33056789217172     19.2217668606464
51 1 -0.00507848259200358   0.0472668544515552       9.053583766964     19.2198181812822
52 1  0.00734592456027456     1.61594340619056      10.051130438094     16.6657435788769
53 1  -0.0065942450705876     3.14206156552984      7.3168559750855     21.8185489814844
54 1 -0.00691474655170392     1.58143411829629     6.46337083639057     24.4409543190215
55 1  0.00617840521025649     47.4516583190857     9.13413537903156      24.350700299697
56 1 0.000190192123204023     1.46328922636766     10.0730860388402     21.7958131939882
57 1 -0.00227280140728287     3.13286286960769     7.41534694716674     26.9858143091005
58 1 -0.00402335203987616     1.61820155566143     6.45403211249332     29.4362130409776
59 1  0.00415250678247432     47.4547925252696      9.2270576820191     29.5761517761195
60 1 0.000894754958341867     1.52209906535819       10.06474327324     27.0168342541765
61 1 0.000685292492390389     3.20648671231029     7.32615356647798     32.1466310689755
62 1 0.000981998289384058     1.62353284928184     6.43820538784407     34.6553713965927
63 1 -0.00256264171404915   0.0139267644729292      9.1803688510236     34.6540116681047
64 1  0.00597573196456448     1.59367889944936     10.0532892344024     32.1159792467849
65 1 -0.00352996179573318     3.24213657615664     7.40962201101649     37.3137841793627
66 1 -0.00272836067089609     1.54710999315227     6.50124441836322     39.8915924241087
67 1 -0.000767889865550971     47.4731140313417     9.26047801426189     39.7488973922772
68 1  0.00520543970426531     1.59567067996553     10.1346807952643     37.2033765812107
69 1  -0.0029526377334404     3.24002050707598     7.35141547939354     42.4240976107418
70 1  0.00833293567184904     1.58361350139532     6.36630473279796      44.964048181592
71 1 -0.00200348581636963   0.0793967744289393     9.11254298715522     45.0497969043042
72 1  -0.0112893380460776     1.58715779760126     10.0023740284061     42.3076071770823
73 1   0.0025580261019869     3.30014613285035     12.8221212121894     1.18745519174904
74 1 -0.00255183936171848     1.72800634972711     11.8032510646788     3.78438632826149
75 1 -0.00117350521177984    0.105006246010643     14.5795267778467     3.77666212921529
76 1  0.00298029474029493      1.6256104030823     15.5259382948928     1.17990060180537
77 1  0.00333983981957589     3.15877398870298     12.7191909155664     6.43847001722536
78 1  0.00209034884648648     1.52133517560561     11.7744060692275     8.96703807120074
79 1  0.00983978052434668     47.4590589955565     14.5321166981972     8.92052771660228
80 1  0.00272277308291755     1.57500062600495     15.5469722603345     6.41102756301453
81 1 -0.00364988959399978     3.10609821953664     12.7598501516916     11.5723121255179
82 1  0.00301716739459862     1.53890988100602      11.895840260094     14.1569904648767
83 1  0.00133536741868381  0.00766575549689227     14.6694186719452     14.1710022357895
84 1 -0.00455613548087017     1.58731047525989     15.5115335964497     11.5853912922708
85 1 -0.00136653695510544       3.112722283772     12.8715292362565     16.6760857892545
86 1 -0.00263181917273177     1.60167306551247     11.8911965704229     19.2016587325611
87 1 -0.00745231547049647     47.4078680849641     14.6545146809455       19.21592223015
88 1 -0.00374717775155508     1.53803847353552     15.5877976005969     16.7056481466082
89 1  0.00910637760838064     3.06593763990455     12.8799398410588      21.784481762515
90 1  0.00154316852279726     1.58067981163673     11.8241214090115      24.436061676331
91 1   0.0043663446815689     47.3479342336375      14.655069354474     24.2849170943395
92 1  0.00286796462131207     1.56393347845769     15.5223666313022     21.8682746194733
93 1 -0.00274963171019834     3.11281133296139     12.7414923299501     26.9556639593848
94 1 -0.00511956255395894     1.51921225715221     12.0780452279223     29.5240824126343
95 1   0.0101291510206397     47.3861448012652     14.7589385104763     29.4931331043097
96 1 -0.00357881060061377     1.48505457681574     15.5426441771639     26.9937250367004
97 1   0.0049429172336402     3.13788314469455     12.8265878767981     32.1457451435641
98 1  0.00391441125977329     1.55759782841605     11.9133533334877     34.6160268429921
99 1 -0.000898387519539004     47.4730801376599     14.6819473678848     34.6769412559051
100 1 7.88880569312505e-05     1.61704633698286      15.525687829861     32.0270008210461
101 1  0.00300931560663748      3.1845863100992     12.7883895755562     37.2137936139985
102 1 -0.00790045153780388     1.63045677394826     11.8720841951536     39.7341695218585
103 1 -0.000364400116786338     47.4422846056875     14.6510963015457     39.9289646719318
104 1 -0.00979144987657702     1.52615859576867     15.4801339715048     37.2797881820532
105 1  -0.0043518140769278     3.15795135830099     12.8178964129742      42.374764596799
106 1  0.00113523017399916     1.66989017143389      11.948874358897      44.928209947124
107 1  0.00558362132605108     47.4844715548542     14.6582659372955      44.972271751266
108 1  0.00422025019134509     1.47084355637326     15.5471381331501     42.4752850013714
109 1 -0.000497795942051336     3.15856981193394     18.2540582533411     1.21322470697792
110 1 -0.00325834322630518     1.60631304739582     17.3944640068438     3.84583137534098
111 1 -0.00686697936548903   0.0424443605785838     20.1022982813227     3.77567208213733
112 1  0.00215640798038499     1.67483751349235     20.9422757406017     1.19252567737898
113 1 -0.00554584267953919     3.13831664446141     18.2980196992158     6.38134046547969
114 1 -0.00837634714951929     1.52168546428973     17.2875608950326     8.95664267535598
115 1  0.00228812907863687    0.111640281042549     20.0754722496968     8.98831203383076
116 1  0.00433866856729894     1.56664672291267     20.9922528720378     6.43020604209399
117 1  0.00321144129439941     3.19273115720489     18.2861274744567     11.4120337999195
118 1  0.00136617562532823      1.5569347255394     17.4266326182729     14.1538772290541
119 1  0.00483760290516836     47.4901235127035     20.0529856281328      14.196435964319
120 1 -0.00426366776626681     1.58450978418052     20.9888860809514     11.5240187885915
121 1  0.00334228707717537     3.16511443214686     18.3890380636924     16.7746808551578
122 1  0.00426960481057998      1.5758812816882     17.3427783009401     19.3472367218485
123 1 -0.00641319218166435     47.4748193066745     20.0361521485348     19.3067468015389
124 1  0.00550454618269352     1.61997153639715       21.00849168054     16.7717756231523
125 1 -0.00949895832334013     3.13368579906242      18.351414074563     21.9020231538809
126 1 -0.00111436793671847     1.52451136132345     17.3615830637516     24.4631295179003
127 1  0.00571522397823575   0.0426682224080501     20.1605934837021     24.5108073609293
128 1 -0.000946549643962823     1.53742577285635     20.9874020842624     21.8875549601659
129 1   0.0064437136699102     3.02464362551504     18.3627238391222     27.0307147774141
130 1 -0.00545997424349052     1.48233836992899     17.3876107360078     29.5314777378846
131 1 0.000853182946998594     47.4244722257668     20.1301842996263     29.5929298805733
132 1  0.00192529792827853     1.54430509155378     21.1497004420204     27.0423899725863
133 1 -0.00339698427801501     3.19197984606772     18.3069781153959      32.147933942935
134 1 -0.00310221180823582     1.52353473574533     17.3519537604685      34.671960709611
135 1  0.00857701575831539     47.4286466998035     20.0555693486613     34.7437942999214
136 1 -0.00978970785758806     1.51383659191533     21.0051847130551     32.1470946144618
137 1 -0.00179493232942475     3.22388458990103     18.2082260287158     37.2602173628016
138 1  0.00748656954544617     1.66512023579423     17.3474971864015     39.9555737170045
139 1  0.00988440806203983     47.4678442791256     20.0923123444873     39.8881155703626
140 1  0.00252366001396667     1.60409986404008     20.9813413509116     37.3223166012502
141 1  0.00110524005110779     3.12098015340837     18.2105938456687     42.4276581008315
142 1  0.00290179950553171     1.57805359906114     17.3759345296925      45.076882998044
143 1  0.00116528475849428     47.4882313009046     20.0531654548272      45.079858995471
144 1 0.000338296594795712     1.56061968819267     20.9749442276571     42.4636776583643
145 1 -0.00430094161319639     3.22184725291977     23.7400885728795     1.27453562832288
146 1  0.00155628893350237     1.57982869229375     22.8068162253488      3.7450062194548
147 1 -0.00803819952409662    0.090360116624711     25.6360526397677     3.81080705740552
148 1 -0.000413420955959927     1.59693410403542     26.5075664629665     1.22642795331344
149 1 -0.00532716488842367     3.12237467796985     23.7417788822386     6.31543448373206
150 1 -0.00233928030565655     1.63703758617289     22.9035935605739     8.96658622247062
151 1 -0.00320006013234917   0.0739044595242522     25.6090531867126     8.91323823005384
152 1  0.00627477692693393     1.64515566812284     26.5166036521516     6.28282444780421
153 1  0.00453884906751796     3.20452383665954       23.76267398216     11.5772680257663
154 1 -0.00762633827168973     1.61592134642961     22.7667058563172     14.1590650087602
155 1 0.000805050563447888  0.00511457173041317     25.6130379979557     14.1533227359168
156 1 -0.00108150952633456     1.64565905139377     26.5050739690381     11.5968604965814
157 1 -0.00308462450634258     3.15101382102102     23.7014337000307     16.6787232344613
158 1  0.00718930258032198     1.55298803959537      22.834697507784      19.255260545751
159 1  0.00330327374681583   0.0192344196345379     25.6403823315515     19.2141610527772
160 1 -0.00566835532936719     1.66434465591108     26.5327644302618     16.5878645767522
161 1 -0.00246939873520486     3.15628931818784     23.7425724466523     21.7813734259071
162 1  0.00223630112552567     1.54701168470345     22.8550188764789     24.3667598522928
163 1 -0.00268291215947884     47.4865685203811     25.5706668851216     24.4410191088675
164 1 -0.00209072360650635     1.57907604436587     26.5511033233159     21.8817778669939
165 1  0.00139881263713396     3.28321730014757     23.8581984352613     26.9989134241296
166 1 -0.00444866928391096     1.60703777992408     22.8521377557302     29.5577200089525
167 1 -0.00449650705495446 0.000881314184295153     25.6573322213814       29.53322106366
168 1 -0.00167489641560336     1.59135034430354      26.486267284529     27.0498596472576
169 1 -0.00183037772788712     3.14130913157153     23.7822721286116     32.1651597318473
170 1  0.00338126249325009     1.54490378947605     22.8166926303084     34.7969760542242
171 1   0.0011299548803574   0.0186667966218365     25.5893833054521     34.7267653604443
172 1 -0.00497252962526872     1.67949267007632     26.5637405611051     32.1615990677536
173 1 -0.000296998375869924     3.19238594406016     23.7330367056411     37.1094171387629
174 1 -0.00725843779878124       1.631906788936     22.8157720175009     39.8063427713768
175 1  0.00224121860621003     47.4761956638744     25.6118580799969     39.9065473332823
176 1 -0.00675325520417341     1.51188715872217     26.6021599205948     37.3191378647646
177 1   0.0059295928926483     3.21640060146841     23.7271347979471      42.281216893833
178 1 -0.00420040759439573     1.69756635971194     22.7945421023676     44.9152492514291
179 1  0.00448749190577492   0.0877588321788086     25.5232068480378      44.942611423162
180 1 -0.00457629202236915     1.70117037786037     26.4970985137166     42.4628590092625
181 1  0.00043268531691606     3.22059853480453     29.3295645189154     1.25259354535556
182 1 -0.00179009091749772     1.70451866936913     28.3793265740783     3.80081476368782
183 1  0.00946365431246246   0.0745312028763796     31.2272035989072      3.7781869177398
184 1  0.00176845997416953      1.6295743428131     32.0896179978062     1.34026551538476
185 1 -0.00279060144891392     3.40419167151767     29.2826570202607     6.43356405014957
186 1 -0.000722042495199626     1.72192714505531     28.3396927311423     9.00054198927971
187 1  0.00114628757306969   0.0411645436145502     31.0986546492678     8.91537848888533
188 1 -0.00455636592341544     1.71465909238783     31.9753839970847     6.29603255638112
189 1  0.00227794999512118     3.32449180051517      29.316263522338     11.5552750943277
190 1  0.00362013338567287     1.70499703824087     28.3543429232267     14.1621251887318
191 1  -0.0019350707824294    0.114028407337766      31.099759846057     14.1165414119995
192 1  0.00226682299559964     1.74070020417935     31.9402351563796     11.4683523634582
193 1 -0.00161118775476566     3.21906624083644      29.338069941125      16.696467757552
194 1 -0.000285567778178639      1.5926219586065     28.3399050098871     19.2738157487754
195 1  0.00945326087382841    0.101344348111143     31.1382235335659     19.2589853514049
196 1 0.000324629136018666     1.61129631910601     32.0736318999645     16.6817069859482
197 1 -0.00257431920084079     3.16592401487406      29.273318637067     21.8479137699955
198 1 -0.00313609133139776     1.59432423388619     28.3118930890149      24.497474672029
199 1  0.00422049876713868   0.0569013372421819     31.1010173970055     24.3276632766729
200 1  0.00182889951066992     1.56754907979573     32.0520225191775     21.8321386481953
201 1   0.0024721815453901     3.19725813789003     29.2557510215159     26.9992753252801
202 1 -0.000988466471949871      1.6411343862177      28.431060983943     29.6076466511163
203 1  0.00058595131135839   0.0514780012353548     31.1088107940982     29.5783053392595
204 1  0.00846907408368383     1.65660388354711     31.9194489421624     26.9618245524886
205 1  0.00649177613782252     3.23836141191471     29.3742568153438     32.1331328324468
206 1 -0.00168059910414409     1.59604834039708     28.4118716376682     34.7536378640069
207 1  0.00580300858308733   0.0727894458788538     31.1200583615567     34.7086554901349
208 1  0.00519138480855193     1.56241825958124     32.0158513041816      32.152314942755
209 1  0.00336320057738407      3.1874021181861     29.2347641494261     37.3282669598051
210 1 0.000515448529089977      1.5798603276461     28.4411981433653     39.9127379218917
211 1 -0.00440544666606662   0.0388023560403568     31.1705572935035     39.8678069190703
212 1 -0.00619244878382947     1.62884111660532     31.9744420278751     37.3149717162824
213 1  0.00611941257157041     3.23185522484296      29.236431167737     42.4290138151282
214 1 -0.000596524314437173      1.5773937481047     28.2968462068568     45.0246040312045
215 1 -0.00331583245893565   0.0375093190025911     31.1234578719517     44.9487834828287
216 1  0.00849756016356045     1.59349980038255     32.0972147136618     42.3211993948625
217 1 -0.00128951734475464     3.20579285092518      34.749586468151     1.26143574646412
218 1  0.00456606851391203     1.66279506640494     33.8760143194915     3.90231274321456
219 1 -0.000674085343385431   0.0852054912772705     36.6095639282985     3.67072410902416
220 1  0.00551180525201392      1.6797714896675     37.4341652724572     1.16088308799891
221 1   1.237321703897e-05      3.2759208347995     34.7779650388081     6.38118569106391
222 1  -0.0125632588997881     1.63654409139597     33.8604290458435     8.99269981995125
223 1  0.00892222179962885   0.0220442229840626     36.5831840709185     8.88300224082487
224 1 -0.00348646505466135     1.60028614756818     37.4420988409609     6.40429274861188
225 1  0.00245650622104019     3.24042639987876     34.7852215867092     11.5631814239424
226 1 0.000756251659489783     1.69113481403996     33.8988123859848     14.0781568663612
227 1  0.00556566970850402   0.0334024263972125     36.5728519785144     14.0627695366904
228 1  0.00374007366175041     1.59277038757619     37.4839730434471     11.4626642693928
229 1  0.00233993822929146     3.17537221492598      34.846675934904     16.6829459153511
230 1  0.00542633541939187      1.6178573914247     33.8023729793013     19.1774731213622
231 1  0.00103373811413143     47.4681029917264     36.5326760221699     19.1823650712221
232 1 -0.00265026825956876     1.63415033563936     37.4946266556907     16.7025462724909
233 1  -0.0108855466790936     3.21514907235933     34.7155521625852     21.8392545012072
234 1 -0.000637073267667797     1.60126561955772     33.7623694297987     24.4750497011362
235 1 -0.00203638097567247    0.006620533338579     36.5635512509343      24.485638807389
236 1 -0.000647539292933846     1.56860659285088     37.5292933603026     21.8256712011796
237 1  0.00936290342072992     3.17427525400539     34.7417768346776     27.0437407650173
238 1  -0.0108049466195049     1.69701152664769     33.7808552407963       29.53631015665
239 1  0.00455258948603048     47.4256914859592     36.6340128927198     29.6307268653476
240 1 0.000236352752697149     1.59873185588528     37.4595320613085     27.0803969660329
241 1 -0.00671371267923184      3.1824091775392     34.7606523324448      32.181613264929
242 1 -0.00180850279028528     1.49580715298573     33.8043420498743     34.7633963504827
243 1 -0.00676408996110457     47.4738066727011     36.6233786859365     34.7755623365057
244 1 0.000175270232151078     1.54711868870478     37.5076220668315     32.1092344684508
245 1 -0.00212392023082275      3.1653715206211      34.821922150074     37.1951863743841
246 1  0.00144616810023353     1.52516056903562     33.9254386871033     39.8511806919967
247 1 -0.00409994803754554     47.3921544556799     36.5585658531069     39.8368072913014
248 1  0.00464942667064579     1.53935972409643     37.4664171130752      37.289076080393
249 1 -0.000811268423336095     3.21823685969307     34.7496623391029      42.332775729017
250 1  0.00283528131355327     1.53746030333438     33.8372718486633     44.9314234360144
251 1 -0.00195092971836118    0.089957796499469     36.5884837230149     44.9499835608252
252 1  0.00273403797792651      1.5144721059242      37.506523410402     42.3717020617731
253 1 -0.00266147502499513     3.20935766336168     40.2139724510237     1.15750318468393
254 1 -0.00588591734011695     1.61504957048445       39.30292527222     3.73395246477918
255 1  -0.0062300878464663    0.101104998235192     42.0965341864581     3.71769116126115
256 1 0.000600169398207608     1.62308224565803     42.9397443278691     1.17935761257939
257 1  0.00410913839622813     3.19184121105906     40.2605925458116     6.36537686462141
258 1  0.00336824682851062     1.61800667523123     39.1752116692583     8.97524606768193
259 1 -0.00206083317804844     47.4478559429951     42.0602671730624     8.85779701480216
260 1 0.000794426892898304     1.64069562842842     42.8740326235011     6.38122744778355
261 1  0.00482603354572733     3.19531121462591     40.1712593255719      11.583530319799
262 1 -0.00850345682019705     1.58090206586774     39.3131114915161     14.1018015157717
263 1 0.000305495789435065   0.0612583441752407     42.1135656837001     13.9852660516522
264 1  0.00283216411076383     1.65633379692177     42.8208394535393     11.5247986519425
265 1  0.00531228340120499     3.16694660466639     40.2422937261403     16.7031055435182
266 1  0.00608350426696443     1.55276528897808     39.3267164872148     19.2764921149323
267 1  0.00023028432408124   0.0577577772044793     42.0246426452774     19.1927456357423
268 1  0.00144336374676075     1.63309455821559     42.9870339188252      16.685572384041
269 1  -0.0019071585737833     3.15322406642873     40.2108381028495     21.8183771637828
270 1  0.00158014164853859     1.55549654198678     39.3574130145236     24.5249870003677
271 1  0.00141348929967181     47.4594157523673     42.1184535754876     24.4194428236151
272 1 -0.00571467938066283     1.55409755650314     42.9572393866227     21.8317742490064
273 1  0.00181911342745242     3.17686270537688     40.2218928426814      26.988101167428
274 1  -0.0013936229983762     1.61763674775051      39.275120447729     29.6966657058796
275 1  -0.0055722922232897     47.4238132099345     42.1021733671055     29.5204975885638
276 1  0.00423229084575993     1.54550777645988     42.9928146029559     27.0378839739455
277 1  0.00126021441058722     3.14220403762273      40.301614827686     32.1741863837974
278 1  -0.0011881225385678     1.62228876961189     39.4192833764382     34.7202182258608
279 1 -0.00695091522141177     47.4809154422121     42.1138576643205     34.6727315969601
280 1   0.0044135676042348      1.5349027976711     43.0336088784875     32.0829603114047
281 1 -0.00443388584228186     3.17353741150016     40.2728926807812     37.2065541369247
282 1 0.000354371207642869     1.55122214648076      39.253421085996     39.7363001679763
283 1 -0.00185856856106084     47.4702566103146     42.1231079130535     39.8276662398866
284 1 0.000122808629390701     1.66214257268317     43.0052997547467     37.2786851367286
285 1  0.00434027572838936     3.10042421061198     40.1508863582595     42.2856162314767
286 1  0.00472803915549525     1.66885648649117     39.2755511580415      44.940461839141
287 1 -0.00213492585610239     47.4696546427144     42.0742040195857     44.9357947807258
288 1 -0.00406548553089647     1.54788052463926     42.9683763537447     42.3181341057835
289 1  0.00104633804151683     3.18142306764228     45.6267350693108     1.16757899315512
290 1 -0.00184591144126933     1.66989754973038     44.8460516954881     3.78623262536038
291 1 -0.00740760828129631    0.045228665413655     47.5232509291744     3.78394538134629
292 1 -0.00691796749423449     1.59186946005817     48.3381090365305     1.15985239399177
293 1  0.00214750612826047     3.08167338007645     45.7296124669513     6.45985814638809
294 1  -0.0037548286214004      1.6512957285623     44.7381846991163     8.94361628519074
295 1 -0.00250496501405001   0.0349903779637768     47.4990907491626     8.92499164285906
296 1 -0.00077162722273749      1.6356995169317      48.461696905656     6.35827954040764
297 1  -0.0041871900872893      3.1947442746084     45.6095751602655     11.4780888290675
298 1  -0.0018433241269232     1.62731961740589     44.7539546192089     14.0653675801421
299 1 -0.000336396420348771   0.0516940704015665     47.5199849298331     14.0652764673493
300 1 0.000879025584462431      1.6439113634789     48.4230338952439     11.5451534831565
301 1   0.0055204587705065     3.12285471654819     45.6847878630168     16.7049946595677
302 1  0.00610520576333575     1.53347637444515     44.8638738742135     19.2911457079296
303 1  0.00220650000681057      47.441540459057      47.539565595792     19.2177461203935
304 1 0.000365700972923837     1.53774609097504     48.4389475139401      16.626955783205
305 1  0.00396881826812101     3.10815466157979     45.6347801936138     21.8614371588534
306 1  0.00180731519452192     1.70031870589158     44.7426143013372     24.4410321201668
307 1 -0.00607772503202407   0.0125977693955939     47.5119805522793     24.3462962182701
308 1   0.0022224651920279     1.55502958592673      48.390522159253     21.8426248192914
309 1  -0.0013537354398824     3.05173742037257     45.7308034357904     26.9918867961027
310 1  0.00915238340268972     1.47256834094661     44.8037210380288     29.5288398694461
311 1 -0.00419940490083167     47.4374425546457     47.5238096298833     29.5224477764368
312 1 -0.00297948314741904     1.55157343607982     48.4442462311885     26.9925150927552
313 1  0.00105906880630112     3.09284033109068     45.7741856250457     31.9814456459932
314 1  0.00316565269920125     1.58190975200788     44.8416932571759      34.531021396101
315 1 0.000828202168424983   0.0116250834286418     47.6218701818359     34.6693827127735
316 1 -8.2753979681802e-05     1.56195981044029     48.5154463937632     32.1179744458361
317 1 -0.00170596891896701     3.20261187388842     45.8114456477361     37.2131263712048
318 1   0.0063919134090307     1.60494924037131     44.9024317222174     39.7478204787023
319 1 -0.00770980009210943     47.4806347159031     47.6030168663833     39.7767849897042
320 1 -0.00420246913821147     1.61328057720401      48.594877168272     37.2542983860892
321 1 -0.000159314299644055     3.11240473291538     45.7322490034903     42.3791623082368
322 1  0.00131211897291919     1.55234297992756     44.8543351899337     44.9832734916117
323 1  0.00161950960972393   0.0445706989072846     47.5703011260313     44.9555021129076
324 1  0.00355268199788241     1.60653386432648     48.3967817989929     42.4105174516636
325 1 -0.00722481684701862     6.38032861168537     1.74235754838336     1.29989769872774
326 1  0.00961497890062909     4.76287901506714    0.935371038111007     3.79674583847039
327 1  0.00224307468624098     3.09884463949664     3.65634954705836     3.80676171369534
328 1 -0.00636297736906292     4.74578963095602      4.5987821066852     1.26534381492536
329 1 -0.00128855555506012     6.37646175621736     1.88406219027267     6.37147837859784
330 1 -0.00659586892086427     4.73149139291276     0.93800528077534      8.9969010825983
331 1 -0.000376706560079353     3.08108458484226     3.64116402531751      8.9307529958803