(written by ASE)

4861 atoms
2 atom types

0.0      47.496081794731396  xlo xhi
0.0      49.359376101810554  ylo yhi
0.0      46.322427954443121  zlo zhi

Masses

     1      178.48999995408445 # Hf
     2      15.998999995884349 # O

Atoms # charge

     1   1   0.0      3.1793950412290606      1.8506236682817898        1.23578671015436
     2   1   0.0      1.5961923152619897     0.93656114696847703      3.8092549298456402
     3   1   0.0      0.0129895887709384        3.67874870818018      3.8092549298456402
     4   1   0.0      1.5961923147380099      4.5928112294934902        1.23578671015436
     5   1   0.0      3.1793950412290606      1.8506236682817898      6.3827231495369299
     6   1   0.0      1.5961923152619897     0.93656114696847703      8.9561913692282111
     7   1   0.0      0.0129895887709384        3.67874870818018      8.9561913692282111
     8   1   0.0      1.5961923147380099      4.5928112294934902      6.3827231495369299
     9   1   0.0      3.1793950412290606      1.8506236682817898      11.529659588919497
    10   1   0.0      1.5961923152619897     0.93656114696847703      14.103127808610777
    11   1   0.0      0.0129895887709384        3.67874870818018      14.103127808610777
    12   1   0.0      1.5961923147380099      4.5928112294934902      11.529659588919497
    13   1   0.0      3.1793950412290606      1.8506236682817898      16.676596028302068
    14   1   0.0      1.5961923152619897     0.93656114696847703       19.25006424799335
    15   1   0.0      0.0129895887709384        3.67874870818018       19.25006424799335
    16   1   0.0      1.5961923147380099      4.5928112294934902      16.676596028302068
    17   1   0.0      3.1793950412290606      1.8506236682817898      21.823532467684636
    18   1   0.0      1.5961923152619897     0.93656114696847703      24.397000687375915
    19   1   0.0      0.0129895887709384        3.67874870818018      24.397000687375915
    20   1   0.0      1.5961923147380099      4.5928112294934902      21.823532467684636
    21   1   0.0      3.1793950412290606      1.8506236682817898      26.970468907067211
    22   1   0.0      1.5961923152619897     0.93656114696847703      29.543937126758486
    23   1   0.0      0.0129895887709384        3.67874870818018      29.543937126758486
    24   1   0.0      1.5961923147380099      4.5928112294934902      26.970468907067211
    25   1   0.0      3.1793950412290606      1.8506236682817898      32.117405346449772
    26   1   0.0      1.5961923152619897     0.93656114696847703      34.690873566141057
    27   1   0.0      0.0129895887709384        3.67874870818018      34.690873566141057
    28   1   0.0      1.5961923147380099      4.5928112294934902      32.117405346449772
    29   1   0.0      3.1793950412290606      1.8506236682817898      37.264341785832336
    30   1   0.0      1.5961923152619897     0.93656114696847703      39.837810005523622
    31   1   0.0      0.0129895887709384        3.67874870818018      39.837810005523622
    32   1   0.0      1.5961923147380099      4.5928112294934902      37.264341785832336
    33   1   0.0      3.1793950412290606      1.8506236682817898      42.411278225214907
    34   1   0.0      1.5961923152619897     0.93656114696847703      44.984746444906193
    35   1   0.0      0.0129895887709384        3.67874870818018      44.984746444906193
    36   1   0.0      1.5961923147380099      4.5928112294934902      42.411278225214907
    37   1   0.0      3.1793950412290606      7.3349987907051846        1.23578671015436
    38   1   0.0      1.5961923152619897      6.4209362693918708      3.8092549298456402
    39   1   0.0      0.0129895887709384       9.163123830603574      3.8092549298456402
    40   1   0.0      1.5961923147380099      10.077186351916886        1.23578671015436
    41   1   0.0      3.1793950412290606      7.3349987907051846      6.3827231495369299
    42   1   0.0      1.5961923152619897      6.4209362693918708      8.9561913692282111
    43   1   0.0      0.0129895887709384       9.163123830603574      8.9561913692282111
    44   1   0.0      1.5961923147380099      10.077186351916886      6.3827231495369299
    45   1   0.0      3.1793950412290606      7.3349987907051846      11.529659588919497
    46   1   0.0      1.5961923152619897      6.4209362693918708      14.103127808610777
    47   1   0.0      0.0129895887709384       9.163123830603574      14.103127808610777
    48   1   0.0      1.5961923147380099      10.077186351916886      11.529659588919497
    49   1   0.0      3.1793950412290606      7.3349987907051846      16.676596028302068
    50   1   0.0      1.5961923152619897      6.4209362693918708       19.25006424799335
    51   1   0.0      0.0129895887709384       9.163123830603574       19.25006424799335
    52   1   0.0      1.5961923147380099      10.077186351916886      16.676596028302068
    53   1   0.0      3.1793950412290606      7.3349987907051846      21.823532467684636
    54   1   0.0      1.5961923152619897      6.4209362693918708      24.397000687375915
    55   1   0.0      0.0129895887709384       9.163123830603574      24.397000687375915
    56   1   0.0      1.5961923147380099      10.077186351916886      21.823532467684636
    57   1   0.0      3.1793950412290606      7.3349987907051846      26.970468907067211
    58   1   0.0      1.5961923152619897      6.4209362693918708      29.543937126758486
    59   1   0.0      0.0129895887709384       9.163123830603574      29.543937126758486
    60   1   0.0      1.5961923147380099      10.077186351916886      26.970468907067211
    61   1   0.0      3.1793950412290606      7.3349987907051846      32.117405346449772
    62   1   0.0      1.5961923152619897      6.4209362693918708      34.690873566141057
    63   1   0.0      0.0129895887709384       9.163123830603574      34.690873566141057
    64   1   0.0      1.5961923147380099      10.077186351916886      32.117405346449772
    65   1   0.0      3.1793950412290606      7.3349987907051846      37.264341785832336
    66   1   0.0      1.5961923152619897      6.4209362693918708      39.837810005523622
    67   1   0.0      0.0129895887709384       9.163123830603574      39.837810005523622
    68   1   0.0      1.5961923147380099      10.077186351916886      37.264341785832336
    69   1   0.0      3.1793950412290606      7.3349987907051846      42.411278225214907
    70   1   0.0      1.5961923152619897      6.4209362693918708      44.984746444906193
    71   1   0.0      0.0129895887709384       9.163123830603574      44.984746444906193
    72   1   0.0      1.5961923147380099      10.077186351916886      42.411278225214907
    73   1   0.0      3.1793950412290606      12.819373913128578        1.23578671015436
    74   1   0.0      1.5961923152619897      11.905311391815268      3.8092549298456402
    75   1   0.0      0.0129895887709384      14.647498953026968      3.8092549298456402
    76   1   0.0      1.5961923147380099      15.561561474340278        1.23578671015436
    77   1   0.0      3.1793950412290606      12.819373913128578      6.3827231495369299
    78   1   0.0      1.5961923152619897      11.905311391815268      8.9561913692282111
    79   1   0.0      0.0129895887709384      14.647498953026968      8.9561913692282111
    80   1   0.0      1.5961923147380099      15.561561474340278      6.3827231495369299
    81   1   0.0      3.1793950412290606      12.819373913128578      11.529659588919497
    82   1   0.0      1.5961923152619897      11.905311391815268      14.103127808610777
    83   1   0.0      0.0129895887709384      14.647498953026968      14.103127808610777
    84   1   0.0      1.5961923147380099      15.561561474340278      11.529659588919497
    85   1   0.0      3.1793950412290606      12.819373913128578      16.676596028302068
    86   1   0.0      1.5961923152619897      11.905311391815268       19.25006424799335
    87   1   0.0      0.0129895887709384      14.647498953026968       19.25006424799335
    88   1   0.0      1.5961923147380099      15.561561474340278      16.676596028302068
    89   1   0.0      3.1793950412290606      12.819373913128578      21.823532467684636
    90   1   0.0      1.5961923152619897      11.905311391815268      24.397000687375915
    91   1   0.0      0.0129895887709384      14.647498953026968      24.397000687375915
    92   1   0.0      1.5961923147380099      15.561561474340278      21.823532467684636
    93   1   0.0      3.1793950412290606      12.819373913128578      26.970468907067211
    94   1   0.0      1.5961923152619897      11.905311391815268      29.543937126758486
    95   1   0.0      0.0129895887709384      14.647498953026968      29.543937126758486
    96   1   0.0      1.5961923147380099      15.561561474340278      26.970468907067211
    97   1   0.0      3.1793950412290606      12.819373913128578      32.117405346449772
    98   1   0.0      1.5961923152619897      11.905311391815268      34.690873566141057
    99   1   0.0      0.0129895887709384      14.647498953026968      34.690873566141057
   100   1   0.0      1.5961923147380099      15.561561474340278      32.117405346449772
   101   1   0.0      3.1793950412290606      12.819373913128578      37.264341785832336
   102   1   0.0      1.5961923152619897      11.905311391815268      39.837810005523622
   103   1   0.0      0.0129895887709384      14.647498953026968      39.837810005523622
   104   1   0.0      1.5961923147380099      15.561561474340278      37.264341785832336
   105   1   0.0      3.1793950412290606      12.819373913128578      42.411278225214907
   106   1   0.0      1.5961923152619897      11.905311391815268      44.984746444906193
   107   1   0.0      0.0129895887709384      14.647498953026968      44.984746444906193
   108   1   0.0      1.5961923147380099      15.561561474340278      42.411278225214907
   109   1   0.0      3.1793950412290606      18.303749035551974        1.23578671015436
   110   1   0.0      1.5961923152619897      17.389686514238655      3.8092549298456402
   111   1   0.0      0.0129895887709384      20.131874075450359      3.8092549298456402
   112   1   0.0      1.5961923147380099      21.045936596763674        1.23578671015436
   113   1   0.0      3.1793950412290606      18.303749035551974      6.3827231495369299
   114   1   0.0      1.5961923152619897      17.389686514238655      8.9561913692282111
   115   1   0.0      0.0129895887709384      20.131874075450359      8.9561913692282111
   116   1   0.0      1.5961923147380099      21.045936596763674      6.3827231495369299
   117   1   0.0      3.1793950412290606      18.303749035551974      11.529659588919497
   118   1   0.0      1.5961923152619897      17.389686514238655      14.103127808610777
   119   1   0.0      0.0129895887709384      20.131874075450359      14.103127808610777
   120   1   0.0      1.5961923147380099      21.045936596763674      11.529659588919497
   121   1   0.0      3.1793950412290606      18.303749035551974      16.676596028302068
   122   1   0.0      1.5961923152619897      17.389686514238655       19.25006424799335
   123   1   0.0      0.0129895887709384      20.131874075450359       19.25006424799335
   124   1   0.0      1.5961923147380099      21.045936596763674      16.676596028302068
   125   1   0.0      3.1793950412290606      18.303749035551974      21.823532467684636
   126   1   0.0      1.5961923152619897      17.389686514238655      24.397000687375915
   127   1   0.0      0.0129895887709384      20.131874075450359      24.397000687375915
   128   1   0.0      1.5961923147380099      21.045936596763674      21.823532467684636
   129   1   0.0      3.1793950412290606      18.303749035551974      26.970468907067211
   130   1   0.0      1.5961923152619897      17.389686514238655      29.543937126758486
   131   1   0.0      0.0129895887709384      20.131874075450359      29.543937126758486
   132   1   0.0      1.5961923147380099      21.045936596763674      26.970468907067211
   133   1   0.0      3.1793950412290606      18.303749035551974      32.117405346449772
   134   1   0.0      1.5961923152619897      17.389686514238655      34.690873566141057
   135   1   0.0      0.0129895887709384      20.131874075450359      34.690873566141057
   136   1   0.0      1.5961923147380099      21.045936596763674      32.117405346449772
   137   1   0.0      3.1793950412290606      18.303749035551974      37.264341785832336
   138   1   0.0      1.5961923152619897      17.389686514238655      39.837810005523622
   139   1   0.0      0.0129895887709384      20.131874075450359      39.837810005523622
   140   1   0.0      1.5961923147380099      21.045936596763674      37.264341785832336
   141   1   0.0      3.1793950412290606      18.303749035551974      42.411278225214907
   142   1   0.0      1.5961923152619897      17.389686514238655      44.984746444906193
   143   1   0.0      0.0129895887709384      20.131874075450359      44.984746444906193
   144   1   0.0      1.5961923147380099      21.045936596763674      42.411278225214907
   145   1   0.0      3.1793950412290606      23.788124157975368        1.23578671015436
   146   1   0.0      1.5961923152619897      22.874061636662052      3.8092549298456402
   147   1   0.0      0.0129895887709384       25.61624919787376      3.8092549298456402
   148   1   0.0      1.5961923147380099      26.530311719187068        1.23578671015436
   149   1   0.0      3.1793950412290606      23.788124157975368      6.3827231495369299
   150   1   0.0      1.5961923152619897      22.874061636662052      8.9561913692282111
   151   1   0.0      0.0129895887709384       25.61624919787376      8.9561913692282111
   152   1   0.0      1.5961923147380099      26.530311719187068      6.3827231495369299
   153   1   0.0      3.1793950412290606      23.788124157975368      11.529659588919497
   154   1   0.0      1.5961923152619897      22.874061636662052      14.103127808610777
   155   1   0.0      0.0129895887709384       25.61624919787376      14.103127808610777
   156   1   0.0      1.5961923147380099      26.530311719187068      11.529659588919497
   157   1   0.0      3.1793950412290606      23.788124157975368      16.676596028302068
   158   1   0.0      1.5961923152619897      22.874061636662052       19.25006424799335
   159   1   0.0      0.0129895887709384       25.61624919787376       19.25006424799335
   160   1   0.0      1.5961923147380099      26.530311719187068      16.676596028302068
   161   1   0.0      3.1793950412290606      23.788124157975368      21.823532467684636
   162   1   0.0      1.5961923152619897      22.874061636662052      24.397000687375915
   163   1   0.0      0.0129895887709384       25.61624919787376      24.397000687375915
   164   1   0.0      1.5961923147380099      26.530311719187068      21.823532467684636
   165   1   0.0      3.1793950412290606      23.788124157975368      26.970468907067211
   166   1   0.0      1.5961923152619897      22.874061636662052      29.543937126758486
   167   1   0.0      0.0129895887709384       25.61624919787376      29.543937126758486
   168   1   0.0      1.5961923147380099      26.530311719187068      26.970468907067211
   169   1   0.0      3.1793950412290606      23.788124157975368      32.117405346449772
   170   1   0.0      1.5961923152619897      22.874061636662052      34.690873566141057
   171   1   0.0      0.0129895887709384       25.61624919787376      34.690873566141057
   172   1   0.0      1.5961923147380099      26.530311719187068      32.117405346449772
   173   1   0.0      3.1793950412290606      23.788124157975368      37.264341785832336
   174   1   0.0      1.5961923152619897      22.874061636662052      39.837810005523622
   175   1   0.0      0.0129895887709384       25.61624919787376      39.837810005523622
   176   1   0.0      1.5961923147380099      26.530311719187068      37.264341785832336
   177   1   0.0      3.1793950412290606      23.788124157975368      42.411278225214907
   178   1   0.0      1.5961923152619897      22.874061636662052      44.984746444906193
   179   1   0.0      0.0129895887709384       25.61624919787376      44.984746444906193
   180   1   0.0      1.5961923147380099      26.530311719187068      42.411278225214907
   181   1   0.0      3.1793950412290606      29.272499280398762        1.23578671015436
   182   1   0.0      1.5961923152619897       28.35843675908545      3.8092549298456402
   183   1   0.0      0.0129895887709384       31.10062432029715      3.8092549298456402
   184   1   0.0      1.5961923147380099      32.014686841610462        1.23578671015436
   185   1   0.0      3.1793950412290606      29.272499280398762      6.3827231495369299
   186   1   0.0      1.5961923152619897       28.35843675908545      8.9561913692282111
   187   1   0.0      0.0129895887709384       31.10062432029715      8.9561913692282111
   188   1   0.0      1.5961923147380099      32.014686841610462      6.3827231495369299
   189   1   0.0      3.1793950412290606      29.272499280398762      11.529659588919497
   190   1   0.0      1.5961923152619897       28.35843675908545      14.103127808610777
   191   1   0.0      0.0129895887709384       31.10062432029715      14.103127808610777
   192   1   0.0      1.5961923147380099      32.014686841610462      11.529659588919497
   193   1   0.0      3.1793950412290606      29.272499280398762      16.676596028302068
   194   1   0.0      1.5961923152619897       28.35843675908545       19.25006424799335
   195   1   0.0      0.0129895887709384       31.10062432029715       19.25006424799335
   196   1   0.0      1.5961923147380099      32.014686841610462      16.676596028302068
   197   1   0.0      3.1793950412290606      29.272499280398762      21.823532467684636
   198   1   0.0      1.5961923152619897       28.35843675908545      24.397000687375915
   199   1   0.0      0.0129895887709384       31.10062432029715      24.397000687375915
   200   1   0.0      1.5961923147380099      32.014686841610462      21.823532467684636
   201   1   0.0      3.1793950412290606      29.272499280398762      26.970468907067211
   202   1   0.0      1.5961923152619897       28.35843675908545      29.543937126758486
   203   1   0.0      0.0129895887709384       31.10062432029715      29.543937126758486
   204   1   0.0      1.5961923147380099      32.014686841610462      26.970468907067211
   205   1   0.0      3.1793950412290606      29.272499280398762      32.117405346449772
   206   1   0.0      1.5961923152619897       28.35843675908545      34.690873566141057
   207   1   0.0      0.0129895887709384       31.10062432029715      34.690873566141057
   208   1   0.0      1.5961923147380099      32.014686841610462      32.117405346449772
   209   1   0.0      3.1793950412290606      29.272499280398762      37.264341785832336
   210   1   0.0      1.5961923152619897       28.35843675908545      39.837810005523622
   211   1   0.0      0.0129895887709384       31.10062432029715      39.837810005523622
   212   1   0.0      1.5961923147380099      32.014686841610462      37.264341785832336
   213   1   0.0      3.1793950412290606      29.272499280398762      42.411278225214907
   214   1   0.0      1.5961923152619897       28.35843675908545      44.984746444906193
   215   1   0.0      0.0129895887709384       31.10062432029715      44.984746444906193
   216   1   0.0      1.5961923147380099      32.014686841610462      42.411278225214907
   217   1   0.0      3.1793950412290606      34.756874402822156        1.23578671015436
   218   1   0.0      1.5961923152619897      33.842811881508837      3.8092549298456402
   219   1   0.0      0.0129895887709384      36.584999442720544      3.8092549298456402
   220   1   0.0      1.5961923147380099      37.499061964033849        1.23578671015436
   221   1   0.0      3.1793950412290606      34.756874402822156      6.3827231495369299
   222   1   0.0      1.5961923152619897      33.842811881508837      8.9561913692282111
   223   1   0.0      0.0129895887709384      36.584999442720544      8.9561913692282111
   224   1   0.0      1.5961923147380099      37.499061964033849      6.3827231495369299
   225   1   0.0      3.1793950412290606      34.756874402822156      11.529659588919497
   226   1   0.0      1.5961923152619897      33.842811881508837      14.103127808610777
   227   1   0.0      0.0129895887709384      36.584999442720544      14.103127808610777
   228   1   0.0      1.5961923147380099      37.499061964033849      11.529659588919497
   229   1   0.0      3.1793950412290606      34.756874402822156      16.676596028302068
   230   1   0.0      1.5961923152619897      33.842811881508837       19.25006424799335
   231   1   0.0      0.0129895887709384      36.584999442720544       19.25006424799335
   232   1   0.0      1.5961923147380099      37.499061964033849      16.676596028302068
   233   1   0.0      3.1793950412290606      34.756874402822156      21.823532467684636
   234   1   0.0      1.5961923152619897      33.842811881508837      24.397000687375915
   235   1   0.0      0.0129895887709384      36.584999442720544      24.397000687375915
   236   1   0.0      1.5961923147380099      37.499061964033849      21.823532467684636
   237   1   0.0      3.1793950412290606      34.756874402822156      26.970468907067211
   238   1   0.0      1.5961923152619897      33.842811881508837      29.543937126758486
   239   1   0.0      0.0129895887709384      36.584999442720544      29.543937126758486
   240   1   0.0      1.5961923147380099      37.499061964033849      26.970468907067211
   241   1   0.0      3.1793950412290606      34.756874402822156      32.117405346449772
   242   1   0.0      1.5961923152619897      33.842811881508837      34.690873566141057
   243   1   0.0      0.0129895887709384      36.584999442720544      34.690873566141057
   244   1   0.0      1.5961923147380099      37.499061964033849      32.117405346449772
   245   1   0.0      3.1793950412290606      34.756874402822156      37.264341785832336
   246   1   0.0      1.5961923152619897      33.842811881508837      39.837810005523622
   247   1   0.0      0.0129895887709384      36.584999442720544      39.837810005523622
   248   1   0.0      1.5961923147380099      37.499061964033849      37.264341785832336
   249   1   0.0      3.1793950412290606      34.756874402822156      42.411278225214907
   250   1   0.0      1.5961923152619897      33.842811881508837      44.984746444906193
   251   1   0.0      0.0129895887709384      36.584999442720544      44.984746444906193
   252   1   0.0      1.5961923147380099      37.499061964033849      42.411278225214907
   253   1   0.0      3.1793950412290606       40.24124952524555        1.23578671015436
   254   1   0.0      1.5961923152619897      39.327187003932238      3.8092549298456402
   255   1   0.0      0.0129895887709384      42.069374565143939      3.8092549298456402
   256   1   0.0      1.5961923147380099      42.983437086457251        1.23578671015436
   257   1   0.0      3.1793950412290606       40.24124952524555      6.3827231495369299
   258   1   0.0      1.5961923152619897      39.327187003932238      8.9561913692282111
   259   1   0.0      0.0129895887709384      42.069374565143939      8.9561913692282111
   260   1   0.0      1.5961923147380099      42.983437086457251      6.3827231495369299
   261   1   0.0      3.1793950412290606       40.24124952524555      11.529659588919497
   262   1   0.0      1.5961923152619897      39.327187003932238      14.103127808610777
   263   1   0.0      0.0129895887709384      42.069374565143939      14.103127808610777
   264   1   0.0      1.5961923147380099      42.983437086457251      11.529659588919497
   265   1   0.0      3.1793950412290606       40.24124952524555      16.676596028302068
   266   1   0.0      1.5961923152619897      39.327187003932238       19.25006424799335
   267   1   0.0      0.0129895887709384      42.069374565143939       19.25006424799335
   268   1   0.0      1.5961923147380099      42.983437086457251      16.676596028302068
   269   1   0.0      3.1793950412290606       40.24124952524555      21.823532467684636
   270   1   0.0      1.5961923152619897      39.327187003932238      24.397000687375915
   271   1   0.0      0.0129895887709384      42.069374565143939      24.397000687375915
   272   1   0.0      1.5961923147380099      42.983437086457251      21.823532467684636
   273   1   0.0      3.1793950412290606       40.24124952524555      26.970468907067211
   274   1   0.0      1.5961923152619897      39.327187003932238      29.543937126758486
   275   1   0.0      0.0129895887709384      42.069374565143939      29.543937126758486
   276   1   0.0      1.5961923147380099      42.983437086457251      26.970468907067211
   277   1   0.0      3.1793950412290606       40.24124952524555      32.117405346449772
   278   1   0.0      1.5961923152619897      39.327187003932238      34.690873566141057
   279   1   0.0      0.0129895887709384      42.069374565143939      34.690873566141057
   280   1   0.0      1.5961923147380099      42.983437086457251      32.117405346449772
   281   1   0.0      3.1793950412290606       40.24124952524555      37.264341785832336
   282   1   0.0      1.5961923152619897      39.327187003932238      39.837810005523622
   283   1   0.0      0.0129895887709384      42.069374565143939      39.837810005523622
   284   1   0.0      1.5961923147380099      42.983437086457251      37.264341785832336
   285   1   0.0      3.1793950412290606       40.24124952524555      42.411278225214907
   286   1   0.0      1.5961923152619897      39.327187003932238      44.984746444906193
   287   1   0.0      0.0129895887709384      42.069374565143939      44.984746444906193
   288   1   0.0      1.5961923147380099      42.983437086457251      42.411278225214907
   289   1   0.0      3.1793950412290606      45.725624647668951        1.23578671015436
   290   1   0.0      1.5961923152619897      44.811562126355632      3.8092549298456402
   291   1   0.0      0.0129895887709384       47.55374968756734      3.8092549298456402
   292   1   0.0      1.5961923147380099      48.467812208880652        1.23578671015436
   293   1   0.0      3.1793950412290606      45.725624647668951      6.3827231495369299
   294   1   0.0      1.5961923152619897      44.811562126355632      8.9561913692282111
   295   1   0.0      0.0129895887709384       47.55374968756734      8.9561913692282111
   296   1   0.0      1.5961923147380099      48.467812208880652      6.3827231495369299
   297   1   0.0      3.1793950412290606      45.725624647668951      11.529659588919497
   298   1   0.0      1.5961923152619897      44.811562126355632      14.103127808610777
   299   1   0.0      0.0129895887709384       47.55374968756734      14.103127808610777
   300   1   0.0      1.5961923147380099      48.467812208880652      11.529659588919497
   301   1   0.0      3.1793950412290606      45.725624647668951      16.676596028302068
   302   1   0.0      1.5961923152619897      44.811562126355632       19.25006424799335
   303   1   0.0      0.0129895887709384       47.55374968756734       19.25006424799335
   304   1   0.0      1.5961923147380099      48.467812208880652      16.676596028302068
   305   1   0.0      3.1793950412290606      45.725624647668951      21.823532467684636
   306   1   0.0      1.5961923152619897      44.811562126355632      24.397000687375915
   307   1   0.0      0.0129895887709384       47.55374968756734      24.397000687375915
   308   1   0.0      1.5961923147380099      48.467812208880652      21.823532467684636
   309   1   0.0      3.1793950412290606      45.725624647668951      26.970468907067211
   310   1   0.0      1.5961923152619897      44.811562126355632      29.543937126758486
   311   1   0.0      0.0129895887709384       47.55374968756734      29.543937126758486
   312   1   0.0      1.5961923147380099      48.467812208880652      26.970468907067211
   313   1   0.0      3.1793950412290606      45.725624647668951      32.117405346449772
   314   1   0.0      1.5961923152619897      44.811562126355632      34.690873566141057
   315   1   0.0      0.0129895887709384       47.55374968756734      34.690873566141057
   316   1   0.0      1.5961923147380099      48.467812208880652      32.117405346449772
   317   1   0.0      3.1793950412290606      45.725624647668951      37.264341785832336
   318   1   0.0      1.5961923152619897      44.811562126355632      39.837810005523622
   319   1   0.0      0.0129895887709384       47.55374968756734      39.837810005523622
   320   1   0.0      1.5961923147380099      48.467812208880652      37.264341785832336
   321   1   0.0      3.1793950412290606      45.725624647668951      42.411278225214907
   322   1   0.0      1.5961923152619897      44.811562126355632      44.984746444906193
   323   1   0.0      0.0129895887709384       47.55374968756734      44.984746444906193
   324   1   0.0      1.5961923147380099      48.467812208880652      42.411278225214907
   325   1   0.0      6.3458004942111517      1.8506236682817898        1.23578671015436
   326   1   0.0       4.762597768244083     0.93656114696847703      3.8092549298456402
   327   1   0.0      3.1793950417530308        3.67874870818018      3.8092549298456402
   328   1   0.0       4.762597767720103      4.5928112294934902        1.23578671015436
   329   1   0.0      6.3458004942111517      1.8506236682817898      6.3827231495369299
   330   1   0.0       4.762597768244083     0.93656114696847703      8.9561913692282111
   331   1   0.0      3.1793950417530308        3.67874870818018      8.9561913692282111
   332   1   0.0       4.762597767720103      4.5928112294934902      6.3827231495369299
   333   1   0.0      6.3458004942111517      1.8506236682817898      11.529659588919497
   334   1   0.0       4.762597768244083     0.93656114696847703      14.103127808610777