ITEM: TIMESTEP
28
ITEM: NUMBER OF ATOMS
4861
ITEM: BOX BOUNDS pp pp pp
0.0000000000000000e+00 4.7496081794731396e+01
0.0000000000000000e+00 4.9359376101810554e+01
0.0000000000000000e+00 4.6322427954443121e+01
ITEM: ATOMS id type q x y z
1 1 -7.09505370516783e-05     3.17939510027228      1.8506236695161     1.23578670979935
2 1 -6.99804392014289e-05     1.59619232119618    0.936561144430587     3.80925497521913
3 1 -6.83721176196377e-05   0.0129895786868353      3.6787487100112     3.80925495026983
4 1 -6.92758079768178e-05     1.59619231663015     4.59281126703735     1.23578669900414
5 1 -6.13586224327343e-05     3.17939494645736     1.85062362222031     6.38272311453407
6 1 -6.27898986385563e-05     1.59619219034434     0.93656113237259     8.95619134365069
7 1 -6.01488276712636e-05   0.0129895598024694     3.67874854899604     8.95619132771734
8 1  -6.155679266761e-05     1.59619224761101     4.59281113217985     6.38272310128673
9 1 -5.90816867685846e-05     3.17939486202806     1.85062367701309     11.5296595247585
10 1  -5.289872317054e-05     1.59619216070763    0.936561143142926     14.1031277295679
11 1 -5.8067735794756e-05   0.0129896065799074      3.6787485450486      14.103127751635
12 1 -6.6199259130614e-05     1.59619234133172     4.59281114210778     11.5296595620404
13 1 -6.92327652554244e-05      3.1793949805026     1.85062380308425     16.6765960162001
14 1 -5.25516797253043e-05     1.59619224583819    0.936561162129353     19.2500642078521
15 1 -6.41817215360024e-05   0.0129896636189304     3.67874867674422     19.2500642310563
16 1 -7.71227306436624e-05     1.59619251374021     4.59281132445664       16.67659605688
17 1 -7.71316263346944e-05     3.17939509640143     1.85062386475749     21.8235324692449
18 1 -5.34992175194958e-05     1.59619227256818    0.936561166056536     24.3970006994182
19 1  -6.629159200354e-05   0.0129896756144554     3.67874871684504     24.3970006910846
20 1 -8.13391652827941e-05     1.59619258138348     4.59281143884967     21.8235324790765
21 1 -7.44191294530726e-05     3.17939504908856     1.85062384603996     26.9704689001912
22 1 -5.12237816485655e-05     1.59619218848441    0.936561151459247      29.543937193421
23 1 -6.05624040265134e-05   0.0129896328814604      3.6787486015741     29.5439371641282
24 1 -8.07301631942083e-05     1.59619256323144     4.59281140271579     26.9704688752781
25 1 -6.26891926484953e-05     3.17939489363985     1.85062373904433     32.1174053899156
26 1 -5.63120810594492e-05     1.59619214666449    0.936561133877956     34.6908736356459
27 1 -5.71577703438396e-05   0.0129895674022754     3.67874851170105     34.6908736306137
28 1 -7.26355827509852e-05     1.59619243051057     4.59281122547626     32.1174053389857
29 1 -5.71494191972054e-05     3.17939487195561     1.85062362473041     37.2643418550015
30 1 -6.79071850499591e-05     1.59619226103585    0.936561137813366     39.8378099806019
31 1 -6.45825396044725e-05   0.0129895623705408     3.67874862744382     39.8378100086803
32 1 -6.11536350800033e-05      1.5961922582419     4.59281109430315      37.264341841452
33 1 -6.70291492939368e-05     3.17939504309017     1.85062364391755     42.4112782295111
34 1 -7.06772300848807e-05     1.59619236671831    0.936561151199937      44.984746421003
35 1 -7.08784213659569e-05   0.0129895959813882     3.67874876902277     44.9847464311961
36 1 -6.51412022517083e-05     1.59619227874359     4.59281120497823     42.4112782551551
37 1 -5.98871170059802e-05     3.17939492790797     7.33499873886505     1.23578666497868
38 1 -6.24514182661529e-05     1.59619225080727     6.42093622815146     3.80925484851738
39 1 -5.76547906580824e-05   0.0129895729350485     9.16312375601725     3.80925476466511
40 1 -5.95215175317493e-05     1.59619217485684     10.0771862915433     1.23578664328818
41 1 -7.40843999868344e-05      3.1793950941518     7.33499881724624     6.38272315944581
42 1 -6.51679378649041e-05     1.59619241942547     6.42093619602657     8.95619134500418
43 1 -6.88072039495065e-05   0.0129897114334579     9.16312383490315     8.95619135643268
44 1 -7.11467708476814e-05     1.59619249397879     10.0771863754196     6.38272312362849
45 1 -8.42038251257396e-05     3.17939543063767     7.33499899704599     11.5296597721286
46 1 -8.38325194413467e-05     1.59619270049592     6.42093639027558      14.103127889901
47 1 -0.000103303177435726   0.0129897539820756     9.16312417282734     14.1031279957008
48 1 -8.32860239410977e-05     1.59619272425648     10.0771865678204     11.5296597916361
49 1 -5.72661794203162e-05     3.17939535294689     7.33499888300931     16.6765960867812
50 1 -8.71719919216039e-05     1.59619271796251      6.4209365165233     19.2500643082198
51 1 -0.000102751446056319   0.0129896095818246     9.16312428210054     19.2500643627186
52 1 -6.01820890304121e-05     1.59619228667338       10.07718646597     16.6765961022572
53 1 -3.45768318512377e-05     3.17939512670284     7.33499869351836      21.823532467359
54 1 -8.6386233693411e-05     1.59619269680508     6.42093653663597     24.3970006673342
55 1 -9.87818476177158e-05   0.0129895673286452     9.16312427795961     24.3970006490964
56 1 -4.01647807077563e-05     1.59619187898249     10.0771862868269     21.8235324680718
57 1 -4.22383014696686e-05      3.1793952262616     7.33499877536948     26.9704689099792
58 1 -8.9009157422484e-05     1.59619275703678     6.42093648370488     29.5439370370331
59 1 -0.000107987643147491   0.0129897182518281     9.16312427315678     29.5439369462065
60 1 -4.55305664588109e-05     1.59619203494236     10.0771863560966     26.9704689052732
61 1 -7.60724792082589e-05     3.17939547716602     7.33499900698947     32.1174051931599
62 1 -7.62394162001368e-05     1.59619258084864     6.42093628260881     34.6908735244355
63 1 -8.94815933774516e-05   0.0129897812291312     9.16312400910125     34.6908734464515
64 1 -7.54135377377554e-05     1.59619260069203     10.0771865762266     32.1174051741883
65 1 -8.54667504579674e-05     3.17939528412991     7.33499892885935     37.2643416470971
66 1 -5.92533031080021e-05     1.59619227996085     6.42093616998206     39.8378100884035
67 1 -5.53205069578072e-05   0.0129896173346591     9.16312373328579     39.8378101506329
68 1 -8.32352338680561e-05     1.59619269732657     10.0771864988452     37.2643416466292
69 1 -6.33333220264946e-05     3.17939495509042     7.33499874104548     42.4112783082104
70 1 -6.68427584938836e-05     1.59619225226541     6.42093628436567     44.9847464775265
71 1 -6.44444996158072e-05    0.012989538236802     9.16312380645126     44.9847465144635
72 1 -6.20159545885224e-05     1.59619226922014     10.0771862985429     42.4112783541718
73 1 -6.27958409727091e-05     3.17939489751682     12.8193738570086     1.23578678770847
74 1 -6.67874575656305e-05     1.59619238967441     11.9053113747709     3.80925486371952
75 1 -6.71058212263508e-05   0.0129896637902376     14.6474989340254     3.80925484412781
76 1 -5.54866059730147e-05     1.59619224620966     15.5615613923378     1.23578674256621
77 1 -8.10070753327912e-05     3.17939547544142     12.8193740961106     6.38272337148866
78 1 -8.44256568690821e-05      1.5961927320044     11.9053115940328     8.95619154428223
79 1 -0.000107353333276079   0.0129897097594185     14.6474992605561     8.95619170757024
80 1 -8.73184054668893e-05     1.59619274042536     15.5615616245127     6.38272337463576
81 1 -1.48850895155043e-05     3.17939479229996     12.8193736816076     11.5296593326394
82 1 -5.26602526155649e-05     1.59619200008721     11.9053114438383     14.1031278691531
83 1 -5.17785079183796e-05   0.0129891738683645      14.647499055715     14.1031279607861
84 1 -3.84132942001717e-05     1.59619174899737     15.5615614410158     11.5296595304809
85 1 -2.56672505089923e-05     3.17939385203452        12.8193732666     16.6765956077739
86 1 -2.42683044898774e-05      1.5961911371668     11.9053110972303     19.2500641792357
87 1 1.53544157769831e-05   0.0129888033452503     14.6474985151238      19.250064143602
88 1 -2.75247036361486e-05     1.59619074115111     15.5615611060519      16.676595700452
89 1 -8.24834531271483e-05     3.17939381220904     12.8193733469675     21.8235323780862
90 1 -1.94210194145683e-05     1.59619095853573     11.9053110054671     24.3970007211645
91 1 2.74546335964303e-05   0.0129887393548339     14.6474983754092      24.397000740598
92 1 -6.30598189422898e-05     1.59619083910466     15.5615610827389     21.8235323802285
93 1 -5.74676153752741e-05      3.1793937382138      12.819373258173     26.9704691592516
94 1 -2.9658876914729e-05      1.5961914837448     11.9053112387217     29.5439371795226
95 1 -8.69345858235536e-06   0.0129889012496586      14.647498760696      29.543937170785
96 1 -4.66612715581058e-05     1.59619069675402     15.5615610526108     26.9704691272386
97 1 5.42959794617364e-06      3.1793941447634     12.8193733485563     32.1174058429082
98 1 -7.42839836903342e-05     1.59619253673585     11.9053116027418     34.6908733838654
99 1 -9.26938043930599e-05   0.0129895266785595     14.6474992696304     34.6908732139364
100 1 -1.20497229761016e-05     1.59619101624409       15.56156119952     32.1174056681359
101 1 -5.22898236261327e-05     3.17939537037711     12.8193740076851     37.2643417065707
102 1 -8.19133955940099e-05     1.59619265716851      11.905311501519     39.8378099423524
103 1 -9.50615257937966e-05   0.0129897822722831     14.6474991095212     39.8378098796261
104 1 -6.9563593755782e-05     1.59619250127573     15.5615616224358     37.2643415891502
105 1 -8.18367350791033e-05     3.17939521191098      12.819374004419     42.4112780226304
106 1 -5.56226839311848e-05      1.5961921636657     11.9053112975959     44.9847465030573
107 1 -4.62032792511336e-05   0.0129895398746668     14.6474988261198     44.9847465253059
108 1 -7.80013762477416e-05     1.59619255339558     15.5615615135934     42.4112780962144
109 1 -8.21891383139488e-05     3.17939520524506     18.3037490726531     1.23578693264421
110 1  -7.842033187648e-05     1.59619261391293     17.3896865737707     3.80925512871305
111 1 -8.60985902546007e-05   0.0129897208964062     20.1318741371508     3.80925515977381
112 1 -6.55142711786182e-05     1.59619247864864     21.0459365708793     1.23578687266965
113 1 -3.49149795931502e-05     3.17939510960733     18.3037490207708     6.38272309286313
114 1 -5.70463804412631e-05     1.59619207292493      17.389686541541      8.9561914360499
115 1 -8.16314178779264e-05   0.0129893882851309     20.1318741810809     8.95619171184778
116 1 -7.12842532125176e-05     1.59619241772483     21.0459366697929     6.38272336659349
117 1 -4.48903679056342e-05     3.17939373435061     18.3037486476436      11.529658872733
118 1 -2.57376841670091e-05     1.59619070088116     17.3896861683027     14.1031274796589
119 1 3.37635516320302e-05   0.0129887943196733     20.1318736678515     14.1031274065841
120 1 -2.39731992897542e-05     1.59619079365603     21.0459364640202     11.5296591163612
121 1 -0.00022516863129245     3.17939500686292      18.303749172266     16.6765962957896
122 1 -9.0953138126119e-05      1.5961912446059     17.3896862823751     19.2500640969262
123 1 2.21800771963761e-05   0.0129891697507813     20.1318734369661     19.2500638659152
124 1 -0.000116898509295894     1.59619157193249     21.0459364482046     16.6765958315257
125 1 -0.000267133410808966     3.17939643852627     18.3037496456347     21.8235326566501
126 1 -0.000115339052719422     1.59619159808466     17.3896863818419     24.3970007097665
127 1 1.82685213997106e-06   0.0129893465538345     20.1318734472685     24.3970008154102
128 1 -0.000183726657493698     1.59619314699855     21.0459365639344     21.8235324908897
129 1 -0.000275807684175177     3.17939602678233     18.3037495190926     26.9704684354765
130 1 -5.54039880812835e-05     1.59619071230951     17.3896861403509     29.5439374145178
131 1 4.44602823520772e-05   0.0129887882671588     20.1318734719752     29.5439376557289
132 1 -0.000173147854879514      1.5961925550081     21.0459365273107     26.9704688629151
133 1 -0.000147836851936669     3.17939400736557     18.3037487965648     32.1174056240945
134 1 -1.71632874394164e-05     1.59619117483196     17.3896862903172     34.6908737918843
135 1 -1.36958462356737e-05   0.0129889484803726     20.1318739415761     34.6908735982803
136 1 -6.12530452715168e-05     1.59619069468036     21.0459363922276     32.1174058265451
137 1 4.61206299039055e-06      3.1793942394879     18.3037487467781     37.2643424646785
138 1 -8.52429706100152e-05     1.59619268835238     17.3896866548767     39.8378097462517
139 1 -0.000112409772940376   0.0129897446712389     20.1318742436489     39.8378095686956
140 1 -2.83042492151512e-05     1.59619156209058     21.0459365761615     37.2643419851597
141 1 -7.4864054411142e-05     3.17939541940988     18.3037491359602     42.4112778338979
142 1 -5.96299865156006e-05     1.59619234908256     17.3896864683579     44.9847463825382
143 1 -4.78201917522547e-05   0.0129896275349741      20.131874022535     44.9847464040699
144 1 -8.28915626020362e-05     1.59619270087329      21.045936650464     42.4112778563994
145 1 -9.12800151144637e-05     3.17939542647124     23.7881241785492      1.2357869336844
146 1 -7.89637570163374e-05     1.59619263912652     22.8740616635252     3.80925528923223
147 1 -9.21451208503094e-05   0.0129897230236753     25.6162492094715     3.80925530909146
148 1 -6.93335489112786e-05     1.59619255444102     26.5303117064071     1.23578689748801
149 1 -9.85163959505203e-06     3.17939460309876     23.7881241423614     6.38272279073546
150 1 -3.26911724298952e-05     1.59619138143975     22.8740615696446     8.95619114791393
151 1 -5.99344777336096e-05   0.0129892505844814     25.6162491385737     8.95619160263838
152 1 -6.45834326241056e-05     1.59619224830906     26.5303117311409     6.38272332650783
153 1 -0.000127414273739052     3.17939398410413     23.7881240046568     11.5296591912226
154 1 -7.45350794658867e-05     1.59619100009354     22.8740615732898     14.1031274264367
155 1 4.63689319568191e-05   0.0129888387735801     25.6162490788738     14.1031271299574
156 1 -2.92607708092532e-05      1.5961906843914     26.5303117899036     11.5296590819399
157 1 -0.000253598334505076      3.1793967674526     23.7881241077213     16.6765969579164
158 1 -0.000178413427152893     1.59619327028856     22.8740618865001     19.2500643155806
159 1 -2.1364636254813e-05   0.0129896048603883     25.6162491522351     19.2500638100577
160 1 -0.000142759156766212      1.5961922371525     26.5303115983501     16.6765959507461
161 1  -0.0001402402576371     3.17939786267301     23.7881242044996      21.823532771729
162 1 -0.000199506018685403     1.59619399271134     22.8740620019612     24.3970006243786
163 1 -5.68019468055406e-05   0.0129898923125683     25.6162491953392     24.3970008206258
164 1 -0.00019644668762979     1.59619416598457     26.5303114047983      21.823532534357
165 1 -0.000200710877467657     3.17939773707823     23.7881241718206     26.9704681279263
166 1 -0.000151891796757852     1.59619210250782     22.8740617528469     29.5439371990021
167 1 2.35490517487011e-05   0.0129890587036175     25.6162491032697     29.5439378167809
168 1 -0.000195084301056714     1.59619351741562     26.5303114606226     26.9704687752195
169 1 -0.000256573035241418      3.1793954503629     23.7881240480156     32.1174048035505
170 1 -2.32365656528129e-05     1.59619059971681     22.8740614981168     34.6908741051359
171 1 1.54181773792591e-05   0.0129887840762074     25.6162490911048     34.6908738765698
172 1 -8.96000507648989e-05     1.59619100330549     26.5303117178502     32.1174057257762
173 1 -1.78148967623199e-05      3.1793937005022     23.7881240376073     37.2643426842728
174 1 -6.28290829355792e-05     1.59619232636846     22.8740616399874      39.837809810454
175 1 -0.000108299411185113   0.0129896760258284     25.6162491817775      39.837809487267
176 1 -2.16249913523486e-05     1.59619127246513     26.5303117824232     37.2643420893447
177 1 -5.49099514143582e-05     3.17939532579182     23.7881241935611     42.4112779477668
178 1 -7.0599546589147e-05     1.59619255920083     22.8740616473484     44.9847462681954
179 1 -5.32273403761858e-05   0.0129896711183615     25.6162492207454     44.9847463333469
180 1 -8.14519337409461e-05     1.59619269531913     26.5303117059368     42.4112778276855
181 1 -8.94124727577081e-05     3.17939537240923     29.2724992324958     1.23578693293417
182 1 -7.96105854123595e-05     1.59619265034778     28.3584367246799     3.80925529619735
183 1 -8.50763284675321e-05   0.0129897166802485     31.1006242910292     3.80925514527492
184 1 -6.06279020574888e-05     1.59619240005486     32.0146868708513     1.23578681747536
185 1 -1.56079772741351e-05     3.17939473620921     29.2724993909674     6.38272290579013
186 1 -3.32478859299988e-05     1.59619144670906     28.3584367709407     8.95619115297157
187 1 -8.68774329999201e-05   0.0129894549833572     31.1006241339787      8.9561917769465
188 1 -8.10588886386204e-05     1.59619256095478     32.0146867403693     6.38272338809117
189 1 -9.97095281019802e-05     3.17939383429994     29.2724993274932     11.5296590751401
190 1 -6.73143659524908e-05     1.59619088407413     28.3584368972207     14.1031273748809
191 1 3.28323377449399e-05    0.012988826194177     31.1006244749689     14.1031273878107
192 1 -2.05320152449829e-05     1.59619098608127     32.0146870687734      11.529659302899
193 1 -0.000262942190410276     3.17939640826619     29.2724985603325     16.6765966762287
194 1 -0.00017283804790402     1.59619296308054     28.3584368332003     19.2500643098398
195 1 3.47781518386396e-05   0.0129890430294938     31.1006247364135      19.250063799208
196 1 -7.42480222377776e-05     1.59619101968201     32.0146870852974     16.6765957559647
197 1 -0.000199496992446587     3.17939777284783     29.2724983224502     21.8235327144164
198 1 -0.000195584000143799     1.59619365552602     28.3584368133405     24.3970006248784
199 1 1.68589566784452e-05   0.0129891828916274     31.1006247666822     24.3970008421879
200 1 -0.000142235809635905     1.59619223510913     32.0146867792006     21.8235324422087
201 1 -0.000242178759163731     3.17939751600503     29.2724983216248     26.9704682984988
202 1 -0.000144950591887379     1.59619187987361     28.3584368785969     29.5439372256346
203 1 4.90098173164765e-05   0.0129887532046523     31.1006246529711      29.543937719381
204 1 -0.000126116370135464     1.59619173891467     32.0146868938774     26.9704689933869
205 1 -0.000233915924641067     3.17939508330568     29.2724989015403     32.1174051058035
206 1 -2.14859820972532e-05     1.59619061517737     28.3584368757414     34.6908741376403
207 1 -2.03291908301083e-05   0.0129890201240515     31.1006242650321     34.6908735546335
208 1 -3.27594712604469e-05     1.59619055897416      32.014687188064     32.1174057528786
209 1  -7.243492758872e-06     3.17939380382847     29.2724994993512     37.2643425912085
210 1 -6.43560359942959e-05     1.59619237799347     28.3584367001274      39.837809796516
211 1 -0.000113105023433752    0.012989768973951     31.1006241551874     39.8378095443769
212 1 -4.20060794268888e-05     1.59619185950878     32.0146868808315     37.2643418051897
213 1 -6.10865373693594e-05     3.17939535534732     29.2724992673527     42.4112779088394
214 1 -6.97845404529817e-05     1.59619253932651     28.3584367749399     44.9847462678003
215 1 -4.66954687906422e-05   0.0129896125842523     31.1006244077765     44.9847464165223
216 1 -8.2775265969944e-05     1.59619267338882     32.0146867698541     42.4112779510369
217 1 -7.40412778109503e-05     3.17939508047623     34.7568743883102     1.23578687404958
218 1 -7.82145959412372e-05     1.59619259942829     33.8428118335285     3.80925511797697
219 1 -6.47815502617671e-05   0.0129896425219629     36.5849994908168     3.80925480098477
220 1 -5.4224414380628e-05      1.5961921904341      37.499062060248     1.23578668129074
221 1 -5.77324979565234e-05     3.17939533103024     34.7568743583114     6.38272327422643
222 1 -6.27235568069406e-05     1.59619225720291     33.8428117895255     8.95619149077886
223 1 -0.00010837678333474   0.0129897457184668     36.5849991650637     8.95619174424274
224 1 -8.55816738437377e-05     1.59619271644402     37.4990618215296     6.38272326200527
225 1 -7.00119555562138e-06     3.17939390392092     34.7568748785559     11.5296590385117
226 1 -1.79105393573639e-05     1.59619078837857     33.8428121721778      14.103127420979
227 1 -6.4432111277595e-05   0.0129893310134655     36.5849991923176     14.1031280523274
228 1 -6.39862476309725e-05     1.59619223892807     37.4990618402015     11.5296597261216
229 1 -0.000140757559389143     3.17939412850293     34.7568744802263     16.6765958606213
230 1 -7.18539000977407e-05     1.59619091049011     33.8428122173028     19.2500640298347
231 1 7.54295133406772e-06   0.0129889502470676     36.5849995975242     19.2500641579137
232 1 -2.06313031250879e-05     1.59619103950313     37.4990622688092     16.6765959002942
233 1 -0.000229781604373001     3.17939531512405     34.7568737954473     21.8235325078863
234 1 -9.64219926209619e-05     1.59619115787835     33.8428121711755     24.3970007318177
235 1 2.18372651410483e-05   0.0129888693007561     36.5849997128396     24.3970007374586
236 1 -1.9742253964486e-05     1.59619063633365     37.4990624735938     21.8235324135073
237 1 -0.000209577279713903     3.17939490034297     34.7568740301322     26.9704688482889
238 1 -4.26191725551084e-05     1.59619061762861     33.8428122620089     29.5439374941685
239 1 -2.17583347584683e-05   0.0129890663463979     36.5849993994368     29.5439371160229
240 1 -1.65312382452662e-05     1.59619071228541     37.4990624299075     26.9704690323987
241 1 -6.30972517542898e-05     3.17939363854262     34.7568748615876     32.1174058232157
242 1 -2.0471862423107e-05     1.59619139320966     33.8428120071993     34.6908737876852
243 1 -9.97466000941215e-05   0.0129896204447097     36.5849990862806     34.6908731303801
244 1 -3.18309502358064e-05     1.59619157146782     37.4990620738243     32.1174053855116
245 1 -7.71291531451516e-06     3.17939465678916     34.7568746495132     37.2643420955543
246 1 -8.71574867999339e-05      1.5961927553297      33.842811723773     39.8378097207787
247 1 -9.13975631714237e-05   0.0129897711296856      36.584999341408     39.8378099032682
248 1 -8.47246758569098e-05     1.59619272066192     37.4990617421145     37.2643415683867
249 1 -8.24722901283654e-05      3.1793953833903      34.756874290195     42.4112778866665
250 1 -5.82200455619503e-05      1.5961922990112     33.8428119495025     44.9847463923362
251 1 -4.69208180595244e-05    0.012989527800908     36.5849995670254     44.9847465437637
252 1 -7.09802855344049e-05      1.5961924450092     37.4990619594515     42.4112782396322
253 1 -5.75581817522857e-05     3.17939486490918     40.2412496044698     1.23578670842908
254 1 -6.4832463309617e-05     1.59619234005525      39.327187037078     3.80925483085261
255 1 -5.77786242256505e-05   0.0129895661967023     42.0693746341281     3.80925475934027
256 1 -6.48290059197533e-05     1.59619221932248     42.9834370971566      1.2357866588823
257 1 -8.5890798569807e-05     3.17939538230002     40.2412493560365     6.38272328783943
258 1 -8.57462456039236e-05     1.59619275011198     39.3271868171511     8.95619156114318
259 1 -6.41208460806547e-05   0.0129896720611247     42.0693746211439     8.95619131805646
260 1 -6.11575788780487e-05     1.59619235389728     42.9834371545146     6.38272306601095
261 1 -5.13226099264139e-05     3.17939527096627     40.2412494831066     11.5296596571915
262 1 -6.2347237623499e-05     1.59619230818581     39.3271868645627     14.1031279298018
263 1 -0.000102257545245647   0.0129897601427432     42.0693742949449      14.103128000184
264 1 -8.16642027863397e-05     1.59619269847417     42.9834369761364     11.5296596819083
265 1 -4.39907699853415e-06      3.1793943110703     40.2412500415179     16.6765958372465
266 1 -2.84139404348974e-05     1.59619154821629     39.3271871688485     19.2500641888976
267 1 -0.000110436285328624   0.0129896994757758     42.0693741180686     19.2500643904702
268 1 -8.75269237285336e-05     1.59619270021289     42.9834368321415     16.6765961390383
269 1 -6.88394109395817e-06     3.17939383395955     40.2412502815556     21.8235324033015
270 1 -2.16975553103621e-05     1.59619137010161     39.3271872583547     24.3970007164613
271 1 -0.000108392950135119   0.0129896749512813     42.0693741019528      24.397000636619
272 1 -7.83423356548324e-05     1.59619249857307     42.9834368522992     21.8235324910264
273 1 -1.01351543542817e-06     3.17939396060313     40.2412502326892     26.9704690754986
274 1 -3.84492297720393e-05     1.59619188053973     39.3271870361158     29.5439371443769
275 1 -0.000110774463089544   0.0129897615231092     42.0693741699681     29.5439369211086
276 1 -8.19702732720814e-05     1.59619259513861     42.9834368347061     26.9704688420283
277 1 -1.62941009054791e-05     3.17939478235328     40.2412497843364     32.1174054598969
278 1 -7.94898241509296e-05     1.59619268519905     39.3271867690744     34.6908733359115
279 1 -8.45211212584359e-05   0.0129897514752271     42.0693744688817     34.6908734730811
280 1 -8.92651705592868e-05     1.59619278418907     42.9834368650546     32.1174052132822
281 1 -8.0244808595637e-05      3.1793955151103      40.241249303438     37.2643415888421
282 1  -7.922345774853e-05     1.59619259726999     39.3271869266775     39.8378099630541
283 1 -5.31492527980271e-05   0.0129895923289074     42.0693746843029     39.8378101748891
284 1 -7.08829501842941e-05     1.59619253058042     42.9834370884682     37.2643417772789
285 1 -7.39303747706599e-05     3.17939508344499     40.2412494931284     42.4112781908785
286 1 -5.62696723284069e-05     1.59619214845703     39.3271870909988     44.9847465158747
287 1 -6.62925074348875e-05   0.0129895462597624     42.0693745662985     44.9847465126258
288 1 -6.03814739648901e-05     1.59619223470739     42.9834371440701     42.4112783397012
289 1 -6.53139653487416e-05     3.17939500400546      45.725624662338     1.23578668079602
290 1 -6.30944898325353e-05     1.59619225758979     44.8115621627246     3.80925485808563
291 1 -6.95459094298277e-05   0.0129895860307897     47.5537496804102     3.80925496860866
292 1 -7.04992575214084e-05     1.59619235266873     48.4678121827838     1.23578672700155
293 1 -6.45815115441681e-05     3.17939498446183     45.7256247194379     6.38272310535818
294 1 -6.26701903530616e-05     1.59619233758916     44.8115622287206     8.95619132210475
295 1 -6.14667069516825e-05   0.0129895523082082     47.5537498261674     8.95619133012993
296 1 -6.62233872286337e-05     1.59619224846372     48.4678122570478     6.38272316018474
297 1 -7.98478774151507e-05      3.1793952331633     45.7256245355074     11.5296596566055
298 1 -8.11194782343447e-05     1.59619259425398     44.8115620460496     14.1031278720171
299 1 -5.40317033544868e-05   0.0129895640704589     47.5537498542049     14.1031277262889
300 1 -5.7775008064343e-05      1.5961921926641     48.4678122880646      11.529659526655
301 1 -8.21765588130558e-05     3.17939543853411     45.7256243423452     16.6765961078426
302 1 -8.84600534826091e-05     1.59619269148463     44.8115618858943     19.2500643114146
303 1 -5.63131684098668e-05    0.012989601057816      47.553749754554     19.2500642129801
304 1 -5.64629118904149e-05     1.59619228749277     48.4678122110936     16.6765959787492
305 1 -7.3609313275973e-05     3.17939543629924     45.7256243183699     21.8235324854174
306 1 -8.85405413652291e-05     1.59619269577155     44.8115618563257     24.3970006659527
307 1 -5.78099629029429e-05   0.0129896109774193      47.553749721231     24.3970006983972
308 1 -5.97209086463374e-05     1.59619237959338     48.4678121419926     21.8235324588636
309 1 -7.7725585117045e-05     3.17939545402855     45.7256243109604     26.9704688590964
310 1   -8.75446666428e-05     1.59619267864493     44.8115619417839     29.5439370431151
311 1 -5.42394851944572e-05   0.0129895797470392     47.5537498137909     29.5439371905845
312 1  -5.828257490562e-05     1.59619234162247     48.4678121661391     26.9704689345254
313 1 -8.56203515007651e-05     3.17939537898621     45.7256244034944     32.1174052490568
314 1 -7.27609827531125e-05     1.59619246824876     44.8115621542704     34.6908735507656
315 1 -5.64899817569478e-05   0.0129895457033057     47.5537498692169     34.6908736436162
316 1 -5.56509465247574e-05     1.59619221867162     48.4678122597633     32.1174054137806
317 1 -7.20738051408911e-05     3.17939507597986     45.7256246633822     37.2643417741453
318 1 -5.90322506766397e-05     1.59619224951166     44.8115622320224      39.837810090781
319 1 -6.6737636060071e-05   0.0129895664286894     47.5537497521512     39.8378099916305
320 1 -6.16483645435091e-05     1.59619219768425      48.467812292666     37.2643418183509
321 1 -6.26451855582457e-05     3.17939496940277     45.7256247112724     42.4112782908377
322 1 -6.79775933789928e-05     1.59619228176425      44.811562100258     44.9847464721438
323 1 -7.08264409099047e-05   0.0129896026112357     47.5537496317389     44.9847464241459
324 1 -6.9473001660935e-05     1.59619231476601     48.4678122140697     42.4112781910491
325 1 -6.88487577929451e-05     6.34580051951663      1.8506236168005     1.23578665853728
326 1 -6.35887047735073e-05     4.76259774800182    0.936561139166602     3.80925487179456
327 1 -6.48303424189008e-05     3.17939500089795     3.67874866155051     3.80925489345237
328 1 -6.2423517889956e-05     4.76259774011677     4.59281115811056     1.23578666839395