(written by ASE)

4861 atoms
2 atom types

0.0      47.496081794731396  xlo xhi
0.0      49.359376101810554  ylo yhi
0.0      46.322427954443121  zlo zhi

Masses

     1      178.48999995408445 # Hf
     2      15.998999995884349 # O

Atoms # charge

     1   1 0.00178375576396101        3.17670916381506      1.8322750966782599        1.22112314901478
     2   1 -0.00222678774483725         1.5911018190738       0.918690881724605      3.7991465797638502
     3   1 0.00319817709152361   0.0078328653278451205          3.662028732929        3.80556250230986
     4   1 -0.00195206248801475      1.5972275211501299      4.5780733292798397        1.23167484416701
     5   1 0.0011092835815771      3.1729944213910199        1.83765850318379      6.3733367037683903
     6   1 0.000898977973856353        1.59187702992092     0.92864561064442697      8.9478616356903302
     7   1 -0.00292148475287929     0.00176195221889603        3.66614625636254      8.9585106919316004
     8   1 -0.00109971313563016      1.5761984214303799      4.5662214258628397      6.3870489800316497
     9   1 -0.00155266418689397      3.1757224031359601      1.8482062226170599        11.5204150425908
    10   1 0.00144937613920736      1.5940870009596499     0.93278197077214298        14.0926863492171
    11   1 0.000162265212275893   0.0086749323207194508      3.6736454101272198         14.104683352293
    12   1 0.00187964615138197      1.5884966770421001      4.5854023304306404        11.5355797219149
    13   1 0.000962738869738108        3.17939599238349      1.8461730155087901      16.663896990487999
    14   1 -0.00163520818741677      1.5920339940944099       0.926705494271022      19.222361013828301
    15   1 -0.00439294831423389   0.0081657979552535905      3.6597568484704199      19.264107554670598
    16   1 -0.000103856376293676      1.5922349995088401      4.5800275429410799        16.6874760091161
    17   1 0.0121548054500807      3.2469194918106998        1.81561518557529      21.754465874645799
    18   1 -0.00755606461327157      1.5898469207366599        1.22455666513352      24.175849681506602
    19   1 0.0134260397766996      47.428656401950803      3.7132348685573202        24.4542308878003
    20   1 -0.00512562009134347      1.5900455546316401      4.3050822310208696      22.034029880202301
    21   1 -0.00256009768506023      3.1752983156214998      1.8699665151448299      26.945157151804398
    22   1 0.000287430563154296      1.5902456551198101     0.94888177464378898      29.520993722663199
    23   1 -0.00270643810921702   0.0033218156285075399      3.6811987207321599        29.5422464281312
    24   1 6.16776238703309e-05      1.5908963361491799      4.6015296137365604      26.986103355455999
    25   1 0.00194541190406954      3.1748221442253199      1.8520601656410201      32.104581332378601
    26   1 0.000694314693841623        1.59112860885337     0.93524393943874895      34.677775441304703
    27   1 -0.00247123300547104   0.0076790637224837099        3.67520870776969        34.6850123791057
    28   1 0.00121538713114084        1.59106860742531      4.5921468562606398      32.114353163406697
    29   1 -0.000678181534497034      3.1751862924868299        1.84674772757794      37.253133247636697
    30   1 0.00165578042179591      1.5928150911455801     0.92971494677081301      39.826539024862903
    31   1 0.00137275737151797    0.010418882788309901        3.67163697301917      39.832267161654002
    32   1 -0.00159735718411298        1.59200731408471      4.5881758079877804        37.2593817176569
    33   1 -0.00444586491698121      3.1769693169490698      1.8422065477038101      42.399006208536399
    34   1 -0.000777601953833008      1.5942026546157999     0.92446980363289799      44.972975368133802
    35   1 -0.000595535383227907      0.0134539736246826        3.66801586483477      44.979798762115699
    36   1 0.00156545578285301        1.59448820408689      4.5855944585010704      42.406618825991103
    37   1 -0.00240922157150231      3.1926892878384199      7.3203623160011002      1.2518898633792299
    38   1 -0.00702499406670146      1.6011551783676501      6.3966222000328097      3.8212637577421402
    39   1 -0.00495783574966667    0.070793148593247299      9.1397415099576698      3.8336602393041499
    40   1 -0.00184363050389921        1.64585219155829        10.0397226595628      1.2949215880164799
    41   1 0.0118490623269244        3.10897053018261      7.2855146828863999      6.4453048807101796
    42   1 0.00127576813387457      1.5703205006107801      6.4061394543595602      8.9818741797644606
    43   1 -0.0004451873193898   0.0051920110079577801      9.1571375066125196      8.9714462947728695
    44   1 -0.00180465928378092      1.6088287055694399        10.0630573061389      6.4122851502024698
    45   1 0.000179039117567663      3.1700080137242401      7.3310466265067404      11.537983148754201
    46   1 -0.000495547515483957      1.5906748111071101      6.4140915171749402      14.114755593435399
    47   1 0.0026444483953934   0.0078787747412440903          9.156501696047        14.1186713496982
    48   1 0.00254357915409571        1.58781091347424        10.0756708051546        11.5466147797693
    49   1 -0.00155485663827926      3.1696428876049598      7.3194257232751001      16.694862025860498
    50   1 -0.00161473132214011      1.5914321948694601      6.3593051362587003      19.305138889830101
    51   1 -0.00242378007439332      0.0135191804379055      9.1336934279193098      19.267710969384499
    52   1 0.000964321736191109        1.59169145304689        10.0652780831222        16.6912235121248
    53   1 -0.00416258696347589        3.15819584985341      7.2751535961038201      21.842587504655299
    54   1 -0.00530826326025        1.59050329669761      6.4015419192116596      24.419290823235201
    55   1 0.00208919884935372   0.0091095264760504106      9.1499355461428191      24.401464829625599
    56   1 0.00162117903788936        1.59130139034471      10.049902260969599      21.831362949995601
    57   1 -0.000906333950893345        3.17905499400048        7.33705631449455      26.977711316835201
    58   1 -0.00278994504659358      1.5912614747898599      6.4244842176783203        29.5496693868416
    59   1 0.00237676628810568   0.0070298137228139903      9.1639736290055698        29.5481184104348
    60   1 -4.8719127390964e-05          1.591057193673        10.0745528998784        26.9733867729033
    61   1 -0.000203562076966457      3.1754076010189101      7.3354336820497297        32.1192621783552
    62   1 0.00124968216764337        1.59168569904125      6.4181681249128602      34.690055610025397
    63   1 -0.00186886570524164   0.0087873689249314494      9.1599271638967998      34.693656875748502
    64   1 0.00249801560801878        1.59134673168031        10.0762207767891      32.120082992235403
    65   1 -0.00164363935546488      3.1751786211035302      7.3315352954692097        37.2633427586848
    66   1 -0.00177162566253038        1.59381536276309        6.41493270138458      39.837159752850397
    67   1 0.000229178209630861      0.0124434276471779      9.1556889732422508      39.843265748990802
    68   1 0.000869488898422847        1.59259145733101        10.0724892462109      37.267644685001798
    69   1 -0.00177715116330574      3.1779996843256599      7.3293248389015098      42.412229488228199
    70   1 0.00263506639955839        1.60111449923717      6.4111580234626704      44.989283249857898
    71   1 -0.00138658927152298    0.027635211380361201      9.1514733202991891      45.005656421560303
    72   1 -0.00423385456592943        1.59772402832257        10.0677704124502      42.422116738130903
    73   1 0.00281234070065989      3.1867784377845201        12.8046276811538      1.2518315497558401
    74   1 -0.00225383250208778        1.63650148608443        11.8552756690677      3.8358806806708499
    75   1 0.000953039349932005      0.0241828980949516        14.6240497769075        3.82085079417761
    76   1 0.000228435607268657      1.5968863996673399        15.5476899255109      1.2452696724463399
    77   1 0.000374605135990759        3.17550944847412        12.8338230405594      6.4022833338252703
    78   1 0.00153222717814246      1.5917156188658499        11.9064394048468      8.9734221758784702
    79   1 0.00333353033670127   0.0092468400329850306        14.6453541928337      8.9661112535541605
    80   1 0.00236792702479233      1.5938751546665499         15.560244906851      6.3932395233942199
    81   1 -0.000327250490836911      3.1716735677621402         12.822450796739      11.547362733945899
    82   1 -0.00125294087149537      1.5903567067854101        11.9009904660429        14.1170110375179
    83   1 -0.000583386369005072   0.0076013718604911401        14.6454589521631        14.1124582214164
    84   1 -0.0013384542030318        1.59048007740567      15.562420778131299      11.540732575201901
    85   1 -0.00126833109658406      3.1742600372243701      12.812885213440699      16.686287537557799
    86   1 -0.00129132383731522         1.5923215285915        11.8885594425201         19.259455670845
    87   1 -0.00465086496367597    0.010613357977534699      14.639378459474001        19.2560114239317
    88   1 -0.00189075811877835      1.5925460808482901        15.5578964141807      16.684136275215199
    89   1 0.00218262045182001      3.1735908432286202      12.807612172776301        21.8275940513732
    90   1 -0.000761468400972696      1.5918850050161699      11.896068129865199      24.399206839504501
    91   1 0.000833831074298257      0.0104641237899334        14.6422443338555      24.399067294966901
    92   1 0.000243849135129183      1.5934930970435299        15.5554203966872        21.8270604593414
    93   1 -0.000287537663467233      3.1748993004426098        12.8175739923329      26.971669079525999
    94   1 -0.0027726291071435        1.59174808272909      11.904929389888901      29.545970697032601
    95   1 0.00372694920581973   0.0094961118411760696        14.6462248746637      29.545638293125698
    96   1 -0.00264766694549932        1.59300140693231      15.559836134527499      26.971810876997001
    97   1 -0.000132316547644867      3.1751230656925702        12.8181975825824      32.118962304032799
    98   1 -0.000709353045371207      1.5922467788162999        11.9022881030526      34.693605139730799
    99   1 0.00150885393728902   0.0096067793064530792           14.6435379021      34.693554914911601
   100   1 -0.000170263381309608      1.5925371878610399        15.5595075116918      32.118736903189401
   101   1 0.00109697520110248      3.1752321923658098      12.814664197354499      37.267229998303698
   102   1 -0.0023196683507503        1.59408675229139        11.8974203843435      39.844318227901098
   103   1 -0.000594317352620811    0.010811600913708299        14.6379424532394        39.8438052028051
   104   1 -0.00257865266157369      1.5922033940074101        15.5556397480035      37.266969507475999
   105   1 -0.000459626946561058      3.1759702002359198      12.810616375605001        42.4201242632899
   106   1 2.74677739502978e-05        1.60350395131784        11.8851688648194      45.007291636447498
   107   1 0.00185029619360109      0.0158748676125554      14.629677905821501        44.9967169564665
   108   1 0.00050990622549901      1.5920714930230799         15.551270738124      42.417781333832899
   109   1 -0.000796059434877144      3.1734853291074301      18.297319922318898      1.2417998297680599
   110   1 -0.000871420104188599        1.59672636960307      17.379502150796299      3.8170520512758399
   111   1 -0.00466497191451421    0.016571858798775398      20.121223322306001      3.8153628533194301
   112   1 0.00144131389992139        1.59514214647413      21.038075861447599      1.2407910136376901
   113   1 -0.000946735084012791      3.1787491635624301      18.302788101489401      6.3903095034649899
   114   1 -0.00425094171661547      1.5938167350738299      17.390180143228001      8.9652822714867106
   115   1 0.000933467923193727    0.013411512024586601      20.128937449551501      8.9629427132805208
   116   1 0.000503459333461823        1.59892037872465      21.041135971722898      6.3888373213954699
   117   1 0.00221759840800745      3.1777716741371398      18.303970086442899        11.5375428521229
   118   1 0.000853282376215731        1.59324842356855      17.388818230300899        14.1107992092724
   119   1 0.00295431057868592      0.0115102201355579      20.130796067157799        14.1084910229676
   120   1 -0.00123412406351158        1.59676903829164        21.0442649328327      11.535557538748099
   121   1 0.000561633988551385      3.1779107802325801      18.302024194164801         16.682396703174
   122   1 0.00142388258634534      1.5946412056005499        17.3854444083678        19.2547230301257
   123   1 -0.00291524763361908       0.012985929631691        20.1296363700583      19.253502006855999
   124   1 0.000975679301626876      1.5964936486058401      21.044419334095299        16.6810201724888
   125   1 -0.00169366176441744      3.1780918287795701      18.301368919471901      21.826375602836201
   126   1 0.000282210114809658        1.59470439924425      17.386910690419398      24.398860895793799
   127   1 0.0010495933646895    0.013145012987758199      20.130349421971001      24.399028205814702
   128   1 0.000894662555004716        1.59688644545613      21.044591116061198      21.826095478429899
   129   1 0.00275256737935473        3.17759399013377      18.303220456956399      26.971467344640299
   130   1 -0.00314058461369333      1.5938135960111499      17.388569702070999      29.544984903135301
   131   1 0.00190662277399893    0.011998943562305501        20.1307123365841      29.545631392677599
   132   1 -0.000505991511722176      1.5960153598568101      21.045302221009599      26.971917503157599
   133   1 -0.00104305189539108      3.1766797266261801      18.301863158610502      32.117562971770397
   134   1 0.000677998960355545      1.5928479299726801      17.385766505321399      34.691881150719801
   135   1 0.00394305350615474    0.011145473579407201      20.127742378157102      34.692472875545803
   136   1 -0.00250338533259104      1.5949820076911601        21.0435270545176        32.1181934232511
   137   1 -0.000798508939021537      3.1744754842915102      18.298345430584799      37.263991024185302
   138   1 0.0025107388264037        1.59105601809828      17.381191051691701        39.8403042894791
   139   1 0.00456950404358516    0.010745776309662201         20.122741041251      39.840214712005498
   140   1 0.00145910717194386      1.5940377975445701      21.039209867692701      37.264928755564803
   141   1 0.000884504487163439      3.1687215632428201      18.297019304128298      42.413104016186601
   142   1 -0.000458037153164286        1.59108718070246        17.3777922014824      44.991091491270197
   143   1 -0.00123899910573984    0.012005195439741901      20.120358580893502      44.989615256592401
   144   1 0.00168740312764516        1.59175135034027      21.037821236398301      42.413609845615099
   145   1 -0.00137685991908223        3.18035773113635        23.7831177498194      1.2391218792560501
   146   1 0.000546596342411868      1.6017364334736299      22.866742860062899      3.8137343334161802
   147   1 -0.00289389953813685    0.023222695740489199      25.607913209563801      3.8125260900571298
   148   1 0.00181758377901194      1.6005188420520999      26.524057108474299      1.2376857533483301
   149   1 -0.00421791558323306      3.1855893106047599      23.784058997897201      6.3867751169001101
   150   1 0.000461419492565729      1.6015994184887701      22.870665108188199      8.9615949284350407
   151   1 -0.00149985068824836    0.024018646583769201      25.611639570697701      8.9607687294922105
   152   1 0.00319793350062798        1.60669859208038      26.525620130213099      6.3854192900096702
   153   1 0.00293275501442713      3.1842301113547999        23.7862993395477         11.534090706209
   154   1 -0.00394782748076951      1.5991327022909101         22.872653674218        14.1077650484677
   155   1 0.00042966213713677      0.0190505306875371      25.614259423988901        14.1075335426886
   156   1 -0.000581189170744218        1.60457892574032      26.527940621905302        11.5334274705532
   157   1 -0.0021867833213431      3.1828445822840998      23.787386496818101      16.680239729826798
   158   1 0.0042877751053127      1.5988419363862001      22.872907108340701        19.2532926623057
   159   1 0.0014334034967734    0.017674523143322001      25.614877048930602        19.2534169559402
   160   1 -0.00244361989497417      1.6018059478356901      26.529202954794201      16.679897686631101
   161   1 -0.000118097214979499      3.1822118689691199      23.788247461514601      21.825830778856702
   162   1 0.000152967236771043        1.59813622498362      22.873500967304899      24.398965337826802
   163   1 -0.000951614612066521      0.0163961043960861      25.615517381762899      24.399685439205001
   164   1 -0.000344195819021813      1.6005273894718199      26.530158486989901      21.825838067676901
   165   1 -0.00157634424806034      3.1809149869640598         23.788127740042        26.9715160172099
   166   1 0.000552614534144228        1.59678009504941      22.872990417684399      29.545130568573999
   167   1 -3.5856478976139e-05      0.0146480636664739      25.615108795175999      29.546074841768601
   168   1 -0.000142377894545706        1.59884490713993         26.529994268804      26.971505179300401
   169   1 -0.00162891150015885      3.1803678454281399      23.785102376653501      32.117511805893997
   170   1 0.000828348899830649        1.59642845887248        22.8691177699143      34.691613694298297
   171   1 0.00148607306677025    0.015235274199808401      25.610373210816299      34.692509311338398
   172   1 -0.00184021151783396      1.5990201229727701        26.5261001766298      32.116547629542197
   173   1 0.000361730157189219      3.1805388788398701      23.780280183876801        37.2645189725297
   174   1 -0.00115447148354645        1.59616320411894        22.8646410427551        39.8391770684985
   175   1 0.0030661468784103    0.015977274643458599      25.600743221426999      39.840755897157202
   176   1 -0.00109292800527661      1.6014541903456101      26.517136202189398      37.264344056350303
   177   1 0.00243623812791109        3.17722969522484      23.782177378930299      42.412483479894199
   178   1 -0.00288412967357415         1.5958651761167      22.865870368944801      44.988037573872802
   179   1 0.00284670634374073      0.0160162938765353        25.6055310186137      44.988896732393599
   180   1 -0.00169659861978194        1.59650296156658        26.5208029691664      42.412859409994397
   181   1 0.00103846364212881      3.1822208863703501      29.267267117845101          1.233655725987
   182   1 -0.0021047032243897      1.6036509655703299      28.352695990634299      3.8096778411900001
   183   1 0.00307253410433546    0.018153171990002898      31.093976627713602      3.8073249868014298
   184   1 -0.0016719650617506      1.5954175697164701      32.008094357673102        1.22733730459139
   185   1 -0.00101776983895473      3.1885468301913802      29.268872115926001      6.3820810269544301
   186   1 -0.00213340378328583        1.60831229889507      28.355161416379001      8.9581286956969404
   187   1 0.00146691818281789    0.025085067525034501      31.097730076560801      8.9567541054313704
   188   1 -0.000854063920565161      1.6038945012852599      32.010331539670403      6.3793122389181196
   189   1 -0.00209943564030676        3.18944310144937      29.270944706007999      11.530971356731699
   190   1 0.00348791809635331        1.60539750722859      28.356888899855601         14.106243268275
   191   1 0.000555560824704259    0.023309776882649302      31.099127304901302        14.1054021222337
   192   1 0.000714231018224908        1.60690520171644      32.013028547906202      11.529145199176901
   193   1 -0.00117000889984914      3.1870482310449102      29.272470127132198        16.6784863514861
   194   1 0.000197133711115335        1.60302252027793      28.358007864831801      19.252595820016701
   195   1 0.00257133235386461    0.020844336773068801      31.099808408541399      19.252097763874801
   196   1 -0.00236095216802905      1.6046274828127201        32.0143123665651      16.677123665047301
   197   1 0.000335806144155379      3.1849348664822701        29.2739293611838      21.824727723707401
   198   1 -0.000479655921256766      1.6007611646822499      28.358759480975799        24.3983165559067
   199   1 0.000875194072958764    0.018117573529638199      31.101036980747899      24.398103435273701
   200   1 0.00171257117254012        1.60194947142088      32.016145752464801      21.823665492456499
   201   1 0.00179019314719145      3.1824645613486102      29.273682176859499        26.9697615564451
   202   1 0.000269805539292987        1.59945109342682        28.3571804162676      29.542576241738399
   203   1 0.0015351195648358    0.015963397673122801      31.100887951199098        29.5419703047619
   204   1 0.00175709600750459        1.59879320098157      32.017237333092901      26.968482555679302
   205   1 0.00201389256775771      3.1835754710444801      29.270149461989298      32.113995717792697
   206   1 -0.000800345844651295      1.6047635406027001        28.3483220634606      34.686335666940998
   207   1 0.00199782727161654    0.033996159054078399      31.088001371427701      34.667465511101497
   208   1 0.00271592290595078      1.6021446057362101      32.015432148707802      32.107513118883602
   209   1 0.00257727754303849        3.18645308146283      29.262434096610502        37.2616601074904
   210   1 0.00167435738145542      1.5992717023390299      28.345055470483601        39.8376132190091
   211   1 -0.00446230613942078   0.0036584303602255298        31.0780965335017      39.825333032952301
   212   1 -0.00326053178755202        1.60983277253881      32.001967379853497      37.251002937074901
   213   1 0.0029422863703968         3.1771638853924      29.264743835234199      42.409111303417703
   214   1 0.00217185665208206      1.5964418862738601        28.3509354699552      44.984915271757799
   215   1 -0.00101219843175946   0.0070233952959388602        31.0915492908535      44.978098171767698
   216   1 0.00487581635839277      1.5805601383543699        32.0015454413765      42.398295210828699
   217   1 -0.000476973006859681      3.1750394339058698      34.747874225341299      1.2222488541671599
   218   1 0.00104844604645896      1.5982117441713199      33.835951318767101        3.80101089598074
   219   1 5.65252156266332e-05      0.0135206764041403         36.574972464637      3.7991571748899502
   220   1 0.00272999866649466        1.59127813982557      37.486607209106701        1.22016545370971
   221   1 0.00161486216754611      3.1845246187949998      34.751988123523901      6.3753083501340697
   222   1 -0.00394569106693224        1.60465518702177      33.839553946619901      8.9521962634833905
   223   1 0.00324210446645203    0.019372652155281399      36.580087916142404      8.9499183360283006
   224   1 -0.00207308924022383      1.5995438056378799      37.491865933977003      6.3730865425905296
   225   1 0.00192367528150597      3.1878755286737102      34.755131676142703        11.5253794814221
   226   1 -0.00115162909151807      1.6051592588994299      33.841608842133802      14.101293014022399
   227   1 0.00198948433764442    0.020902396245926099      36.583067393483198      14.098747408780699
   228   1 0.00151867477873122         1.6032058151863      37.496070074294799      11.522651967305601
   229   1 -0.000225189047898905        3.18676532931467      34.757319291127999      16.673937654382598
   230   1 0.00151723260469699      1.6031931086803499      33.843393628645302      19.248865204614798
   231   1 0.00206016592849922    0.019745306496273301      36.585455317435901        19.2466587615646
   232   1 -0.00232327005188015      1.6026170059992499      37.498999378376901      16.671323222105102
   233   1 -0.00305200973062942      3.1832147562595199      34.760758064826199      21.821076051547902
   234   1 -0.00112165673621488        1.59934316987886      33.845954970541499      24.395030426342998
   235   1 -0.000189906174634013    0.015269076705928799      36.590308726220002        24.3931519360683
   236   1 0.000666273266661039      1.5987996438285701      37.504594312134202      21.818860611866501
   237   1 0.00368940070274401      3.1787395264481502      34.762874717032098      26.966429359323801
   238   1 -0.00539510717493153        1.59673446452487        33.8464873133967      29.537922105726501
   239   1 0.00233384523863296      0.0109186303557775        36.5917287894639        29.5355902097191
   240   1 -0.000810721028018556      1.5936780433422599      37.508756728777001      26.963818524321201
   241   1 -0.000262377829611874      3.1790699334827801      34.760664447340197      32.110881620290698
   242   1 -0.000838231911967205      1.5973823626344901      33.840458041095097        34.6792830251418
   243   1 -0.00287118478234735   0.0081419206180811596      36.590305876352502      34.676754632149702
   244   1 -0.000122475176882197      1.5930693576180299      37.505803022007903      32.107573430047701
   245   1 0.00023844750664667      3.1651294929067899      34.749976823704202        37.2573338305547
   246   1 -0.000155520686895077      1.5337117316206099        33.8220599939199      39.814104340586397
   247   1 -0.00478007005327954      47.460579108730997      36.536830476654998      39.812080007907497
   248   1 0.00138429609356289      1.5816817313901701      37.489898340706802      37.254365314575097
   249   1 -0.00193324241438076        3.15034879769355      34.740863115871299      42.391717294765897
   250   1 0.000899748676769538         1.5799501016552      33.833159691482898      44.962145841595799
   251   1 -0.00085815878403843  0.00064967062881478505      36.564715918640999      44.960368192200001
   252   1 -0.00168589417769578        1.57062852672163      37.473869124067697      42.389402714430403
   253   1 -5.41472603882281e-05      3.1761619482191499      40.230118522118403        1.22197174514091
   254   1 -0.00179942238578086      1.5964471485334399      39.316996376166799      3.7967699415661902
   255   1 -0.00379858105917265    0.012690449287121999      42.057605747329802        3.79761604119751
   256   1 -0.000723774568607421      1.5941251601422799      42.971504989787398        1.22292421279028
   257   1 0.000956041910905044      3.1817711821880499         40.234395079852      6.3710110779633897
   258   1 -0.000572105917082388      1.6008303748205499      39.321751552940697      8.9463969398271903
   259   1 7.21742684267599e-05    0.015843922081666899      42.062083526628797      8.9451494862302692
   260   1 0.00172943114606126      1.5974495445477801      42.974462639804798      6.3705782538089899
   261   1 0.00128520463886874      3.1843410929285398      40.238323652845303      11.519497054814501
   262   1 -0.00305470721700929      1.6019295881043201      39.325224647496803      14.095010854327899
   263   1 0.000628586053908074      0.0171614629613841        42.0661437291363          14.09272012712
   264   1 0.00234020592561731        1.59947181922629      42.978901932326302      11.517738364274701
   265   1 0.00258140649343213      3.1831037401704498        40.2417091436945      16.667856222055502
   266   1 0.00219471093719751        1.59949541657908      39.329574438186803      19.243411584847401
   267   1 -0.00110876430652143      0.0153892615399015      42.071667918095699      19.241407816881701
   268   1 0.000600323121737593        1.59871116334195      42.982424663706198      16.665553479768601
   269   1 -0.000654810385165706      3.1772151155647799      40.250244694060498      21.816133093771501
   270   1 6.12914699434817e-05      1.5934891968370399        39.3380053987796      24.390022952866399
   271   1 0.000641629072815908      0.0091931461847343        42.0857464000904        24.3871905550997
   272   1 -0.00339335283604811        1.59333070949421      42.995707586956797         21.814229291777
   273   1 0.00129542388501148      3.1725746162608801      40.256350499153299      26.961181269510998
   274   1 -0.000582321050143932        1.59047834106953        39.3373027077891      29.533932711049101
   275   1 -0.00230533275349648   0.0051813740708227703      42.081848021189899      29.529458047933002
   276   1 0.00160014478554132      1.5883947618113201      43.005537317722698        26.9554648609796
   277   1 -0.000195097764476228        3.17355987951834      40.249121168996403        32.1066955179571
   278   1 -0.000872109795658173      1.5896417157915299      39.330261766573003        34.6802176934386
   279   1 -0.00320443242848204   0.0062802166048220101      42.074977760006099        34.6763877896162
   280   1 0.00187389436279089      1.5891398304773601      42.992571078827901        32.1012814715369
   281   1 -0.00180739554120215      3.1694972562624599        40.2359551389006        37.2540988230853
   282   1 -0.00138764849853775        1.57784445594417      39.306901592991302      39.824704821275297
   283   1 -0.000526941976405747   0.0055034972808562996      42.060958223355797      39.825647519023903
   284   1 4.684990124879e-05        1.58972145554149      42.981770474200303        37.2508091646826
   285   1 0.0021399154800811      3.1669112966264299      40.225547990889297      42.397291608477502
   286   1 0.000811269819966239        1.58827605461684        39.3109648255869      44.968614791778499