ITEM: TIMESTEP
2123
ITEM: NUMBER OF ATOMS
4861
ITEM: BOX BOUNDS pp pp pp
0.0000000000000000e+00 4.7496081794731396e+01
0.0000000000000000e+00 4.9359376101810554e+01
0.0000000000000000e+00 4.6322427954443121e+01
ITEM: ATOMS id type q x y z
1 1  0.00178375576396101     3.17670916381506     1.83227509667826     1.22112314901478
2 1 -0.00222678774483725      1.5911018190738    0.918690881724605     3.79914657976385
3 1  0.00319817709152361  0.00783286532784512       3.662028732929     3.80556250230986
4 1 -0.00195206248801475     1.59722752115013     4.57807332927984     1.23167484416701
5 1   0.0011092835815771     3.17299442139102     1.83765850318379     6.37333670376839
6 1 0.000898977973856353     1.59187702992092    0.928645610644427     8.94786163569033
7 1 -0.00292148475287929  0.00176195221889603     3.66614625636254      8.9585106919316
8 1 -0.00109971313563016     1.57619842143038     4.56622142586284     6.38704898003165
9 1 -0.00155266418689397     3.17572240313596     1.84820622261706     11.5204150425908
10 1  0.00144937613920736     1.59408700095965    0.932781970772143     14.0926863492171
11 1 0.000162265212275893  0.00867493232071945     3.67364541012722      14.104683352293
12 1  0.00187964615138197      1.5884966770421     4.58540233043064     11.5355797219149
13 1 0.000962738869738108     3.17939599238349     1.84617301550879      16.663896990488
14 1 -0.00163520818741677     1.59203399409441    0.926705494271022     19.2223610138283
15 1 -0.00439294831423389  0.00816579795525359     3.65975684847042     19.2641075546706
16 1 -0.000103856376293676     1.59223499950884     4.58002754294108     16.6874760091161
17 1   0.0121548054500807      3.2469194918107     1.81561518557529     21.7544658746458
18 1 -0.00755606461327157     1.58984692073666     1.22455666513352     24.1758496815066
19 1   0.0134260397766996     47.4286564019508     3.71323486855732     24.4542308878003
20 1 -0.00512562009134347     1.59004555463164     4.30508223102087     22.0340298802023
21 1 -0.00256009768506023      3.1752983156215     1.86996651514483     26.9451571518044
22 1 0.000287430563154296     1.59024565511981    0.948881774643789     29.5209937226632
23 1 -0.00270643810921702  0.00332181562850754     3.68119872073216     29.5422464281312
24 1 6.16776238703309e-05     1.59089633614918     4.60152961373656      26.986103355456
25 1  0.00194541190406954     3.17482214422532     1.85206016564102     32.1045813323786
26 1 0.000694314693841623     1.59112860885337    0.935243939438749     34.6777754413047
27 1 -0.00247123300547104  0.00767906372248371     3.67520870776969     34.6850123791057
28 1  0.00121538713114084     1.59106860742531     4.59214685626064     32.1143531634067
29 1 -0.000678181534497034     3.17518629248683     1.84674772757794     37.2531332476367
30 1  0.00165578042179591     1.59281509114558    0.929714946770813     39.8265390248629
31 1  0.00137275737151797   0.0104188827883099     3.67163697301917      39.832267161654
32 1 -0.00159735718411298     1.59200731408471     4.58817580798778     37.2593817176569
33 1 -0.00444586491698121     3.17696931694907     1.84220654770381     42.3990062085364
34 1 -0.000777601953833008      1.5942026546158    0.924469803632898     44.9729753681338
35 1 -0.000595535383227907   0.0134539736246826     3.66801586483477     44.9797987621157
36 1  0.00156545578285301     1.59448820408689     4.58559445850107     42.4066188259911
37 1 -0.00240922157150231     3.19268928783842      7.3203623160011     1.25188986337923
38 1 -0.00702499406670146     1.60115517836765     6.39662220003281     3.82126375774214
39 1 -0.00495783574966667   0.0707931485932473     9.13974150995767     3.83366023930415
40 1 -0.00184363050389921     1.64585219155829     10.0397226595628     1.29492158801648
41 1   0.0118490623269244     3.10897053018261      7.2855146828864     6.44530488071018
42 1  0.00127576813387457     1.57032050061078     6.40613945435956     8.98187417976446
43 1  -0.0004451873193898  0.00519201100795778     9.15713750661252     8.97144629477287
44 1 -0.00180465928378092     1.60882870556944     10.0630573061389     6.41228515020247
45 1 0.000179039117567663     3.17000801372424     7.33104662650674     11.5379831487542
46 1 -0.000495547515483957     1.59067481110711     6.41409151717494     14.1147555934354
47 1   0.0026444483953934  0.00787877474124409       9.156501696047     14.1186713496982
48 1  0.00254357915409571     1.58781091347424     10.0756708051546     11.5466147797693
49 1 -0.00155485663827926     3.16964288760496      7.3194257232751     16.6948620258605
50 1 -0.00161473132214011     1.59143219486946      6.3593051362587     19.3051388898301
51 1 -0.00242378007439332   0.0135191804379055     9.13369342791931     19.2677109693845
52 1 0.000964321736191109     1.59169145304689     10.0652780831222     16.6912235121248
53 1 -0.00416258696347589     3.15819584985341     7.27515359610382     21.8425875046553
54 1    -0.00530826326025     1.59050329669761     6.40154191921166     24.4192908232352
55 1  0.00208919884935372  0.00910952647605041     9.14993554614282     24.4014648296256
56 1  0.00162117903788936     1.59130139034471     10.0499022609696     21.8313629499956
57 1 -0.000906333950893345     3.17905499400048     7.33705631449455     26.9777113168352
58 1 -0.00278994504659358     1.59126147478986     6.42448421767832     29.5496693868416
59 1  0.00237676628810568  0.00702981372281399     9.16397362900557     29.5481184104348
60 1 -4.8719127390964e-05       1.591057193673     10.0745528998784     26.9733867729033
61 1 -0.000203562076966457     3.17540760101891     7.33543368204973     32.1192621783552
62 1  0.00124968216764337     1.59168569904125     6.41816812491286     34.6900556100254
63 1 -0.00186886570524164  0.00878736892493145      9.1599271638968     34.6936568757485
64 1  0.00249801560801878     1.59134673168031     10.0762207767891     32.1200829922354
65 1 -0.00164363935546488     3.17517862110353     7.33153529546921     37.2633427586848
66 1 -0.00177162566253038     1.59381536276309     6.41493270138458     39.8371597528504
67 1 0.000229178209630861   0.0124434276471779     9.15568897324225     39.8432657489908
68 1 0.000869488898422847     1.59259145733101     10.0724892462109     37.2676446850018
69 1 -0.00177715116330574     3.17799968432566     7.32932483890151     42.4122294882282
70 1  0.00263506639955839     1.60111449923717     6.41115802346267     44.9892832498579
71 1 -0.00138658927152298   0.0276352113803612     9.15147332029919     45.0056564215603
72 1 -0.00423385456592943     1.59772402832257     10.0677704124502     42.4221167381309
73 1  0.00281234070065989     3.18677843778452     12.8046276811538     1.25183154975584
74 1 -0.00225383250208778     1.63650148608443     11.8552756690677     3.83588068067085
75 1 0.000953039349932005   0.0241828980949516     14.6240497769075     3.82085079417761
76 1 0.000228435607268657     1.59688639966734     15.5476899255109     1.24526967244634
77 1 0.000374605135990759     3.17550944847412     12.8338230405594     6.40228333382527
78 1  0.00153222717814246     1.59171561886585     11.9064394048468     8.97342217587847
79 1  0.00333353033670127  0.00924684003298503     14.6453541928337     8.96611125355416
80 1  0.00236792702479233     1.59387515466655      15.560244906851     6.39323952339422
81 1 -0.000327250490836911     3.17167356776214      12.822450796739     11.5473627339459
82 1 -0.00125294087149537     1.59035670678541     11.9009904660429     14.1170110375179
83 1 -0.000583386369005072  0.00760137186049114     14.6454589521631     14.1124582214164
84 1  -0.0013384542030318     1.59048007740567     15.5624207781313     11.5407325752019
85 1 -0.00126833109658406     3.17426003722437     12.8128852134407     16.6862875375578
86 1 -0.00129132383731522      1.5923215285915     11.8885594425201      19.259455670845
87 1 -0.00465086496367597   0.0106133579775347      14.639378459474     19.2560114239317
88 1 -0.00189075811877835     1.59254608084829     15.5578964141807     16.6841362752152
89 1  0.00218262045182001     3.17359084322862     12.8076121727763     21.8275940513732
90 1 -0.000761468400972696     1.59188500501617     11.8960681298652     24.3992068395045
91 1 0.000833831074298257   0.0104641237899334     14.6422443338555     24.3990672949669
92 1 0.000243849135129183     1.59349309704353     15.5554203966872     21.8270604593414
93 1 -0.000287537663467233     3.17489930044261     12.8175739923329      26.971669079526
94 1  -0.0027726291071435     1.59174808272909     11.9049293898889     29.5459706970326
95 1  0.00372694920581973  0.00949611184117607     14.6462248746637     29.5456382931257
96 1 -0.00264766694549932     1.59300140693231     15.5598361345275      26.971810876997
97 1 -0.000132316547644867     3.17512306569257     12.8181975825824     32.1189623040328
98 1 -0.000709353045371207      1.5922467788163     11.9022881030526     34.6936051397308
99 1  0.00150885393728902  0.00960677930645308        14.6435379021     34.6935549149116
100 1 -0.000170263381309608     1.59253718786104     15.5595075116918     32.1187369031894
101 1  0.00109697520110248     3.17523219236581     12.8146641973545     37.2672299983037
102 1  -0.0023196683507503     1.59408675229139     11.8974203843435     39.8443182279011
103 1 -0.000594317352620811   0.0108116009137083     14.6379424532394     39.8438052028051
104 1 -0.00257865266157369     1.59220339400741     15.5556397480035      37.266969507476
105 1 -0.000459626946561058     3.17597020023592      12.810616375605     42.4201242632899
106 1 2.74677739502978e-05     1.60350395131784     11.8851688648194     45.0072916364475
107 1  0.00185029619360109   0.0158748676125554     14.6296779058215     44.9967169564665
108 1  0.00050990622549901     1.59207149302308      15.551270738124     42.4177813338329
109 1 -0.000796059434877144     3.17348532910743     18.2973199223189     1.24179982976806
110 1 -0.000871420104188599     1.59672636960307     17.3795021507963     3.81705205127584
111 1 -0.00466497191451421   0.0165718587987754      20.121223322306     3.81536285331943
112 1  0.00144131389992139     1.59514214647413     21.0380758614476     1.24079101363769
113 1 -0.000946735084012791     3.17874916356243     18.3027881014894     6.39030950346499
114 1 -0.00425094171661547     1.59381673507383      17.390180143228     8.96528227148671
115 1 0.000933467923193727   0.0134115120245866     20.1289374495515     8.96294271328052
116 1 0.000503459333461823     1.59892037872465     21.0411359717229     6.38883732139547
117 1  0.00221759840800745     3.17777167413714     18.3039700864429     11.5375428521229
118 1 0.000853282376215731     1.59324842356855     17.3888182303009     14.1107992092724
119 1  0.00295431057868592   0.0115102201355579     20.1307960671578     14.1084910229676
120 1 -0.00123412406351158     1.59676903829164     21.0442649328327     11.5355575387481
121 1 0.000561633988551385     3.17791078023258     18.3020241941648      16.682396703174
122 1  0.00142388258634534     1.59464120560055     17.3854444083678     19.2547230301257
123 1 -0.00291524763361908    0.012985929631691     20.1296363700583      19.253502006856
124 1 0.000975679301626876     1.59649364860584     21.0444193340953     16.6810201724888
125 1 -0.00169366176441744     3.17809182877957     18.3013689194719     21.8263756028362
126 1 0.000282210114809658     1.59470439924425     17.3869106904194     24.3988608957938
127 1   0.0010495933646895   0.0131450129877582      20.130349421971     24.3990282058147
128 1 0.000894662555004716     1.59688644545613     21.0445911160612     21.8260954784299
129 1  0.00275256737935473     3.17759399013377     18.3032204569564     26.9714673446403
130 1 -0.00314058461369333     1.59381359601115      17.388569702071     29.5449849031353
131 1  0.00190662277399893   0.0119989435623055     20.1307123365841     29.5456313926776
132 1 -0.000505991511722176     1.59601535985681     21.0453022210096     26.9719175031576
133 1 -0.00104305189539108     3.17667972662618     18.3018631586105     32.1175629717704
134 1 0.000677998960355545     1.59284792997268     17.3857665053214     34.6918811507198
135 1  0.00394305350615474   0.0111454735794072     20.1277423781571     34.6924728755458
136 1 -0.00250338533259104     1.59498200769116     21.0435270545176     32.1181934232511
137 1 -0.000798508939021537     3.17447548429151     18.2983454305848     37.2639910241853
138 1   0.0025107388264037     1.59105601809828     17.3811910516917     39.8403042894791
139 1  0.00456950404358516   0.0107457763096622      20.122741041251     39.8402147120055
140 1  0.00145910717194386     1.59403779754457     21.0392098676927     37.2649287555648
141 1 0.000884504487163439     3.16872156324282     18.2970193041283     42.4131040161866
142 1 -0.000458037153164286     1.59108718070246     17.3777922014824     44.9910914912702
143 1 -0.00123899910573984   0.0120051954397419     20.1203585808935     44.9896152565924
144 1  0.00168740312764516     1.59175135034027     21.0378212363983     42.4136098456151
145 1 -0.00137685991908223     3.18035773113635     23.7831177498194     1.23912187925605
146 1 0.000546596342411868     1.60173643347363     22.8667428600629     3.81373433341618
147 1 -0.00289389953813685   0.0232226957404892     25.6079132095638     3.81252609005713
148 1  0.00181758377901194      1.6005188420521     26.5240571084743     1.23768575334833
149 1 -0.00421791558323306     3.18558931060476     23.7840589978972     6.38677511690011
150 1 0.000461419492565729     1.60159941848877     22.8706651081882     8.96159492843504
151 1 -0.00149985068824836   0.0240186465837692     25.6116395706977     8.96076872949221
152 1  0.00319793350062798     1.60669859208038     26.5256201302131     6.38541929000967
153 1  0.00293275501442713      3.1842301113548     23.7862993395477      11.534090706209
154 1 -0.00394782748076951     1.59913270229091      22.872653674218     14.1077650484677
155 1  0.00042966213713677   0.0190505306875371     25.6142594239889     14.1075335426886
156 1 -0.000581189170744218     1.60457892574032     26.5279406219053     11.5334274705532
157 1  -0.0021867833213431      3.1828445822841     23.7873864968181     16.6802397298268
158 1   0.0042877751053127      1.5988419363862     22.8729071083407     19.2532926623057
159 1   0.0014334034967734    0.017674523143322     25.6148770489306     19.2534169559402
160 1 -0.00244361989497417     1.60180594783569     26.5292029547942     16.6798976866311
161 1 -0.000118097214979499     3.18221186896912     23.7882474615146     21.8258307788567
162 1 0.000152967236771043     1.59813622498362     22.8735009673049     24.3989653378268
163 1 -0.000951614612066521   0.0163961043960861     25.6155173817629      24.399685439205
164 1 -0.000344195819021813     1.60052738947182     26.5301584869899     21.8258380676769
165 1 -0.00157634424806034     3.18091498696406      23.788127740042     26.9715160172099
166 1 0.000552614534144228     1.59678009504941     22.8729904176844      29.545130568574
167 1 -3.5856478976139e-05   0.0146480636664739      25.615108795176     29.5460748417686
168 1 -0.000142377894545706     1.59884490713993      26.529994268804     26.9715051793004
169 1 -0.00162891150015885     3.18036784542814     23.7851023766535      32.117511805894
170 1 0.000828348899830649     1.59642845887248     22.8691177699143     34.6916136942983
171 1  0.00148607306677025   0.0152352741998084     25.6103732108163     34.6925093113384
172 1 -0.00184021151783396     1.59902012297277     26.5261001766298     32.1165476295422
173 1 0.000361730157189219     3.18053887883987     23.7802801838768     37.2645189725297
174 1 -0.00115447148354645     1.59616320411894     22.8646410427551     39.8391770684985
175 1   0.0030661468784103   0.0159772746434586      25.600743221427     39.8407558971572
176 1 -0.00109292800527661     1.60145419034561     26.5171362021894     37.2643440563503
177 1  0.00243623812791109     3.17722969522484     23.7821773789303     42.4124834798942
178 1 -0.00288412967357415      1.5958651761167     22.8658703689448     44.9880375738728
179 1  0.00284670634374073   0.0160162938765353     25.6055310186137     44.9888967323936
180 1 -0.00169659861978194     1.59650296156658     26.5208029691664     42.4128594099944
181 1  0.00103846364212881     3.18222088637035     29.2672671178451       1.233655725987
182 1  -0.0021047032243897     1.60365096557033     28.3526959906343        3.80967784119
183 1  0.00307253410433546   0.0181531719900029     31.0939766277136     3.80732498680143
184 1  -0.0016719650617506     1.59541756971647     32.0080943576731     1.22733730459139
185 1 -0.00101776983895473     3.18854683019138      29.268872115926     6.38208102695443
186 1 -0.00213340378328583     1.60831229889507      28.355161416379     8.95812869569694
187 1  0.00146691818281789   0.0250850675250345     31.0977300765608     8.95675410543137
188 1 -0.000854063920565161     1.60389450128526     32.0103315396704     6.37931223891812
189 1 -0.00209943564030676     3.18944310144937      29.270944706008     11.5309713567317
190 1  0.00348791809635331     1.60539750722859     28.3568888998556      14.106243268275
191 1 0.000555560824704259   0.0233097768826493     31.0991273049013     14.1054021222337
192 1 0.000714231018224908     1.60690520171644     32.0130285479062     11.5291451991769
193 1 -0.00117000889984914     3.18704823104491     29.2724701271322     16.6784863514861
194 1 0.000197133711115335     1.60302252027793     28.3580078648318     19.2525958200167
195 1  0.00257133235386461   0.0208443367730688     31.0998084085414     19.2520977638748
196 1 -0.00236095216802905     1.60462748281272     32.0143123665651     16.6771236650473
197 1 0.000335806144155379     3.18493486648227     29.2739293611838     21.8247277237074
198 1 -0.000479655921256766     1.60076116468225     28.3587594809758     24.3983165559067
199 1 0.000875194072958764   0.0181175735296382     31.1010369807479     24.3981034352737
200 1  0.00171257117254012     1.60194947142088     32.0161457524648     21.8236654924565
201 1  0.00179019314719145     3.18246456134861     29.2736821768595     26.9697615564451
202 1 0.000269805539292987     1.59945109342682     28.3571804162676     29.5425762417384
203 1   0.0015351195648358   0.0159633976731228     31.1008879511991     29.5419703047619
204 1  0.00175709600750459     1.59879320098157     32.0172373330929     26.9684825556793
205 1  0.00201389256775771     3.18357547104448     29.2701494619893     32.1139957177927
206 1 -0.000800345844651295      1.6047635406027     28.3483220634606      34.686335666941
207 1  0.00199782727161654   0.0339961590540784     31.0880013714277     34.6674655111015
208 1  0.00271592290595078     1.60214460573621     32.0154321487078     32.1075131188836
209 1  0.00257727754303849     3.18645308146283     29.2624340966105     37.2616601074904
210 1  0.00167435738145542     1.59927170233903     28.3450554704836     39.8376132190091
211 1 -0.00446230613942078  0.00365843036022553     31.0780965335017     39.8253330329523
212 1 -0.00326053178755202     1.60983277253881     32.0019673798535     37.2510029370749
213 1   0.0029422863703968      3.1771638853924     29.2647438352342     42.4091113034177
214 1  0.00217185665208206     1.59644188627386     28.3509354699552     44.9849152717578
215 1 -0.00101219843175946  0.00702339529593886     31.0915492908535     44.9780981717677
216 1  0.00487581635839277     1.58056013835437     32.0015454413765     42.3982952108287
217 1 -0.000476973006859681     3.17503943390587     34.7478742253413     1.22224885416716
218 1  0.00104844604645896     1.59821174417132     33.8359513187671     3.80101089598074
219 1 5.65252156266332e-05   0.0135206764041403      36.574972464637     3.79915717488995
220 1  0.00272999866649466     1.59127813982557     37.4866072091067     1.22016545370971
221 1  0.00161486216754611       3.184524618795     34.7519881235239     6.37530835013407
222 1 -0.00394569106693224     1.60465518702177     33.8395539466199     8.95219626348339
223 1  0.00324210446645203   0.0193726521552814     36.5800879161424      8.9499183360283
224 1 -0.00207308924022383     1.59954380563788      37.491865933977     6.37308654259053
225 1  0.00192367528150597     3.18787552867371     34.7551316761427     11.5253794814221
226 1 -0.00115162909151807     1.60515925889943     33.8416088421338     14.1012930140224
227 1  0.00198948433764442   0.0209023962459261     36.5830673934832     14.0987474087807
228 1  0.00151867477873122      1.6032058151863     37.4960700742948     11.5226519673056
229 1 -0.000225189047898905     3.18676532931467      34.757319291128     16.6739376543826
230 1  0.00151723260469699     1.60319310868035     33.8433936286453     19.2488652046148
231 1  0.00206016592849922   0.0197453064962733     36.5854553174359     19.2466587615646
232 1 -0.00232327005188015     1.60261700599925     37.4989993783769     16.6713232221051
233 1 -0.00305200973062942     3.18321475625952     34.7607580648262     21.8210760515479
234 1 -0.00112165673621488     1.59934316987886     33.8459549705415      24.395030426343
235 1 -0.000189906174634013   0.0152690767059288       36.59030872622     24.3931519360683
236 1 0.000666273266661039     1.59879964382857     37.5045943121342     21.8188606118665
237 1  0.00368940070274401     3.17873952644815     34.7628747170321     26.9664293593238
238 1 -0.00539510717493153     1.59673446452487     33.8464873133967     29.5379221057265
239 1  0.00233384523863296   0.0109186303557775     36.5917287894639     29.5355902097191
240 1 -0.000810721028018556     1.59367804334226      37.508756728777     26.9638185243212
241 1 -0.000262377829611874     3.17906993348278     34.7606644473402     32.1108816202907
242 1 -0.000838231911967205     1.59738236263449     33.8404580410951     34.6792830251418
243 1 -0.00287118478234735  0.00814192061808116     36.5903058763525     34.6767546321497
244 1 -0.000122475176882197     1.59306935761803     37.5058030220079     32.1075734300477
245 1  0.00023844750664667     3.16512949290679     34.7499768237042     37.2573338305547
246 1 -0.000155520686895077     1.53371173162061     33.8220599939199     39.8141043405864
247 1 -0.00478007005327954      47.460579108731      36.536830476655     39.8120800079075
248 1  0.00138429609356289     1.58168173139017     37.4898983407068     37.2543653145751
249 1 -0.00193324241438076     3.15034879769355     34.7408631158713     42.3917172947659
250 1 0.000899748676769538      1.5799501016552     33.8331596914829     44.9621458415958
251 1 -0.00085815878403843 0.000649670628814785      36.564715918641        44.9603681922
252 1 -0.00168589417769578     1.57062852672163     37.4738691240677     42.3894027144304
253 1 -5.41472603882281e-05     3.17616194821915     40.2301185221184     1.22197174514091
254 1 -0.00179942238578086     1.59644714853344     39.3169963761668     3.79676994156619
255 1 -0.00379858105917265    0.012690449287122     42.0576057473298     3.79761604119751
256 1 -0.000723774568607421     1.59412516014228     42.9715049897874     1.22292421279028
257 1 0.000956041910905044     3.18177118218805      40.234395079852     6.37101107796339
258 1 -0.000572105917082388     1.60083037482055     39.3217515529407     8.94639693982719
259 1 7.21742684267599e-05   0.0158439220816669     42.0620835266288     8.94514948623027
260 1  0.00172943114606126     1.59744954454778     42.9744626398048     6.37057825380899
261 1  0.00128520463886874     3.18434109292854     40.2383236528453     11.5194970548145
262 1 -0.00305470721700929     1.60192958810432     39.3252246474968     14.0950108543279
263 1 0.000628586053908074   0.0171614629613841     42.0661437291363       14.09272012712
264 1  0.00234020592561731     1.59947181922629     42.9789019323263     11.5177383642747
265 1  0.00258140649343213     3.18310374017045     40.2417091436945     16.6678562220555
266 1  0.00219471093719751     1.59949541657908     39.3295744381868     19.2434115848474
267 1 -0.00110876430652143   0.0153892615399015     42.0716679180957     19.2414078168817
268 1 0.000600323121737593     1.59871116334195     42.9824246637062     16.6655534797686
269 1 -0.000654810385165706     3.17721511556478     40.2502446940605     21.8161330937715
270 1 6.12914699434817e-05     1.59348919683704     39.3380053987796     24.3900229528664
271 1 0.000641629072815908   0.0091931461847343     42.0857464000904     24.3871905550997
272 1 -0.00339335283604811     1.59333070949421     42.9957075869568      21.814229291777
273 1  0.00129542388501148     3.17257461626088     40.2563504991533      26.961181269511
274 1 -0.000582321050143932     1.59047834106953     39.3373027077891     29.5339327110491
275 1 -0.00230533275349648  0.00518137407082277     42.0818480211899      29.529458047933
276 1  0.00160014478554132     1.58839476181132     43.0055373177227     26.9554648609796
277 1 -0.000195097764476228     3.17355987951834     40.2491211689964     32.1066955179571
278 1 -0.000872109795658173     1.58964171579153      39.330261766573     34.6802176934386
279 1 -0.00320443242848204  0.00628021660482201     42.0749777600061     34.6763877896162
280 1  0.00187389436279089     1.58913983047736     42.9925710788279     32.1012814715369
281 1 -0.00180739554120215     3.16949725626246     40.2359551389006     37.2540988230853
282 1 -0.00138764849853775     1.57784445594417     39.3069015929913     39.8247048212753
283 1 -0.000526941976405747   0.0055034972808563     42.0609582233558     39.8256475190239
284 1   4.684990124879e-05     1.58972145554149     42.9817704742003     37.2508091646826
285 1   0.0021399154800811     3.16691129662643     40.2255479908893     42.3972916084775
286 1 0.000811269819966239     1.58827605461684     39.3109648255869     44.9686147917785
287 1 0.000389274637293198  0.00875232039856427     42.0562382256703     44.9723628232193
288 1 0.000142495262424853     1.58994001789721     42.9720329686276     42.3984338737133
289 1  0.00162292467971709     3.17808380383118     45.7142871545103     1.22242604794897
290 1 -0.00169300422962788     1.59586502182531     44.8002459700568     3.79680914743418
291 1 -0.00293862104657524   0.0104470888354433     47.5400252446702     3.79851524731684
292 1   -0.002010073985966     1.59385927099548     48.4535672311428     1.22358029129572
293 1 0.000619992547219701     3.17985445456193     45.7176362600155     6.36994076291144
294 1 0.000540011914700023     1.59767976440151     44.8047886377882     8.94365228115042
295 1 -0.000999839046942525    0.011737434541298      47.545175819924     8.94533348165545
296 1 0.000239668385798553     1.59378142827401     48.4559843063672     6.37222961624621
297 1 -0.00104786056357212     3.18080505124853     45.7220993394699     11.5155488948814
298 1 0.000135923548289044     1.59799306137161     44.8081445216218     14.0897752533248
299 1 0.000486795855084377   0.0122128839687415     47.5487392847003     14.0889448483074
300 1 0.000208624591750528     1.59524443720842     48.4630037364639     11.5176758388789
301 1  0.00297033357649566     3.17994178682953      45.723151784364     16.6611468591305
302 1  0.00154533299099693     1.59462883707553     44.8144817493051     19.2378900056984
303 1 -0.000278580489130566  0.00556311780959655     47.5510590504988     19.2320211859043
304 1  0.00133843101637675     1.59448494299495     48.4621979955161     16.6584969202875
305 1 0.000912381323540361     3.17264324774826     45.7410209395806      21.809969611354
306 1  0.00120472017174419     1.58810399836344     44.8427684730905     24.3814288874073
307 1 -0.00445769165709784   0.0183807976621253     47.6143777469347     24.3673736965817
308 1 -0.00218457801075891     1.58971935497998     48.4874834549318     21.7908696436754
309 1 -0.000118201094212853     3.16712551336319     45.7593729701624     26.9450080847182
310 1  0.00143869523424477     1.58791780639991     44.8279082747346     29.5225710988838
311 1 -0.00248195099510056  0.00850340457608731     47.5700498760877     29.5136216151034
312 1 -0.00183631673317766     1.58766363776662     48.5302422113718     26.9047488313389
313 1   6.579000571198e-05     3.17247420702486     45.7344914915687     32.0968558101562
314 1  0.00167720858202229     1.59001463950279     44.8149546076609     34.6739466016873
315 1 -0.000306782937505978  0.00671304369117231     47.5541510073712     34.6741238900749
316 1 0.000640522426717437     1.58927320760867     48.4727720444444     32.0965860756868
317 1 -0.00152731221124509     3.17402383721704     45.7230397493241     37.2493291652417
318 1  0.00364883049808754     1.59101531525315     44.8042353074179     39.8244013912567
319 1  -0.0036859014750473  0.00889453234167419     47.5468126166584     39.8252216336879
320 1 -0.00374634382072838     1.59120151906751     48.4639924292908     37.2503294758124
321 1 -0.00135602436232441     3.17542961479413     45.7162293809655     42.3976608653455
322 1 -1.16591187559495e-05     1.59354925604845     44.7999274748474     44.9718545887854
323 1 0.000755345554799852   0.0106623041335524     47.5420538825039      44.973112704284
324 1  0.00180546983478488     1.59319101669424     48.4583898061912     42.3987617094872
325 1 -0.00417935490376749     6.34733924853018     1.83859181795553     1.21804123489232
326 1  0.00381540589497865     4.76129094142079    0.922563954656995     3.79554471120553
327 1 -0.000360020212537614     3.16957800422481     3.64695589820898     3.79553480235379
328 1 -0.00139320571557855     4.76362006468699     4.56432232463756     1.20557727811233
329 1 -0.00191855480982255      6.3392744146424     1.85354468332437     6.36816690618817
330 1  -0.0027736533889854     4.75861144919798    0.935095533550443     8.94327876523972
331 1 0.000192505986668177     3.17001343163031     3.67364481984754     8.95077617911803