LAMMPS (27 Jun 2024)
OMP_NUM_THREADS environment is not set. Defaulting to 1 thread. (src/comm.cpp:98)
  using 1 OpenMP thread(s) per MPI task
Reading data file ...
  orthogonal box = (0 0 0) to (67.266653 66.57672 40.643788)
  5 by 2 by 2 MPI processor grid
  reading atoms ...
  8064 atoms
  read_data CPU = 0.045 seconds
**************** Begin of POD Potentials ****************
species: Hf 
periodic boundary conditions: 1 1 1
number of environment clusters: 8
number of principal compoments: 2
inner cut-off radius: 1
outer cut-off radius: 5
cut-off function type: 1
gaussian_exponents: 
polynomial_degrees: 
bessel polynomial degree: 4
inverse polynomial degree: 10
one-body potential: 1
two-body radial basis functions: 8
three-body radial basis functions: 8
three-body angular degree: 6
four-body radial basis functions: 7
four-body angular degree: 5
five-body radial basis functions: 0
five-body angular degree: 0
six-body radial basis functions: 0
six-body angular degree: 0
seven-body radial basis functions: 0
seven-body angular degree: 0
number of local descriptors per element for one-body potential: 1
number of local descriptors per element for two-body potential: 8
number of local descriptors per element for three-body potential: 56
number of local descriptors per element for four-body potential: 112
number of local descriptors per element for five-body potential: 0
number of local descriptors per element for six-body potential: 0
number of local descriptors per element for seven-body potential: 0
number of local descriptors per element for all potentials: 177
number of global descriptors: 1409
**************** End of POD Potentials ****************

**************** Begin of Model Coefficients ****************
total number of coefficients for POD potential: 1409
total number of elements for PCA projection matrix: 352
total number of elements for PCA centroids: 16
**************** End of Model Coefficients ****************


CITE-CITE-CITE-CITE-CITE-CITE-CITE-CITE-CITE-CITE-CITE-CITE-CITE

Your simulation uses code contributions which should be cited:
- Type Label Framework: https://doi.org/10.1021/acs.jpcb.3c08419
The log file lists these citations in BibTeX format.

CITE-CITE-CITE-CITE-CITE-CITE-CITE-CITE-CITE-CITE-CITE-CITE-CITE

Neighbor list info ...
  update: every = 1 steps, delay = 0 steps, check = no
  max neighbors/atom: 2000, page size: 100000
  master list distance cutoff = 7
  ghost atom cutoff = 7
  binsize = 3.5, bins = 20 20 12
  1 neighbor lists, perpetual/occasional/extra = 1 0 0
  (1) pair pod, perpetual
      attributes: full, newton on
      pair build: full/bin/atomonly
      stencil: full/bin/3d
      bin: standard
Setting up Verlet run ...
  Unit style    : metal
  Current step  : 0
  Time step     : 0.001
Per MPI rank memory allocation (min/avg/max) = 2.639 | 2.64 | 2.64 Mbytes
   Step          Temp          TotEng         PotEng         KinEng         Press          Volume    
         0   300           -58170.713     -58483.381      312.66736      27705.687      182018.86    
       100   316.06051     -58216.32      -58545.726      329.40602      9841.8781      182018.86    
       200   243.19907     -58230.691     -58484.159      253.46804      10707.092      182018.86    
       300   340.28294     -58217.358     -58572.009      354.65124      9324.8143      182018.86    
       400   345.3913      -58258.864     -58618.839      359.9753       9231.9918      182018.86    
       500   336.11024     -58294.254     -58644.556      350.30235      8452.209       182018.86    
       600   297.53426     -58314.387     -58624.484      310.09751      8367.9196      182018.86    
       700   286.20457     -58322.445     -58620.734      298.28943      9044.3543      182018.86    
       800   299.51572     -58322.24      -58634.402      312.16263      8589.9644      182018.86    
       900   295.74373     -58319.188     -58627.419      308.23138      8384.6315      182018.86    
      1000   313.97808     -58310.435     -58637.671      327.23566      8352.5284      182018.86    
      1100   297.93291     -58308.301     -58618.814      310.51299      8803.3187      182018.86    
      1200   306.85085     -58309.643     -58629.451      319.80749      8680.2833      182018.86    
      1300   289.97848     -58318.272     -58620.494      302.22269      8452.2114      182018.86    
      1400   300.2031      -58319.68      -58632.559      312.87905      8510.2882      182018.86    
      1500   292.5646      -58321.226     -58626.144      304.91801      8574.3586      182018.86    
      1600   315.53988     -58311.825     -58640.688      328.86341      8446.7523      182018.86    
      1700   290.54103     -58312.599     -58615.408      302.80899      8814.7255      182018.86    
      1800   301.07806     -58308.122     -58621.913      313.79094      8838.7902      182018.86    
      1900   301.84334     -58314.746     -58629.335      314.58854      8870.7787      182018.86    
      2000   294.55245     -58321.26      -58628.25       306.98979      8477.4363      182018.86    
      2100   311.64898     -58317.671     -58642.479      324.80822      8514.2771      182018.86    
      2200   286.65216     -58319.147     -58617.903      298.75591      8580.5796      182018.86    
      2300   306.92793     -58308.724     -58628.612      319.88782      8768.1431      182018.86    
      2400   294.08321     -58312.424     -58618.925      306.50074      8851.6643      182018.86    
      2500   306.8648      -58312.297     -58632.119      319.82202      8709.0969      182018.86    
      2600   299.86747     -58316.329     -58628.858      312.52924      8585.9642      182018.86    
      2700   297.96468     -58319.677     -58630.223      310.5461       8580.1078      182018.86    
      2800   295.37169     -58318.555     -58626.398      307.84363      8726.448       182018.86    
      2900   301.84787     -58315.329     -58629.922      314.59326      8598.921       182018.86    
      3000   299.53639     -58313.126     -58625.31       312.18418      8681.1027      182018.86    
      3100   305.99264     -58310.804     -58629.717      318.91304      8802.9096      182018.86    
      3200   296.54753     -58316.075     -58625.144      309.06912      8770.7008      182018.86    
      3300   301.52475     -58316.88      -58631.136      314.2565       8693.5719      182018.86    
      3400   295.03043     -58319.154     -58626.642      307.48795      8599.6557      182018.86    
      3500   301.6819      -58317.909     -58632.33       314.42028      8556.735       182018.86    
      3600   295.88738     -58316.761     -58625.142      308.3811       8658.1499      182018.86    
      3700   303.86158     -58311.556     -58628.248      316.692        8753.1729      182018.86    
      3800   302.29365     -58310.327     -58625.385      315.05786      8700.0484      182018.86    
      3900   305.06196     -58313.885     -58631.828      317.94307      8660.1129      182018.86    
      4000   292.70449     -58319.959     -58625.022      305.0638       8799.5195      182018.86    
      4100   300.78211     -58317.692     -58631.174      313.4825       8564.8325      182018.86    
      4200   302.30961     -58314.899     -58629.974      315.0745       8583.0778      182018.86    
      4300   295.63369     -58315.227     -58623.344      308.11669      8901.6274      182018.86    
      4400   307.42733     -58311.581     -58631.989      320.40831      8845.8571      182018.86    
      4500   299.35845     -58314.797     -58626.796      311.99872      8595.5453      182018.86    
      4600   296.1335      -58318.234     -58626.872      308.6376       8693.4727      182018.86    
      4700   302.12843     -58316.32      -58631.206      314.88567      8899.6969      182018.86    
      4800   295.75234     -58317.275     -58625.515      308.24035      8598.2015      182018.86    
      4900   303.2603      -58315.204     -58631.269      316.06533      8653.7266      182018.86    
      5000   301.42869     -58312.792     -58626.949      314.15638      8854.1302      182018.86    
      5100   300.57357     -58310.678     -58623.943      313.26515      8740.5501      182018.86    
      5200   306.48317     -58312.297     -58631.721      319.42428      8694.3987      182018.86    
      5300   294.17841     -58319.629     -58626.229      306.59996      8843.4781      182018.86    
      5400   298.77742     -58319.383     -58630.776      311.39317      8734.1794      182018.86    
      5500   298.77901     -58317.511     -58628.906      311.39482      8729.6357      182018.86    
      5600   304.57705     -58310.474     -58627.911      317.43768      8875.5292      182018.86    
      5700   302.20172     -58311.897     -58626.859      314.96205      8797.4247      182018.86    
      5800   300.62921     -58314.278     -58627.601      313.32315      8745.7638      182018.86    
      5900   294.31477     -58316.73      -58623.473      306.74208      8800.9812      182018.86    
      6000   307.35134     -58315.012     -58635.341      320.32911      8802.1171      182018.86    
      6100   293.65805     -58321.809     -58627.866      306.05763      8709.7113      182018.86    
      6200   301.78853     -58322.217     -58636.748      314.53142      8727.0908      182018.86    
      6300   296.41442     -58318.532     -58627.462      308.93038      8756.9508      182018.86    
      6400   302.45241     -58312.521     -58627.744      315.22332      8730.5822      182018.86    
      6500   295.77786     -58313.767     -58622.034      308.26695      8919.4666      182018.86    
      6600   307.24867     -58313.067     -58633.289      320.2221       8929.2512      182018.86    
      6700   297.88529     -58319.524     -58629.987      310.46336      8689.7761      182018.86    
      6800   298.09146     -58319.009     -58629.687      310.67824      8829.636       182018.86    
      6900   299.92831     -58316.799     -58629.392      312.59264      8839.5586      182018.86    
      7000   294.61463     -58317.518     -58624.572      307.05459      8875.4424      182018.86    
      7100   308.75096     -58311.031     -58632.818      321.78783      8844.2071      182018.86    
      7200   301.0461      -58307.076     -58620.833      313.75764      8891.225       182018.86    
      7300   304.3643      -58308.853     -58626.069      317.21594      8879.9706      182018.86    
      7400   298.21684     -58313.772     -58624.581      310.80891      8860.9835      182018.86    
      7500   302.90846     -58314.442     -58630.141      315.69864      8843.2379      182018.86    
      7600   302.14062     -58317.183     -58632.081      314.89837      8840.9299      182018.86    
      7700   297.97093     -58321.465     -58632.018      310.55262      8576.9329      182018.86    
      7800   296.46587     -58320.904     -58629.888      308.984        8705.692       182018.86    
      7900   302.19838     -58314.371     -58629.33       314.95857      8964.0146      182018.86    
      8000   301.13405     -58314.086     -58627.935      313.8493       8844.501       182018.86    
      8100   299.71031     -58313.526     -58625.891      312.36545      8838.7588      182018.86    
      8200   303.6122      -58315.16      -58631.592      316.43209      8794.2004      182018.86    
      8300   298.48632     -58319.926     -58631.015      311.08978      8750.9782      182018.86    
      8400   298.64652     -58319.444     -58630.701      311.25674      8867.125       182018.86    
      8500   299.38581     -58317.361     -58629.388      312.02724      8849.7894      182018.86    
      8600   302.44216     -58311.541     -58626.753      315.21265      8914.1502      182018.86    
      8700   304.86359     -58307.032     -58624.768      317.73632      8945.8926      182018.86    
      8800   303.41158     -58310.73      -58626.953      316.223        8789.2242      182018.86    
      8900   294.50663     -58318.762     -58625.704      306.94204      8828.8514      182018.86    
      9000   301.35019     -58316.921     -58630.996      314.07456      8924.8956      182018.86    
      9100   298.40595     -58316.356     -58627.362      311.00601      8989.5116      182018.86    
      9200   302.99153     -58313.55      -58629.335      315.78521      8929.0481      182018.86    
      9300   299.32006     -58313.821     -58625.78       311.95872      8896.8438      182018.86    
      9400   300.07001     -58317.629     -58630.37       312.74034      8877.3974      182018.86    
      9500   297.55162     -58321.652     -58631.768      310.1156       8787.7297      182018.86    
      9600   298.90097     -58319.011     -58630.533      311.52193      8835.8927      182018.86    
      9700   304.81107     -58311.631     -58629.312      317.68159      8877.8293      182018.86    
      9800   303.40819     -58311.305     -58627.525      316.21946      8961.1245      182018.86    
      9900   298.95043     -58314.904     -58626.478      311.57348      8918.0309      182018.86    
     10000   300.32279     -58316.116     -58629.12       313.00378      8787.7111      182018.86    
     10100   299.43101     -58317.748     -58629.822      312.07434      8816.3124      182018.86    
     10200   299.17434     -58317.372     -58629.179      311.80684      8834.5446      182018.86    
     10300   304.16014     -58315.342     -58632.346      317.00317      8801.1881      182018.86    
     10400   300.01186     -58316.355     -58629.035      312.67972      8980.7567      182018.86    
     10500   297.46912     -58316.64      -58626.67       310.02962      8878.7258      182018.86    
     10600   303.97298     -58311.334     -58628.142      316.8081       8841.0494      182018.86    
     10700   298.3359      -58309.335     -58620.268      310.93299      8959.9253      182018.86    
     10800   309.46043     -58308.72      -58631.248      322.52726      8880.7539      182018.86    
     10900   298.85444     -58315.986     -58627.46       311.47343      8910.9489      182018.86    
     11000   298.73616     -58317.357     -58628.707      311.35016      8892.3512      182018.86    
     11100   300.03627     -58317.47      -58630.175      312.70516      8888.1298      182018.86    
     11200   297.77438     -58318.832     -58629.18       310.34777      8807.0432      182018.86    
     11300   298.70987     -58319.594     -58630.917      311.32276      8963.4331      182018.86    
     11400   295.10608     -58318.937     -58626.504      307.5668       8931.875       182018.86    
     11500   306.68671     -58312.678     -58632.315      319.63642      8800.1178      182018.86    
     11600   302.49421     -58313.018     -58628.285      315.26689      8988.3766      182018.86    
     11700   300.85004     -58316.079     -58629.632      313.55329      8973.0187      182018.86    
     11800   295.78736     -58322.399     -58630.676      308.27685      8871.6884      182018.86    
     11900   298.11408     -58323.968     -58634.669      310.70181      8816.8408      182018.86    
     12000   296.12026     -58320.578     -58629.202      308.6238       8806.7433      182018.86    
     12100   298.36127     -58312.21      -58623.169      310.95944      8923.8887      182018.86    
     12200   303.93962     -58312.16      -58628.933      316.77333      8987.5155      182018.86    
     12300   300.75768     -58317.432     -58630.889      313.45704      8901.9983      182018.86    
     12400   301.59778     -58319.756     -58634.088      314.33261      8928.1556      182018.86    
     12500   294.78578     -58321.863     -58629.096      307.23298      8823.916       182018.86    
     12600   297.25185     -58318.159     -58627.962      309.80318      8948.0588      182018.86    
     12700   304.46179     -58312.617     -58629.934      317.31755      8836.7825      182018.86    
     12800   300.27406     -58313.278     -58626.231      312.953        8932.1516      182018.86    
     12900   300.81893     -58314.363     -58627.884      313.52087      8992.3647      182018.86    
     13000   296.34744     -58320.353     -58629.214      308.86057      8846.1744      182018.86    
     13100   296.06962     -58324.583     -58633.154      308.57102      8767.8219      182018.86    
     13200   300.63389     -58321.835     -58635.163      313.32802      8823.3426      182018.86    
     13300   300.1577      -58318.619     -58631.45       312.83172      8890.6924      182018.86    
     13400   300.16476     -58316.849     -58629.688      312.83908      8778.2685      182018.86    
     13500   297.89491     -58315.93      -58626.403      310.47339      8930.029       182018.86    
     13600   302.18551     -58313.543     -58628.488      314.94516      9018.4106      182018.86    
     13700   299.11325     -58312.687     -58624.43       311.74318      8979.8308      182018.86    
     13800   307.95632     -58311.046     -58632.005      320.95963      8929.8365      182018.86    
     13900   300.07239     -58316.102     -58628.845      312.74281      8908.2357      182018.86    
     14000   297.28025     -58318.54      -58628.372      309.83277      8853.6889      182018.86    
     14100   296.53213     -58320.277     -58629.33       309.05307      8909.2437      182018.86    
     14200   299.22742     -58318.697     -58630.559      311.86216      8911.8479      182018.86    
     14300   302.12569     -58313.688     -58628.571      314.88281      8879.8362      182018.86    
     14400   302.13894     -58312.068     -58626.964      314.89662      8982.0608      182018.86    
     14500   301.21461     -58313.687     -58627.621      313.93326      8903.9305      182018.86    
     14600   298.32632     -58319.957     -58630.88       310.92302      8806.7455      182018.86    
     14700   299.10886     -58322.221     -58633.96       311.7386       8884.7825      182018.86    
     14800   296.45158     -58320.137     -58629.106      308.96911      8910.5047      182018.86    
     14900   302.60315     -58313.033     -58628.413      315.38043      8959.9926      182018.86    
     15000   300.50602     -58313.096     -58626.291      313.19475      8938.8552      182018.86    
     15100   301.87759     -58315.351     -58629.975      314.62424      8948.8835      182018.86    
     15200   297.49122     -58320.038     -58630.091      310.05265      8810.1991      182018.86    
     15300   299.01305     -58320.077     -58631.715      311.63874      8815.6547      182018.86    
     15400   301.78415     -58314.374     -58628.901      314.52685      8946.1531      182018.86    
     15500   299.97842     -58309.236     -58621.88       312.64488      9085.4903      182018.86    
     15600   301.89714     -58310.187     -58624.832      314.64461      9020.008       182018.86    
     15700   302.43426     -58315.406     -58630.611      315.20441      8911.3391      182018.86    
     15800   298.3682      -58317.884     -58628.85       310.96666      8891.109       182018.86    
     15900   298.60747     -58317.172     -58628.388      311.21603      8918.2975      182018.86    
     16000   295.06497     -58316.327     -58623.851      307.52396      8964.4637      182018.86    
     16100   308.27246     -58310.768     -58632.057      321.28913      8972.9884      182018.86    
     16200   301.05974     -58312.398     -58626.169      313.77185      8955.1802      182018.86    
     16300   299.32342     -58319.437     -58631.4        311.96221      8847.6955      182018.86    
     16400   298.18815     -58323.132     -58633.911      310.77901      8903.9286      182018.86    
     16500   300.00735     -58320.115     -58632.79       312.67503      8883.4757      182018.86    
     16600   300.32125     -58316.21      -58629.212      313.00218      9013.1936      182018.86    
     16700   300.28838     -58314.907     -58627.875      312.96792      8898.4784      182018.86    
     16800   300.73482     -58314.402     -58627.835      313.43321      8923.6781      182018.86    
     16900   299.79812     -58315.684     -58628.141      312.45697      8812.0285      182018.86    
     17000   302.52085     -58315.796     -58631.091      315.29466      8874.9761      182018.86    
     17100   301.79039     -58316.187     -58630.721      314.53335      8911.4039      182018.86    
     17200   297.3214      -58319.042     -58628.918      309.87566      8910.0374      182018.86    
     17300   295.17508     -58322.595     -58630.234      307.63872      8846.2382      182018.86    
     17400   298.55708     -58319.635     -58630.798      311.16351      8872.3775      182018.86    
     17500   299.9268      -58313.831     -58626.422      312.59108      8929.5417      182018.86    
     17600   307.27387     -58310.219     -58630.467      320.24837      8950.9195      182018.86    
     17700   296.68908     -58314.069     -58623.285      309.21664      8967.2446      182018.86    
     17800   300.32705     -58315.673     -58628.681      313.00823      8868.5567      182018.86    
     17900   299.06033     -58317.582     -58629.27       311.68801      8909.6127      182018.86    
     18000   302.3511      -58316.801     -58631.918      315.11774      8903.6548      182018.86    
     18100   299.76094     -58316.79      -58629.208      312.41821      8913.0537      182018.86    
     18200   297.40706     -58316.647     -58626.612      309.96494      8977.4985      182018.86    
     18300   303.67471     -58312.425     -58628.922      316.49724      8981.4082      182018.86    
     18400   300.51388     -58311.732     -58624.935      313.20294      9013.2085      182018.86    
     18500   300.76479     -58315.101     -58628.566      313.46445      8992.3073      182018.86    
     18600   296.91866     -58321.336     -58630.792      309.45592      8901.9986      182018.86    
     18700   296.92918     -58322.933     -58632.4        309.46689      8851.0702      182018.86    
     18800   299.38106     -58320.032     -58632.055      312.02229      8869.9685      182018.86    
     18900   295.76946     -58318.754     -58627.012      308.25819      8899.7382      182018.86    
     19000   301.54021     -58315.651     -58629.924      314.2726       8955.5686      182018.86    
     19100   298.61011     -58315.634     -58626.853      311.21879      9017.3867      182018.86    
     19200   302.90767     -58314.998     -58630.696      315.69781      8762.5493      182018.86    
     19300   299.60744     -58315.405     -58627.663      312.25823      8854.8305      182018.86    
     19400   296.42432     -58317.954     -58626.895      308.9407       8969.4307      182018.86    
     19500   300.64657     -58320.164     -58633.505      313.34124      8786.604       182018.86    
     19600   299.62379     -58321.047     -58633.322      312.27527      8823.5661      182018.86    
     19700   299.09777     -58315.599     -58627.326      311.72704      8916.1445      182018.86    
     19800   300.80963     -58311.534     -58625.045      313.51118      9044.0833      182018.86    
     19900   301.66308     -58312.296     -58626.697      314.40067      8893.2835      182018.86    
     20000   300.32498     -58316.405     -58629.411      313.00607      8908.6815      182018.86    
     20100   297.96635     -58319.563     -58630.111      310.54785      8811.4554      182018.86    
     20200   302.55009     -58318.681     -58634.006      315.32514      8851.1277      182018.86    
     20300   296.16356     -58319.732     -58628.401      308.66893      8907.042       182018.86    
     20400   299.83001     -58316.264     -58628.754      312.4902       8875.8621      182018.86    
     20500   301.4219      -58312.116     -58626.265      314.1493       8923.3         182018.86    
     20600   300.89974     -58310.753     -58624.358      313.6051       9019.1522      182018.86    
     20700   303.08533     -58311.476     -58627.359      315.88297      8908.0773      182018.86    
     20800   301.38361     -58316.952     -58631.061      314.1094       8852.6453      182018.86    
     20900   295.01529     -58321.761     -58629.233      307.47218      8856.3213      182018.86    
     21000   299.00951     -58320.286     -58631.921      311.63505      8863.3452      182018.86    
     21100   301.50855     -58314.522     -58628.761      314.23961      8922.6836      182018.86    
     21200   301.77163     -58312.669     -58627.183      314.5138       8978.6629      182018.86    
     21300   300.69457     -58314.113     -58627.504      313.39127      8919.6325      182018.86    
     21400   298.81691     -58316.192     -58627.626      311.43432      8912.6581      182018.86    
     21500   302.02964     -58317.509     -58632.292      314.78271      8907.6601      182018.86    
     21600   294.14989     -58325.079     -58631.649      306.57023      8837.4223      182018.86    
     21700   295.98844     -58325.408     -58633.894      308.48641      8857.3037      182018.86    
     21800   298.5024      -58319.958     -58631.064      311.10653      8841.0075      182018.86    
     21900   299.626       -58316.291     -58628.569      312.27757      8970.0522      182018.86    
     22000   301.15156     -58315.37      -58629.237      313.86755      8891.6608      182018.86    
     22100   299.93084     -58315.916     -58628.511      312.59529      8966.4653      182018.86    
     22200   301.30073     -58315.659     -58629.682      314.02302      8971.1024      182018.86    
     22300   297.26418     -58318.925     -58628.741      309.81602      8932.1111      182018.86    
     22400   301.14676     -58319.615     -58633.478      313.86255      8895.2254      182018.86    
     22500   297.49566     -58317.349     -58627.406      310.05728      8893.264       182018.86    
     22600   304.14569     -58311.743     -58628.731      316.9881       8985.2078      182018.86    
     22700   298.06098     -58311.813     -58622.459      310.64647      9080.4058      182018.86    
     22800   303.91493     -58312.932     -58629.68       316.7476       8981.8449      182018.86    
     22900   298.5535      -58320.371     -58631.531      311.15979      8966.8794      182018.86    
     23000   298.50173     -58321.984     -58633.09       311.10583      8772.6025      182018.86    
     23100   297.41675     -58319.274     -58629.249      309.97504      8912.3111      182018.86    
     23200   298.21038     -58314.143     -58624.945      310.80218      9064.865       182018.86    
     23300   304.00303     -58312.181     -58629.021      316.83942      8912.1655      182018.86    
     23400   303.37199     -58313.417     -58629.599      316.18173      9004.1869      182018.86    
     23500   300.60023     -58315.445     -58628.738      313.29294      9007.4885      182018.86    
     23600   299.57048     -58316.498     -58628.717      312.2197       8949.1212      182018.86    
     23700   298.87292     -58317.818     -58629.311      311.4927       8903.6949      182018.86    
     23800   297.19318     -58318.786     -58628.528      309.74203      8934.7947      182018.86    
     23900   302.05626     -58313.478     -58628.288      314.81045      8921.6602      182018.86    
     24000   304.04544     -58309.569     -58626.453      316.88362      8977.3552      182018.86    
     24100   299.82363     -58313.142     -58625.626      312.48355      8986.3325      182018.86    
     24200   299.50178     -58318.474     -58630.622      312.14811      8854.5376      182018.86    
     24300   298.38341     -58319.086     -58630.068      310.98252      8906.7533      182018.86    
     24400   301.14787     -58317.995     -58631.859      313.8637       8854.9216      182018.86    
     24500   298.21551     -58317.264     -58628.072      310.80753      8962.4729      182018.86    
     24600   301.89086     -58311.871     -58626.509      314.63806      8966.7221      182018.86    
     24700   305.21875     -58305.759     -58623.865      318.10647      9015.1518      182018.86    
     24800   305.03726     -58307.495     -58625.413      317.91732      9018.9417      182018.86    
     24900   301.87903     -58315.655     -58630.28       314.62574      8951.2187      182018.86    
     25000   299.00233     -58318.33      -58629.958      311.62757      8950.7143      182018.86    
     25100   299.8293      -58318.505     -58630.995      312.48946      8866.5585      182018.86    
     25200   298.63968     -58317.411     -58628.661      311.24961      8897.1745      182018.86    
     25300   300.6026      -58314.584     -58627.879      313.29541      8979.8001      182018.86    
     25400   305.27143     -58309.332     -58627.493      318.16138      8979.1131      182018.86    
     25500   302.76673     -58310.98      -58626.531      315.55092      8981.9197      182018.86    
     25600   300.10964     -58317.622     -58630.404      312.78163      8898.7932      182018.86    
     25700   298.51294     -58318.998     -58630.115      311.11752      8937.962       182018.86    
     25800   301.44284     -58316.632     -58630.803      314.17113      8880.4402      182018.86    
     25900   299.17239     -58313.894     -58625.699      311.80481      8955.7149      182018.86    
     26000   305.00922     -58311.039     -58628.927      317.8881       9016.6616      182018.86    
     26100   297.84563     -58317.682     -58628.104      310.42203      8950.6223      182018.86    
     26200   298.80678     -58320.59      -58632.014      311.42376      8815.4892      182018.86    
     26300   296.58456     -58319.773     -58628.881      309.10771      8943.4466      182018.86    
     26400   304.20598     -58313.178     -58630.229      317.05094      8868.5213      182018.86    
     26500   299.63066     -58312.845     -58625.128      312.28243      9019.489       182018.86    
     26600   301.19086     -58313.395     -58627.304      313.90851      8983.3523      182018.86    
     26700   300.74316     -58315.904     -58629.346      313.44191      8915.5344      182018.86    
     26800   297.02082     -58319.287     -58628.85       309.56239      8854.3652      182018.86    
     26900   300.05378     -58319.235     -58631.959      312.72341      8947.3749      182018.86    
     27000   295.51555     -58318.796     -58626.789      307.99356      8903.5603      182018.86    
     27100   303.89939     -58315.761     -58632.493      316.73141      8925.0578      182018.86    
     27200   298.68883     -58315.478     -58626.779      311.30083      8914.7889      182018.86    
     27300   301.83394     -58314.928     -58629.507      314.57874      8947.2803      182018.86    
     27400   299.64852     -58318.061     -58630.362      312.30105      8874.044       182018.86    
     27500   299.03884     -58319.649     -58631.314      311.66562      8926.5739      182018.86    
     27600   295.59717     -58321.311     -58629.389      308.07862      8913.1877      182018.86    
     27700   300.91303     -58318.951     -58632.57       313.61895      8903.8787      182018.86    
     27800   303.11179     -58313.338     -58629.249      315.91055      8971.0034      182018.86    
     27900   299.41313     -58311.915     -58623.971      312.05571      9009.8702      182018.86    
     28000   301.27568     -58313.602     -58627.599      313.9969       9015.691       182018.86    
     28100   299.71728     -58321.2       -58633.573      312.37271      8867.8717      182018.86    
     28200   298.07299     -58322.652     -58633.311      310.65899      8875.0239      182018.86    
     28300   292.95285     -58321.006     -58626.329      305.32265      8931.785       182018.86    
     28400   299.95272     -58315.31      -58627.928      312.61808      8925.964       182018.86    
     28500   302.9207      -58313.806     -58629.518      315.71139      8945.9478      182018.86    
     28600   300.65823     -58314.313     -58627.667      313.35338      8933.9291      182018.86    
     28700   300.32502     -58316.522     -58629.528      313.00611      8950.9706      182018.86    
     28800   296.11087     -58323.337     -58631.951      308.61402      8934.4248      182018.86    
     28900   298.77528     -58321.592     -58632.983      311.39093      8815.9008      182018.86    
     29000   299.5998      -58316.469     -58628.719      312.25026      9085.085       182018.86    
     29100   300.06035     -58313.661     -58626.391      312.73026      8979.5553      182018.86    
     29200   301.9408      -58313.515     -58628.205      314.69011      8957.1457      182018.86    
     29300   300.8785      -58316.762     -58630.345      313.58296      8916.7416      182018.86    
     29400   300.5007      -58318.74      -58631.929      313.18921      8900.0315      182018.86    
     29500   298.34582     -58318.688     -58629.631      310.94333      8863.5718      182018.86    
     29600   300.01576     -58317.169     -58629.853      312.68379      8926.1759      182018.86    
     29700   301.4132      -58315.178     -58629.318      314.14023      8931.127       182018.86    
     29800   298.94881     -58314.049     -58625.62       311.57179      9062.1999      182018.86    
     29900   303.2771      -58311.166     -58627.249      316.08284      8971.4401      182018.86    
     30000   302.21654     -58314.095     -58629.073      314.97749      8988.3757      182018.86    
     30100   299.81488     -58319.017     -58631.492      312.47443      8909.145       182018.86    
     30200   296.78996     -58320.256     -58629.578      309.32178      8965.9901      182018.86    
     30300   299.43833     -58316.592     -58628.674      312.08198      9015.4921      182018.86    
     30400   306.14404     -58309.043     -58628.114      319.07083      8967.2356      182018.86    
     30500   302.38183     -58310.459     -58625.609      315.14976      8997.152       182018.86    
     30600   300.96917     -58314.001     -58627.679      313.67745      8982.4179      182018.86    
     30700   297.50035     -58317.002     -58627.064      310.06217      9005.8888      182018.86    
     30800   299.76893     -58317.634     -58630.061      312.42654      8928.2204      182018.86    
     30900   298.94102     -58318.539     -58630.103      311.56367      8909.0421      182018.86    
     31000   300.11414     -58316.753     -58629.54       312.78633      8939.2692      182018.86    
     31100   305.16647     -58309.214     -58627.266      318.05199      9017.648       182018.86    
     31200   302.01729     -58311.088     -58625.858      314.76983      9032.9121      182018.86    
     31300   299.9394      -58316.083     -58628.687      312.60421      9025.239       182018.86    
     31400   296.19812     -58318.717     -58627.422      308.70495      8944.2971      182018.86    
     31500   301.02256     -58318.306     -58632.039      313.7331       8963.4725      182018.86    
     31600   296.10561     -58321.448     -58630.057      308.60854      8855.0745      182018.86    
     31700   299.16825     -58322.27      -58634.071      311.80049      8839.1211      182018.86    
     31800   297.42137     -58318.939     -58628.919      309.97986      8968.5012      182018.86    
     31900   300.18727     -58314.117     -58626.979      312.86254      9024.4647      182018.86    
     32000   302.79663     -58310.749     -58626.331      315.58209      9088.868       182018.86    
     32100   304.29717     -58312.127     -58629.273      317.14598      8976.2879      182018.86    
     32200   298.51507     -58316.939     -58628.059      311.11974      8985.0733      182018.86    
     32300   297.88103     -58317.461     -58627.92       310.45892      8937.0983      182018.86    
     32400   302.04406     -58315.96      -58630.757      314.79773      8947.3775      182018.86    
     32500   299.43281     -58315.181     -58627.257      312.07623      9069.0423      182018.86    
     32600   304.4412      -58311.628     -58628.924      317.29609      8982.463       182018.86    
     32700   298.79766     -58311.755     -58623.17       311.41426      9068.9422      182018.86    
     32800   299.95717     -58316.921     -58629.543      312.62272      8971.6767      182018.86    
     32900   298.55375     -58321.566     -58632.726      311.16004      8854.2935      182018.86    
     33000   299.96828     -58320.565     -58633.199      312.63431      8851.7166      182018.86    
     33100   296.54604     -58318.203     -58627.271      309.06756      8936.5467      182018.86    
     33200   299.71233     -58315.356     -58627.723      312.36755      8937.5004      182018.86    
     33300   301.51907     -58315.585     -58629.835      314.25057      8973.8042      182018.86    
     33400   298.4472      -58316.374     -58627.423      311.049        8981.0022      182018.86    
     33500   306.81338     -58312.677     -58632.446      319.76843      8920.8361      182018.86    
     33600   294.56804     -58315.801     -58622.807      307.00604      8993.2302      182018.86    
     33700   300.0403      -58322.451     -58635.161      312.70937      8803.9766      182018.86    
     33800   295.49928     -58324.692     -58632.669      307.9766       8864.6459      182018.86    
     33900   299.78111     -58320.921     -58633.36       312.43924      8853.8079      182018.86    
     34000   297.43534     -58318.677     -58628.671      309.99441      8900.4634      182018.86    
     34100   299.82666     -58314.767     -58627.254      312.4867       8949.986       182018.86    
     34200   300.90775     -58312.717     -58626.33       313.61344      8931.2611      182018.86    
     34300   299.37926     -58314.527     -58626.547      312.02041      8999.9989      182018.86    
     34400   302.43769     -58319.653     -58634.861      315.20799      8908.3529      182018.86    
     34500   294.18613     -58324.843     -58631.451      306.608        8838.6683      182018.86    
     34600   300.74344     -58321.225     -58634.667      313.4422       8882.3981      182018.86    
     34700   299.60035     -58317.755     -58630.006      312.25083      8923.1434      182018.86    
     34800   299.96548     -58314.824     -58627.456      312.63139      8898.8271      182018.86    
     34900   300.18452     -58315.068     -58627.928      312.85968      9052.4899      182018.86    
     35000   302.24769     -58315.643     -58630.653      315.00996      8942.4094      182018.86    
     35100   298.48296     -58317.185     -58628.271      311.08627      8921.7107      182018.86    
     35200   294.60557     -58319.153     -58626.198      307.04516      9010.1674      182018.86    
     35300   296.32677     -58321.172     -58630.011      308.83903      8898.3992      182018.86    
     35400   300.21899     -58319.711     -58632.606      312.8956       8904.4196      182018.86    
     35500   302.93296     -58315.625     -58631.349      315.72417      8947.5081      182018.86    
     35600   300.00379     -58312.543     -58625.215      312.67131      8952.2228      182018.86    
     35700   302.27471     -58310.053     -58625.091      315.03812      8999.9093      182018.86    
     35800   299.79126     -58313.275     -58625.724      312.44981      8994.2628      182018.86    
     35900   299.31192     -58319.603     -58631.554      311.95023      8896.1632      182018.86    
     36000   296.4581      -58321.482     -58630.458      308.97591      8863.2499      182018.86    
     36100   302.09344     -58318.573     -58633.423      314.8492       8850.4189      182018.86    
     36200   300.90697     -58313.016     -58626.629      313.61264      8924.5071      182018.86    
     36300   304.20552     -58307.929     -58624.979      317.05046      9036.5494      182018.86    
     36400   301.89946     -58311.665     -58626.312      314.64703      9033.4397      182018.86    
     36500   298.1533      -58315.985     -58626.727      310.74269      8981.8583      182018.86    
     36600   299.8528      -58316.931     -58629.445      312.51395      9007.2872      182018.86    
     36700   298.33967     -58318.045     -58628.982      310.93692      8908.0447      182018.86    
     36800   299.11221     -58319.11      -58630.853      311.74208      8852.3785      182018.86    
     36900   301.73699     -58318.288     -58632.766      314.4777       8850.5226      182018.86    
     37000   300.73869     -58317.103     -58630.54       313.43725      8879.1192      182018.86    
     37100   297.44779     -58314.734     -58624.741      310.00739      9055.7914      182018.86    
     37200   303.54052     -58310.94      -58627.297      316.35739      9038.39        182018.86    
     37300   301.49915     -58314.059     -58628.289      314.22981      8948.5796      182018.86    
     37400   299.90706     -58320.765     -58633.335      312.5705       8958.1723      182018.86    
     37500   297.30279     -58322.229     -58632.085      309.85626      8837.8513      182018.86    
     37600   295.72042     -58319.671     -58627.878      308.20709      8948.5823      182018.86    
     37700   301.35499     -58316.988     -58631.067      314.07957      8939.7974      182018.86    
     37800   298.58725     -58316.525     -58627.72       311.19496      8962.4942      182018.86    
     37900   299.56362     -58314.493     -58626.706      312.21256      9015.6449      182018.86    
     38000   306.14114     -58307.62      -58626.687      319.06781      9025.2752      182018.86    
     38100   302.98542     -58308.536     -58624.315      315.77884      9044.1362      182018.86    
     38200   299.41799     -58314.248     -58626.309      312.06078      8984.0358      182018.86    
     38300   299.94806     -58317.427     -58630.04       312.61323      8948.3213      182018.86    
     38400   296.23332     -58319.417     -58628.158      308.74164      8890.4818      182018.86    
     38500   303.93818     -58315.525     -58632.297      316.77183      8921.1544      182018.86    
     38600   299.02164     -58310.112     -58621.76       311.6477       9061.2702      182018.86    
     38700   304.11411     -58306.165     -58623.121      316.95519      9164.5069      182018.86    
     38800   305.51316     -58310.325     -58628.739      318.41331      9025.449       182018.86    
     38900   301.74812     -58314.793     -58629.282      314.4893       8910.8673      182018.86    
     39000   295.3571      -58318.885     -58626.714      307.82842      8997.2162      182018.86    
     39100   299.47219     -58317.898     -58630.016      312.11727      8934.2294      182018.86    
     39200   300.82186     -58315.997     -58629.521      313.52393      8931.669       182018.86    
     39300   304.6954      -58312.372     -58629.933      317.56103      8888.2122      182018.86    
     39400   298.43563     -58310.621     -58621.658      311.03694      9182.2133      182018.86    
     39500   300.94983     -58313.618     -58627.275      313.6573       8944.0685      182018.86    
     39600   302.98394     -58318.208     -58633.985      315.7773       8856.121       182018.86    
     39700   295.96659     -58321.061     -58629.524      308.46364      8929.7924      182018.86    
     39800   299.71496     -58319.787     -58632.158      312.37029      8906.2166      182018.86    
     39900   297.71829     -58317.573     -58627.863      310.28931      8901.6284      182018.86    
     40000   300.71882     -58316.276     -58629.693      313.41654      9042.4027      182018.86    
     40100   297.64631     -58316.027     -58626.242      310.21429      8987.7351      182018.86    
     40200   301.76387     -58314.737     -58629.242      314.50572      8931.9528      182018.86    
     40300   299.56411     -58317.163     -58629.376      312.21307      8910.0544      182018.86    
     40400   299.54185     -58320.517     -58632.707      312.18987      8848.3634      182018.86    
     40500   295.49635     -58323.194     -58631.167      307.97356      8774.5218      182018.86    
     40600   299.7528      -58318.761     -58631.171      312.40972      8934.8842      182018.86    
     40700   298.3708      -58314.303     -58625.272      310.96937      8952.7125      182018.86    
     40800   305.12739     -58311.125     -58629.136      318.01125      8909.353       182018.86    
     40900   297.71057     -58313.116     -58623.398      310.28127      8969.9645      182018.86    
     41000   303.01039     -58313.573     -58629.378      315.80487      8881.0633      182018.86    
     41100   297.59499     -58316.27      -58626.431      310.1608       8893.7107      182018.86    
     41200   300.22645     -58316.852     -58629.756      312.90338      8850.5675      182018.86    
     41300   300.49887     -58318.931     -58632.118      313.1873       8935.0215      182018.86    
     41400   295.75314     -58323.943     -58632.184      308.24118      8843.1875      182018.86    
     41500   297.16068     -58323.057     -58632.765      309.70816      8853.6912      182018.86    
     41600   301.72433     -58316.702     -58631.166      314.46451      8975.4671      182018.86    
     41700   301.24427     -58313.714     -58627.678      313.96417      8985.9853      182018.86    
     41800   299.41838     -58313.821     -58625.882      312.06118      8965.8681      182018.86    
     41900   304.42078     -58315.186     -58632.461      317.27481      8900.7505      182018.86    
     42000   295.73526     -58321.969     -58630.192      308.22254      8871.09        182018.86    
     42100   295.68617     -58323.261     -58631.432      308.17139      8901.3918      182018.86    
     42200   299.81591     -58319.989     -58632.465      312.4755       8872.5864      182018.86    
     42300   301.98179     -58317.219     -58631.952      314.73284      8857.1583      182018.86    
     42400   299.77777     -58315.098     -58627.534      312.43575      8893.2402      182018.86    
     42500   301.78735     -58311.978     -58626.509      314.53019      8941.2765      182018.86    
     42600   299.48024     -58313.214     -58625.339      312.12565      8988.4345      182018.86    
     42700   300.7596      -58319.56      -58633.019      313.45904      8902.6753      182018.86    
     42800   298.5897      -58321.663     -58632.861      311.19752      8814.3622      182018.86    
     42900   299.04194     -58318.579     -58630.247      311.66885      8863.8589      182018.86    
     43000   299.38558     -58314.342     -58626.369      312.027        8936.1218      182018.86    
     43100   308.37348     -58309.91      -58631.304      321.39441      8925.2941      182018.86    
     43200   296.32586     -58315.891     -58624.729      308.83808      8965.9691      182018.86    
     43300   294.28653     -58322.338     -58629.051      306.71264      8899.6149      182018.86    
     43400   298.07053     -58321.835     -58632.491      310.65643      8872.2504      182018.86    
     43500   302.97739     -58316.49      -58632.26       315.77047      8880.8324      182018.86    
     43600   298.53845     -58314.012     -58625.156      311.14411      8988.0058      182018.86    
     43700   302.90817     -58313.287     -58628.985      315.69834      8983.9396      182018.86    
     43800   302.34587     -58315.487     -58630.6        315.11229      8856.8524      182018.86    
     43900   300.76667     -58317.003     -58630.469      313.46641      8922.4881      182018.86    
     44000   298.86171     -58316.9       -58628.381      311.48101      8900.1957      182018.86    
     44100   297.85376     -58317.31      -58627.74       310.43051      8969.3543      182018.86    
     44200   303.53508     -58315.664     -58632.016      316.35171      8930.73        182018.86    
     44300   298.53697     -58312.38      -58623.523      311.14256      9021.374       182018.86    
     44400   303.29066     -58308.736     -58624.833      316.09698      9012.0201      182018.86    
     44500   302.50016     -58312.728     -58628.001      315.27309      8866.6643      182018.86    
     44600   299.68366     -58318.657     -58630.994      312.33767      8868.3113      182018.86    
     44700   296.29555     -58319.992     -58628.798      308.8065       8928.0565      182018.86    
     44800   300.09585     -58317.523     -58630.291      312.76726      8934.5209      182018.86    
     44900   302.02805     -58314.275     -58629.056      314.78105      9013.5109      182018.86    
     45000   304.69331     -58307.671     -58625.23       317.55885      8961.3692      182018.86    
     45100   305.32862     -58306.751     -58624.972      318.22099      8954.4059      182018.86    
     45200   303.56792     -58312.144     -58628.53       316.38594      8941.0214      182018.86    
     45300   299.38183     -58315.655     -58627.678      312.0231       8926.9964      182018.86    
     45400   297.97876     -58317.819     -58628.379      310.56078      8948.0299      182018.86    
     45500   297.86364     -58318.24      -58628.681      310.4408       8805.1995      182018.86    
     45600   302.0442      -58315.084     -58629.882      314.79788      8941.2775      182018.86    
     45700   305.74947     -58308.462     -58627.122      318.6596       9024.7164      182018.86    
     45800   298.77344     -58310.202     -58621.591      311.38901      9128.4067      182018.86    
     45900   299.85845     -58315.163     -58627.683      312.51984      9005.5225      182018.86    
     46000   302.32814     -58316.687     -58631.781      315.09381      8903.2652      182018.86    
     46100   297.71911     -58317.633     -58627.924      310.29016      9036.5756      182018.86    
     46200   299.22869     -58317.025     -58628.889      311.86349      8906.3172      182018.86    
     46300   298.19104     -58317.084     -58627.866      310.78202      8944.9874      182018.86    
     46400   299.05956     -58316.776     -58628.463      311.68721      8941.8081      182018.86    
     46500   300.60802     -58316.979     -58630.28       313.30106      8904.5681      182018.86    
     46600   301.26124     -58314.74      -58628.722      313.98186      8999.5763      182018.86    
     46700   302.80789     -58312.541     -58628.135      315.59382      8958.9171      182018.86    
     46800   298.77501     -58315.279     -58626.67       311.39065      8943.6952      182018.86    
     46900   300.2313      -58321.004     -58633.912      312.90844      8829.1012      182018.86    
     47000   295.88672     -58323.284     -58631.664      308.3804       8849.639       182018.86    
     47100   300.21442     -58319.063     -58631.954      312.89084      8850.3902      182018.86    
     47200   298.79049     -58316.988     -58628.394      311.40678      8904.166       182018.86    
     47300   295.86606     -58315.664     -58624.023      308.35887      9033.7648      182018.86    
     47400   304.11417     -58314.542     -58631.497      316.95526      8947.7739      182018.86    
     47500   299.30656     -58317.424     -58629.369      311.94465      8862.4523      182018.86    
     47600   299.77284     -58316.027     -58628.457      312.43061      8848.4637      182018.86    
     47700   300.02286     -58316.139     -58628.83       312.69119      9025.1003      182018.86    
     47800   298.76621     -58318.25      -58629.631      311.38147      8933.7617      182018.86    
     47900   297.16106     -58319.462     -58629.17       309.70855      8888.2381      182018.86    
     48000   299.20599     -58317.663     -58629.503      311.83983      8985.4764      182018.86    
     48100   302.00769     -58313.673     -58628.433      314.75983      9064.6309      182018.86    
     48200   302.28867     -58310.828     -58625.88       315.05268      8969.8272      182018.86    
     48300   299.70251     -58313.598     -58625.955      312.35731      9046.9219      182018.86    
     48400   301.61276     -58319.34      -58633.688      314.34823      8882.6704      182018.86    
     48500   297.57786     -58320.984     -58631.127      310.14295      8855.3442      182018.86    
     48600   298.3709      -58318.864     -58629.833      310.96948      8933.0283      182018.86    
     48700   298.97197     -58316.091     -58627.686      311.59593      8950.8255      182018.86    
     48800   303.62614     -58314.047     -58630.493      316.44661      8923.1896      182018.86    
     48900   294.18549     -58315.938     -58622.545      306.60733      9036.5364      182018.86    
     49000   303.69775     -58315.322     -58631.844      316.52125      8845.0162      182018.86    
     49100   300.15303     -58318.633     -58631.46       312.82686      8842.9316      182018.86    
     49200   299.93589     -58318.428     -58631.029      312.60055      8919.989       182018.86    
     49300   301.04709     -58310.961     -58624.719      313.75866      9047.7316      182018.86    
     49400   302.32579     -58310.025     -58625.116      315.09136      9024.4917      182018.86    
     49500   301.20581     -58314.18      -58628.104      313.92409      8966.0953      182018.86    
     49600   298.58063     -58319.606     -58630.794      311.18806      8929.7224      182018.86    
     49700   301.21942     -58320.887     -58634.825      313.93828      8879.4025      182018.86    
     49800   295.06501     -58320.418     -58627.942      307.52399      8878.3868      182018.86    
     49900   302.88425     -58315.014     -58630.687      315.6734       8930.582       182018.86    
     50000   300.91938     -58314.318     -58627.944      313.62557      8903.1458      182018.86    
     50100   297.69828     -58315.778     -58626.046      310.26845      8928.7309      182018.86    
     50200   300.44585     -58317.544     -58630.676      313.13204      8893.6074      182018.86    
     50300   298.14238     -58322.452     -58633.184      310.73131      8881.098       182018.86    
     50400   296.1631      -58322.518     -58631.187      308.66845      8896.4555      182018.86    
     50500   301.22071     -58316.832     -58630.771      313.93962      8939.1558      182018.86    
     50600   300.12572     -58314.932     -58627.73       312.79839      8954.3836      182018.86    
     50700   303.39105     -58313.107     -58629.308      316.2016       8923.6933      182018.86    
     50800   301.61131     -58314.86      -58629.206      314.34671      8921.4052      182018.86    
     50900   297.4359      -58323.629     -58633.624      309.995        8844.7825      182018.86    
     51000   294.324       -58323.656     -58630.408      306.7517       8921.5767      182018.86    
     51100   297.07778     -58318.416     -58628.038      309.62176      8946.8665      182018.86    
     51200   302.87856     -58314.651     -58630.318      315.66747      8870.1521      182018.86    
     51300   301.97647     -58315.094     -58629.821      314.72729      8893.9809      182018.86    
     51400   296.5373      -58317.005     -58626.063      309.05846      8944.2884      182018.86    
     51500   301.82654     -58315.038     -58629.609      314.57103      9010.3868      182018.86    
     51600   300.26607     -58313.664     -58626.609      312.94466      9003.3441      182018.86    
     51700   301.6344      -58313.207     -58627.578      314.37078      8920.7228      182018.86    
     51800   301.58288     -58316.057     -58630.374      314.31708      8917.5952      182018.86    
     51900   295.81004     -58320.807     -58629.107      308.30049      8893.2452      182018.86    
     52000   300.50726     -58319.308     -58632.504      313.19604      8852.9071      182018.86    
     52100   302.17076     -58314.482     -58629.412      314.92978      8889.3561      182018.86    
     52200   305.15806     -58306.56      -58624.603      318.04322      8982.0536      182018.86    
     52300   302.14569     -58308.735     -58623.639      314.90365      9089.8516      182018.86    
     52400   301.45414     -58313.539     -58627.722      314.18291      9024.4424      182018.86    
     52500   300.20964     -58318.115     -58631.001      312.88586      8945.1493      182018.86    
     52600   298.31711     -58319.236     -58630.15       310.91342      8839.8332      182018.86    
     52700   299.69972     -58317.728     -58630.082      312.3544       8919.9965      182018.86    
     52800   302.4577      -58313.305     -58628.534      315.22884      8944.4855      182018.86    
     52900   301.3762      -58307.72      -58621.822      314.10167      9128.4639      182018.86    
     53000   300.0608      -58310.476     -58623.207      312.73073      9078.2118      182018.86    
     53100   307.34023     -58312.445     -58632.762      320.31754      8862.2081      182018.86    
     53200   299.20871     -58316.884     -58628.726      311.84267      8926.7775      182018.86    
     53300   295.30298     -58319.59      -58627.362      307.77201      8945.5749      182018.86    
     53400   298.9075      -58317.981     -58629.51       311.52874      8972.6893      182018.86    
     53500   304.76152     -58311.288     -58628.918      317.62994      9018.1027      182018.86    
     53600   299.96841     -58309.496     -58622.13       312.63445      9114.3059      182018.86    
     53700   302.11199     -58312.705     -58627.574      314.86853      9020.8289      182018.86    
     53800   296.22016     -58321.285     -58630.013      308.72792      8759.3343      182018.86    
     53900   301.00542     -58320.686     -58634.401      313.71524      8864.6665      182018.86    
     54000   300.96665     -58316.947     -58630.622      313.67483      8939.0464      182018.86    
     54100   297.63095     -58313.216     -58623.415      310.19829      8986.3131      182018.86    
     54200   303.14839     -58310.984     -58626.933      315.94869      9035.8511      182018.86    
     54300   299.39876     -58315.603     -58627.643      312.04074      8910.5949      182018.86    
     54400   297.27812     -58322.644     -58632.474      309.83055      8745.1422      182018.86    
     54500   301.24194     -58320.877     -58634.838      313.96175      8740.9669      182018.86    
     54600   295.03089     -58317.36      -58624.849      307.48844      8947.1731      182018.86    
     54700   300.53942     -58312.693     -58625.923      313.22957      8969.541       182018.86    
     54800   302.828       -58313.741     -58629.356      315.61478      9030.0357      182018.86    
     54900   299.25023     -58317.899     -58629.785      311.88593      8895.111       182018.86    
     55000   295.07731     -58319.634     -58627.171      307.53682      8937.7093      182018.86    
     55100   300.70754     -58317.371     -58630.776      313.40478      8923.7512      182018.86    
     55200   301.38908     -58316.593     -58630.709      314.1151       8875.2024      182018.86    
     55300   298.64996     -58317.089     -58628.349      311.26032      8913.6145      182018.86    
     55400   298.31968     -58316.968     -58627.884      310.91609      8999.7288      182018.86    
     55500   301.14264     -58315.135     -58628.994      313.85825      8913.9298      182018.86    
     55600   300.06702     -58312.462     -58625.199      312.73722      9038.7194      182018.86    
     55700   305.86853     -58310.645     -58629.429      318.7837       8892.24        182018.86    
     55800   298.67584     -58315.135     -58626.422      311.2873       8909.2538      182018.86    
     55900   296.69386     -58320.202     -58629.424      309.22162      8906.6839      182018.86    
     56000   300.37075     -58321.385     -58634.438      313.05377      8841.0551      182018.86    
     56100   298.64419     -58320.046     -58631.3        311.2543       8849.197       182018.86    
     56200   300.72395     -58317.226     -58630.648      313.42188      8852.8098      182018.86    
     56300   298.23404     -58313.729     -58624.556      310.82684      9007.1703      182018.86    
     56400   305.31471     -58310.925     -58629.132      318.20649      8962.4645      182018.86    
     56500   299.60284     -58313.306     -58625.56       312.25343      8915.214       182018.86    
     56600   304.21934     -58313.466     -58630.53       317.06487      8900.9885      182018.86    
     56700   292.69617     -58318.478     -58623.533      305.05513      8981.1256      182018.86    
     56800   305.15115     -58317.104     -58635.14       318.03601      8791.1076      182018.86    
     56900   298.14909     -58319.084     -58629.823      310.7383       8887.9039      182018.86    
     57000   297.23645     -58319.073     -58628.86       309.78713      8940.4897      182018.86    
     57100   302.08694     -58313.792     -58628.635      314.84243      8867.8598      182018.86    
     57200   301.33856     -58311.743     -58625.806      314.06245      9025.3882      182018.86    
     57300   297.63444     -58315.472     -58625.674      310.20191      8979.9438      182018.86    
     57400   298.1299      -58319.615     -58630.333      310.7183       8855.8355      182018.86    
     57500   301.14367     -58320.823     -58634.682      313.85932      8778.6303      182018.86    
     57600   299.40863     -58320.459     -58632.51       312.05102      8895.2405      182018.86    
     57700   299.10037     -58314.363     -58626.093      311.72974      8978.1057      182018.86    
     57800   301.32334     -58311.084     -58625.13       314.04658      8918.002       182018.86    
     57900   302.8615      -58313.046     -58628.696      315.64969      8942.0036      182018.86    
     58000   296.40706     -58319.58      -58628.502      308.92272      8871.218       182018.86    
     58100   303.48031     -58318.638     -58634.932      316.29463      8862.5193      182018.86    
     58200   295.99331     -58318.757     -58627.248      308.49149      8944.2908      182018.86    
     58300   300.87541     -58314.898     -58628.477      313.57973      8896.8689      182018.86    
     58400   304.99124     -58308.385     -58626.254      317.86936      9048.7917      182018.86    
     58500   305.00383     -58304.235     -58622.118      317.88248      9045.587       182018.86    
     58600   303.40352     -58310.138     -58626.352      316.2146       8950.5791      182018.86    
     58700   301.52178     -58316.093     -58630.347      314.2534       8956.2396      182018.86    
     58800   300.37713     -58317.674     -58630.734      313.06042      8907.7273      182018.86    
     58900   295.24643     -58319.487     -58627.2        307.71307      8939.6787      182018.86    
     59000   301.94493     -58317.595     -58632.289      314.69442      8866.3734      182018.86    
     59100   301.46014     -58313.855     -58628.045      314.18916      8927.3463      182018.86    
     59200   303.53717     -58309.271     -58625.625      316.35389      9018.7922      182018.86    
     59300   300.28791     -58311.177     -58624.144      312.96743      9002.3718      182018.86    
     59400   300.68299     -58319.164     -58632.543      313.3792       8844.3822      182018.86    
     59500   298.8401      -58321.815     -58633.273      311.45849      8857.5107      182018.86    
     59600   298.69288     -58319.58      -58630.885      311.30505      8917.4412      182018.86    
     59700   298.66214     -58315.893     -58627.166      311.27302      8891.0412      182018.86    
     59800   300.23949     -58314.561     -58627.478      312.91697      8992.9382      182018.86    
     59900   301.96872     -58314.906     -58629.625      314.71921      8920.5158      182018.86    
     60000   302.04869     -58315.939     -58630.742      314.80255      8899.6487      182018.86    
     60100   301.8057      -58316.095     -58630.644      314.54931      8962.5858      182018.86    
     60200   299.81345     -58315.717     -58628.19       312.47294      8905.2857      182018.86    
     60300   298.13168     -58315.678     -58626.399      310.72016      8973.3986      182018.86    
     60400   301.26441     -58318.111     -58632.097      313.98517      8898.6229      182018.86    
     60500   297.29532     -58321.968     -58631.816      309.84848      8818.4264      182018.86    
     60600   300.41439     -58319.73      -58632.829      313.09925      8869.3805      182018.86    
     60700   297.6773      -58314.487     -58624.734      310.24659      8932.3029      182018.86    
     60800   302.06709     -58310.389     -58625.21       314.82173      9018.2009      182018.86    
     60900   301.09241     -58312.421     -58626.227      313.8059       8932.6037      182018.86    
     61000   301.17318     -58315.376     -58629.266      313.89008      8953.2474      182018.86    
     61100   299.05834     -58318.123     -58629.809      311.68594      8973.6683      182018.86    
     61200   298.79634     -58318.223     -58629.636      311.41288      8879.1365      182018.86    
     61300   304.69249     -58312.608     -58630.166      317.55799      8962.1424      182018.86    
     61400   301.39352     -58307.81      -58621.93       314.11972      9045.248       182018.86    
     61500   307.12252     -58306.392     -58626.483      320.09063      8960.9446      182018.86    
     61600   299.24062     -58315.53      -58627.406      311.87592      8928.6633      182018.86    
     61700   299.57431     -58316.975     -58629.199      312.2237       8988.2649      182018.86    
     61800   301.63644     -58317.361     -58631.734      314.3729       8947.7191      182018.86    
     61900   297.33072     -58319.089     -58628.974      309.88537      8953.7337      182018.86    
     62000   298.60518     -58317.275     -58628.489      311.21365      8956.3804      182018.86    
     62100   301.91077     -58312.084     -58626.743      314.65881      9037.1018      182018.86    
     62200   302.12536     -58309.305     -58624.188      314.88247      9038.0553      182018.86    
     62300   305.72032     -58311.664     -58630.293      318.62922      9010.3165      182018.86    
     62400   296.68745     -58319.965     -58629.18       309.21495      8853.0708      182018.86    
     62500   301.02397     -58317.936     -58631.67       313.73457      8887.5703      182018.86    
     62600   297.23446     -58316.961     -58626.746      309.78505      8964.0007      182018.86    
     62700   302.15113     -58314.576     -58629.485      314.90932      8906.1618      182018.86    
     62800   303.21942     -58311.146     -58627.169      316.02273      9007.3864      182018.86    
     62900   303.39641     -58311.21      -58627.417      316.20719      8945.0567      182018.86    
     63000   298.08927     -58317.675     -58628.351      310.67596      8897.4599      182018.86    
     63100   296.05368     -58321.071     -58629.625      308.55441      8868.6814      182018.86    
     63200   299.40071     -58319.804     -58631.846      312.04277      8884.0854      182018.86    
     63300   304.10586     -58313.333     -58630.28       316.94659      8907.229       182018.86    
     63400   302.52991     -58308.814     -58624.118      315.3041       8942.1066      182018.86    
     63500   303.24279     -58310.465     -58626.512      316.04708      9034.1442      182018.86    
     63600   298.8066      -58315.695     -58627.119      311.42357      8972.4624      182018.86    
     63700   299.20981     -58317.412     -58629.255      311.8438       8850.1488      182018.86    
     63800   299.39211     -58317.201     -58629.235      312.0338       8966.808       182018.86    
     63900   301.42647     -58314.221     -58628.375      314.15407      9019.3859      182018.86    
     64000   303.90299     -58311.039     -58627.774      316.73516      8907.9106      182018.86    
     64100   300.47962     -58314.014     -58627.181      313.16724      8882.5528      182018.86    
     64200   297.48925     -58320.446     -58630.496      310.0506       8946.8206      182018.86    
     64300   293.7162      -58323.498     -58629.616      306.11824      8868.3421      182018.86    
     64400   302.90899     -58318.761     -58634.46       315.69919      8848.3462      182018.86    
     64500   299.92573     -58317.403     -58629.993      312.58996      8953.9914      182018.86    
     64600   301.24182     -58315.746     -58629.707      313.96162      8933.5957      182018.86    
     64700   301.58381     -58313.084     -58627.402      314.31805      9080.9188      182018.86    
     64800   301.88899     -58308.4       -58623.037      314.63611      9082.3855      182018.86    
     64900   305.75452     -58308.603     -58627.268      318.66486      8955.773       182018.86    
     65000   303.94284     -58315.724     -58632.5        316.77669      8826.3811      182018.86    
     65100   298.03813     -58319.021     -58629.644      310.62265      8911.8817      182018.86    
     65200   296.25717     -58318.759     -58627.526      308.76649      8914.4806      182018.86    
     65300   302.0617      -58314.741     -58629.558      314.81612      9000.8143      182018.86    
     65400   304.06218     -58309.517     -58626.418      316.90107      9061.6864      182018.86    
     65500   303.70356     -58306.119     -58622.647      316.5273       9089.3216      182018.86    
     65600   304.12152     -58312.242     -58629.205      316.96292      8959.8554      182018.86    
     65700   295.73367     -58317.842     -58626.063      308.22089      8981.2478      182018.86    
     65800   299.02362     -58317.965     -58629.615      311.64975      8927.5427      182018.86    
     65900   302.12628     -58318.265     -58633.149      314.88343      8918.9502      182018.86    
     66000   295.52249     -58318.731     -58626.732      308.00079      9003.8808      182018.86    
     66100   301.55926     -58313.725     -58628.017      314.29246      8985.7819      182018.86    
     66200   304.44544     -58310.721     -58628.022      317.30051      9049.7843      182018.86    
     66300   297.02261     -58314.575     -58624.139      309.56425      8945.9378      182018.86    
     66400   297.6751      -58321.64      -58631.885      310.24429      8910.2548      182018.86    
     66500   295.39917     -58323.577     -58631.449      307.87227      8842.933       182018.86    
     66600   303.05408     -58319.755     -58635.606      315.8504       8770.9965      182018.86    
     66700   296.12327     -58317.991     -58626.618      308.62694      8901.5602      182018.86    
     66800   300.99428     -58314.137     -58627.841      313.70363      9073.0189      182018.86    
     66900   298.30634     -58314.305     -58625.207      310.90219      9014.3351      182018.86    
     67000   301.45189     -58315.02      -58629.2        314.18056      9011.44        182018.86    
     67100   301.34937     -58318.627     -58632.701      314.07371      8867.8626      182018.86    
     67200   295.81284     -58326.225     -58634.529      308.3034       8798.3125      182018.86    
     67300   296.1446      -58323.337     -58631.986      308.64918      8900.0519      182018.86    
     67400   296.18596     -58320.008     -58628.7        308.69228      8919.9915      182018.86    
     67500   303.1595      -58315.13      -58631.09       315.96027      8961.0425      182018.86    
     67600   302.50323     -58314.564     -58629.841      315.27629      8948.9022      182018.86    
     67700   300.45195     -58316.64      -58629.778      313.1384       8956.2541      182018.86    
     67800   298.32968     -58319.839     -58630.765      310.92651      8897.3834      182018.86    
     67900   293.5463      -58326.512     -58632.453      305.94116      8891.1681      182018.86    
     68000   298.12776     -58324.048     -58634.764      310.71608      8862.2743      182018.86    
     68100   296.86367     -58319.04      -58628.439      309.3986       8908.189       182018.86    
     68200   301.06494     -58315.843     -58629.62       313.77728      8969.212       182018.86    
     68300   297.21855     -58315.79      -58625.559      309.76847      9049.9832      182018.86    
     68400   304.94121     -58312.337     -58630.155      317.81721      8895.7319      182018.86    
     68500   302.97054     -58311.511     -58627.274      315.76333      9010.2105      182018.86    
     68600   295.64814     -58318.66      -58626.792      308.13175      8926.807       182018.86    
     68700   301.03623     -58320.5       -58634.248      313.74735      8899.9972      182018.86    
     68800   299.43531     -58320.345     -58632.424      312.07883      8901.6891      182018.86    
     68900   302.86505     -58313.009     -58628.662      315.6534       8952.758       182018.86    
     69000   299.65857     -58311.54      -58623.852      312.31151      9043.427       182018.86    
     69100   303.66282     -58313.624     -58630.109      316.48484      8957.5597      182018.86    
     69200   302.43586     -58317.223     -58632.429      315.20608      8883.105       182018.86    
     69300   296.81569     -58319.613     -58628.962      309.3486       8897.8288      182018.86    
     69400   298.12492     -58317.818     -58628.531      310.71311      8931.0856      182018.86    
     69500   305.7735      -58309.961     -58628.645      318.68465      8972.5545      182018.86    
     69600   300.18397     -58310.838     -58623.697      312.85911      9027.025       182018.86    
     69700   302.93828     -58314.221     -58629.95       315.72972      8912.33        182018.86    
     69800   295.21134     -58320.678     -58628.354      307.67651      8917.5235      182018.86    
     69900   301.34305     -58319.581     -58633.648      314.06712      8944.5892      182018.86    
     70000   293.90884     -58319.558     -58625.877      306.31901      8911.0271      182018.86    
     70100   302.93697     -58313.287     -58629.015      315.72835      8975.6999      182018.86    
     70200   303.2607      -58312.503     -58628.568      316.06575      8961.5392      182018.86    
     70300   299.20908     -58314.796     -58626.639      311.84304      8967.444       182018.86    
     70400   300.73605     -58316.538     -58629.972      313.43449      8864.3306      182018.86    
     70500   295.42751     -58319.229     -58627.131      307.9018       8881.2345      182018.86    
     70600   301.9229      -58317.326     -58631.997      314.67146      8892.1951      182018.86    
     70700   299.07185     -58317.943     -58629.643      311.70002      8916.6349      182018.86    
     70800   301.37664     -58317.125     -58631.227      314.10213      8944.5483      182018.86    
     70900   301.5706      -58313.255     -58627.56       314.30428      8955.2794      182018.86    
     71000   299.14712     -58309.342     -58621.121      311.77848      9091.6737      182018.86    
     71100   303.04453     -58310.803     -58626.644      315.84045      9031.9977      182018.86    
     71200   299.50411     -58318.611     -58630.761      312.15054      8886.7923      182018.86    
     71300   297.75898     -58319.62      -58629.952      310.33172      9006.4857      182018.86    
     71400   301.68214     -58317.318     -58631.738      314.42053      8950.1148      182018.86    
     71500   299.06597     -58314.942     -58626.636      311.6939       8980.3008      182018.86    
     71600   306.42439     -58308.396     -58627.759      319.36302      9026.9145      182018.86    
     71700   298.01702     -58310.612     -58621.212      310.60065      9084.2594      182018.86    
     71800   303.6249      -58315.086     -58631.531      316.44533      8991.0498      182018.86    
     71900   299.3056      -58319.072     -58631.016      311.94364      8876.9418      182018.86    
     72000   299.63345     -58317.568     -58629.854      312.28534      8975.3323      182018.86    
     72100   300.85727     -58314.508     -58628.069      313.56083      8990.0789      182018.86    
     72200   299.23233     -58313.687     -58625.554      311.86728      9028.2117      182018.86    
     72300   302.78088     -58315.592     -58631.158      315.56567      8970.8686      182018.86    
     72400   298.38494     -58321.599     -58632.583      310.98411      8815.9957      182018.86    
     72500   299.35437     -58321.113     -58633.108      311.99448      8909.6472      182018.86    
     72600   297.57158     -58318.438     -58628.574      310.13641      8955.8861      182018.86    
     72700   302.10034     -58310.186     -58625.042      314.85639      9027.826       182018.86    
     72800   303.81563     -58308.984     -58625.628      316.64411      9096.4324      182018.86    
     72900   298.24321     -58314.683     -58625.52       310.8364       8986.7815      182018.86    
     73000   299.09939     -58318.111     -58629.84       311.72873      8932.7688      182018.86    
     73100   302.30481     -58318.293     -58633.362      315.06949      8861.9438      182018.86    
     73200   297.41674     -58317.917     -58627.892      309.97503      8920.7497      182018.86    
     73300   297.65528     -58313.423     -58623.647      310.22364      9089.8932      182018.86    
     73400   301.45202     -58309.027     -58623.208      314.1807       9037.8356      182018.86    
     73500   306.01137     -58310.694     -58629.627      318.93256      8976.05        182018.86    
     73600   301.16612     -58317.062     -58630.945      313.88273      8898.122       182018.86    
     73700   297.29834     -58318.541     -58628.393      309.85163      8937.2895      182018.86    
     73800   297.30974     -58317.932     -58627.796      309.86351      8971.442       182018.86    
     73900   305.8297      -58314.516     -58633.259      318.74323      8936.0488      182018.86    
     74000   299.12996     -58311.98      -58623.74       311.76058      8991.9462      182018.86    
     74100   304.73819     -58306.315     -58623.921      317.60562      9005.1619      182018.86    
     74200   301.19666     -58310.106     -58624.02       313.91455      9056.7767      182018.86    
     74300   300.1811      -58315.416     -58628.272      312.85611      9006.6619      182018.86    
     74400   299.31029     -58316.905     -58628.853      311.94853      8891.2183      182018.86    
     74500   299.57826     -58318.517     -58630.745      312.22781      8895.7544      182018.86    
     74600   297.55347     -58320.372     -58630.49       310.11753      8903.0601      182018.86    
     74700   304.6228      -58315.154     -58632.64       317.48536      8926.1343      182018.86    
     74800   298.2165      -58311.206     -58622.015      310.80856      9029.9906      182018.86    
     74900   303.87659     -58308.473     -58625.181      316.70764      9046.7087      182018.86    
     75000   302.79933     -58314.504     -58630.088      315.5849       8924.4597      182018.86    
     75100   299.7633      -58319.378     -58631.799      312.42067      8850.6402      182018.86    
     75200   299.86226     -58318.867     -58631.39       312.52381      8901.6745      182018.86    
     75300   295.44229     -58317.814     -58625.732      307.91721      8935.6775      182018.86    
     75400   304.1487      -58313.196     -58630.187      316.99124      8958.0808      182018.86    
[...]
    181800   300.15646     -58312.241     -58625.071      312.83043      9028.3839      182018.86    
    181900   302.65943     -58311.679     -58627.118      315.43908      9087.9641      182018.86    
    182000   298.62513     -58317.116     -58628.35       311.23444      8926.3389      182018.86    
    182100   299.02628     -58319.785     -58631.437      311.65252      8941.8937      182018.86    
    182200   302.23277     -58318.417     -58633.411      314.99441      8934.355       182018.86    
    182300   297.54445     -58317.018     -58627.126      310.10813      8933.2515      182018.86    
    182400   299.54327     -58313.465     -58625.657      312.19135      9035.833       182018.86    
    182500   305.09758     -58309.413     -58627.394      317.98018      9021.4704      182018.86    
    182600   305.48049     -58305.594     -58623.973      318.37927      9042.2695      182018.86    
    182700   299.62996     -58311.775     -58624.057      312.2817       9006.3334      182018.86    
    182800   302.32677     -58315.724     -58630.817      315.09238      8952.8971      182018.86    
    182900   299.51293     -58318.935     -58631.095      312.15973      8944.031       182018.86    
    183000   296.90021     -58320.071     -58629.507      309.43669      8845.4379      182018.86    
    183100   302.3921      -58314.958     -58630.119      315.16047      8971.5006      182018.86    
    183200   301.50578     -58310.332     -58624.569      314.23672      9100.5909      182018.86    
    183300   301.11082     -58311.5       -58625.325      313.82509      9016.6424      182018.86    
    183400   300.03031     -58320.673     -58633.372      312.69895      8864.2575      182018.86    
    183500   297.03716     -58321.273     -58630.852      309.57942      8886.8691      182018.86    
    183600   301.39124     -58317.301     -58631.419      314.11735      8830.7486      182018.86    
    183700   297.85993     -58314.149     -58624.585      310.43693      9017.3536      182018.86    
    183800   305.26825     -58310.526     -58628.684      318.15806      9033.8217      182018.86    
    183900   300.11326     -58314.614     -58627.4        312.78541      8924.7426      182018.86    
    184000   300.26498     -58318.75      -58631.693      312.94354      8915.2602      182018.86    
    184100   296.61604     -58320.317     -58629.458      309.14052      8947.7845      182018.86    
    184200   301.00788     -58318.89      -58632.608      313.71781      8940.0973      182018.86    
    184300   297.07299     -58318.443     -58628.059      309.61677      8946.8758      182018.86    
    184400   302.71564     -58314.571     -58630.069      315.49767      8918.8294      182018.86    
    184500   300.7167      -58312.849     -58626.264      313.41432      9001.2969      182018.86    
    184600   300.96243     -58311.966     -58625.636      313.67044      8988.7599      182018.86    
    184700   300.24304     -58313.403     -58626.323      312.92067      8992.0373      182018.86    
    184800   299.05037     -58319.578     -58631.255      311.67763      8932.0193      182018.86    
    184900   299.34761     -58322.117     -58634.104      311.98742      8888.2552      182018.86    
    185000   298.89825     -58320.823     -58632.342      311.51909      8829.7406      182018.86    
    185100   301.04022     -58313.054     -58626.805      313.75151      9025.8402      182018.86    
    185200   303.09528     -58311.661     -58627.555      315.89334      9066.9502      182018.86    
    185300   298.63982     -58314.811     -58626.061      311.24975      9012.5264      182018.86    
    185400   299.71304     -58317.336     -58629.705      312.36829      8969.4938      182018.86    
    185500   300.06355     -58322.272     -58635.005      312.7336       8929.6092      182018.86    
    185600   294.57453     -58326.26      -58633.272      307.01281      8880.4732      182018.86    
    185700   296.99443     -58321.986     -58631.521      309.53489      8892.4261      182018.86    
    185800   298.87179     -58319.01      -58630.501      311.49152      8926.6272      182018.86    
    185900   301.8018      -58315.266     -58629.811      314.54524      9003.5589      182018.86    
    186000   299.54241     -58313.684     -58625.875      312.19045      8976.8659      182018.86    
    186100   303.87371     -58312.157     -58628.862      316.70464      9081.8327      182018.86    
    186200   299.1645      -58314.988     -58626.785      311.79659      8990.2719      182018.86    
    186300   300.66526     -58319.847     -58633.207      313.36071      8857.9176      182018.86    
    186400   296.92238     -58323.739     -58633.199      309.45979      8856.3899      182018.86    
    186500   298.01091     -58319.859     -58630.453      310.59429      8957.4499      182018.86    
    186600   298.94829     -58316.049     -58627.621      311.57125      9016.2866      182018.86    
    186700   302.98457     -58314.885     -58630.663      315.77795      8945.6819      182018.86    
    186800   300.6275      -58316.84      -58630.162      313.32136      8990.0517      182018.86    
    186900   296.06669     -58321.244     -58629.812      308.56797      8924.4962      182018.86    
    187000   296.05405     -58322.909     -58631.463      308.5548       8868.7622      182018.86    
    187100   302.56379     -58316.762     -58632.101      315.33941      8933.6695      182018.86    
    187200   300.8566      -58311.885     -58625.445      313.56014      9087.7902      182018.86    
    187300   303.98179     -58310.632     -58627.449      316.81728      9024.2463      182018.86    
    187400   297.14563     -58314.796     -58624.488      309.69247      9085.7345      182018.86    
    187500   300.4638      -58317.646     -58630.797      313.15074      9018.0262      182018.86    
    187600   298.12184     -58318.308     -58629.018      310.7099       8935.9964      182018.86    
    187700   302.47471     -58315.781     -58631.027      315.24657      8911.6996      182018.86    
    187800   300.51066     -58314.345     -58627.544      313.19959      9016.7528      182018.86    
    187900   301.3717      -58314.347     -58628.444      314.09699      8993.7287      182018.86    
    188000   295.74598     -58320.424     -58628.657      308.23372      8964.0483      182018.86    
    188100   299.87929     -58321.516     -58634.058      312.54156      8877.069       182018.86    
    188200   301.9224      -58318.19      -58632.861      314.67093      8901.2389      182018.86    
    188300   300.51028     -58312.114     -58625.313      313.19919      9081.6932      182018.86    
    188400   298.3881      -58311.824     -58622.811      310.98741      9129.6514      182018.86    
    188500   301.73856     -58314.103     -58628.582      314.47934      9034.9911      182018.86    
    188600   303.34975     -58315.856     -58632.014      316.15856      8971.7907      182018.86    
    188700   300.4261      -58317.128     -58630.239      313.11145      8933.1809      182018.86    
    188800   297.97583     -58317.443     -58628.001      310.55773      9037.2322      182018.86    
    188900   298.36895     -58318.205     -58629.172      310.96745      9064.1837      182018.86    
    189000   297.49159     -58322.764     -58632.817      310.05304      8940.0116      182018.86    
    189100   300.83498     -58320.121     -58633.659      313.5376       8889.3113      182018.86    
    189200   298.15894     -58315.951     -58626.699      310.74856      8980.3201      182018.86    
    189300   302.59393     -58310.309     -58625.68       315.37082      9113.3024      182018.86    
    189400   303.21699     -58311.093     -58627.114      316.02019      9087.0391      182018.86    
    189500   297.53697     -58315.739     -58625.839      310.10034      9087.6663      182018.86    
    189600   302.71622     -58316.606     -58632.104      315.49827      9005.9184      182018.86    
    189700   298.62337     -58318.564     -58629.797      311.2326       9012.6864      182018.86    
    189800   299.15396     -58319.368     -58631.154      311.7856       8967.6182      182018.86    
    189900   298.8356      -58317.906     -58629.359      311.4538       8996.6021      182018.86    
    190000   300.36724     -58314.613     -58627.663      313.05011      9045.3446      182018.86    
    190100   299.4309      -58314.672     -58626.746      312.07423      9028.3872      182018.86    
    190200   301.38628     -58316.401     -58630.513      314.11218      9051.6533      182018.86    
    190300   298.27158     -58321.234     -58632.1        310.86596      8919.0551      182018.86    
    190400   295.79977     -58321.833     -58630.123      308.28978      8938.5832      182018.86    
    190500   301.38363     -58315.134     -58629.243      314.10941      8979.4057      182018.86    
    190600   301.67094     -58312.747     -58627.156      314.40886      9013.9215      182018.86    
    190700   302.27843     -58314.294     -58629.336      315.042        8992.5382      182018.86    
    190800   299.79922     -58316.657     -58629.115      312.45811      9042.5414      182018.86    
    190900   297.75428     -58317.417     -58627.744      310.32682      8958.4272      182018.86    
    191000   298.09129     -58316.285     -58626.963      310.67806      8944.9298      182018.86    
    191100   306.19288     -58309.26      -58628.382      319.12174      8963.2182      182018.86    
    191200   304.5749      -58304.993     -58622.429      317.43544      9101.9412      182018.86    
    191300   302.07876     -58309.242     -58624.075      314.8339       9059.4137      182018.86    
    191400   300.02471     -58314.798     -58627.491      312.69311      9081.1528      182018.86    
    191500   299.85022     -58316.504     -58629.015      312.51126      8922.18        182018.86    
    191600   301.08273     -58317.114     -58630.909      313.79581      8967.7426      182018.86    
    191700   300.28982     -58317.224     -58630.193      312.96943      8952.8231      182018.86    
    191800   299.15192     -58316.704     -58628.487      311.78348      8985.5795      182018.86    
    191900   300.74752     -58314.211     -58627.657      313.44645      9015.2537      182018.86    
    192000   303.89643     -58311.451     -58628.179      316.72832      9073.0018      182018.86    
    192100   298.57882     -58314.897     -58626.083      311.18618      9035.6041      182018.86    
    192200   297.84055     -58320.867     -58631.284      310.41673      8923.4394      182018.86    
    192300   299.70345     -58322.671     -58635.03       312.35829      8905.9882      182018.86    
    192400   296.1324      -58321.001     -58629.638      308.63646      8917.7924      182018.86    
    192500   301.31059     -58317.264     -58631.297      314.03329      8932.1321      182018.86    
    192600   300.14676     -58317.22      -58630.041      312.82032      8901.0578      182018.86    
    192700   296.1402      -58316.579     -58625.223      308.64459      9073.5563      182018.86    
    192800   303.21883     -58313.001     -58629.023      316.02211      9060.841       182018.86    
    192900   301.64426     -58314.362     -58628.743      314.38106      8893.6178      182018.86    
    193000   300.70086     -58318.632     -58632.03       313.39782      8979.0315      182018.86    
    193100   295.57814     -58323.516     -58631.575      308.05879      8934.6458      182018.86    
    193200   294.79222     -58322.401     -58629.64       307.23969      8956.0305      182018.86    
    193300   305.06789     -58314.875     -58632.824      317.94924      8921.9732      182018.86    
    193400   300.13437     -58314.699     -58627.506      312.80741      9006.8015      182018.86    
    193500   303.57904     -58312.967     -58629.364      316.39753      9022.1962      182018.86    
    193600   295.56614     -58314.868     -58622.914      308.04629      9064.7167      182018.86    
    193700   298.22126     -58319.414     -58630.228      310.81352      8961.4356      182018.86    
    193800   298.38062     -58325.085     -58636.064      310.97961      8793.5409      182018.86    
    193900   300.2115      -58322.588     -58635.475      312.8878       8848.3404      182018.86    
    194000   294.76558     -58320.217     -58627.429      307.21193      8973.3467      182018.86    
    194100   300.2935      -58315.742     -58628.715      312.97326      9096.7866      182018.86    
    194200   302.35635     -58313.185     -58628.309      315.12321      8892.9454      182018.86    
    194300   299.16854     -58314.315     -58626.116      311.80079      9038.6307      182018.86    
    194400   298.34144     -58319.055     -58629.994      310.93877      8970.4731      182018.86    
    194500   294.20951     -58324.514     -58631.147      306.63237      8913.4902      182018.86    
    194600   299.29446     -58322.136     -58634.068      311.93203      8859.2456      182018.86    
    194700   298.96929     -58315.833     -58627.426      311.59313      8999.0721      182018.86    
    194800   302.8731      -58314.927     -58630.588      315.66178      8987.4487      182018.86    
    194900   298.58826     -58317.145     -58628.341      311.19601      8922.8433      182018.86    
    195000   302.11813     -58315.811     -58630.686      314.87493      8992.7554      182018.86    
    195100   302.23581     -58314.507     -58629.505      314.99758      8969.3424      182018.86    
    195200   295.80009     -58315.174     -58623.464      308.29011      9037.6627      182018.86    
    195300   301.30976     -58313.412     -58627.445      314.03243      9028.8291      182018.86    
    195400   301.56238     -58315.191     -58629.486      314.29572      8973.31        182018.86    
    195500   295.46514     -58320.035     -58627.976      307.94103      8932.297       182018.86    
    195600   298.80471     -58321.984     -58633.406      311.42161      8824.976       182018.86    
    195700   300.8945      -58318.326     -58631.925      313.59964      8830.2398      182018.86    
    195800   299.92418     -58313.583     -58626.171      312.58835      9051.8675      182018.86    
    195900   296.44704     -58314.208     -58623.173      308.96438      9041.0699      182018.86    
    196000   304.4324      -58315.148     -58632.435      317.28692      8915.3903      182018.86    
    196100   297.28288     -58321.479     -58631.314      309.83551      8761.7702      182018.86    
    196200   298.82671     -58320.138     -58631.583      311.44453      8872.1907      182018.86    
    196300   300.1039      -58316.604     -58629.379      312.77565      8973.4467      182018.86    
    196400   298.7834      -58315.923     -58627.323      311.3994       9010.705       182018.86    
    196500   299.68244     -58316.084     -58628.42       312.33639      8869.3905      182018.86    
    196600   303.41112     -58315.511     -58631.733      316.22252      8880.6547      182018.86    
    196700   299.60363     -58316.613     -58628.868      312.25426      8897.9974      182018.86    
    196800   297.9784      -58319.351     -58629.912      310.5604       8849.6718      182018.86    
    196900   298.31499     -58321.144     -58632.055      310.9112       8874.3307      182018.86    
    197000   297.27384     -58319.528     -58629.354      309.82609      9019.7103      182018.86    
    197100   302.05037     -58312.827     -58627.632      314.80432      8950.7249      182018.86    
    197200   306.45399     -58310.705     -58630.099      319.39387      8947.7558      182018.86    
    197300   298.40116     -58314.068     -58625.069      311.00102      8987.3868      182018.86    
    197400   298.58626     -58316.969     -58628.163      311.19393      8976.8004      182018.86    
    197500   301.84766     -58318.174     -58632.767      314.59304      8922.74        182018.86    
    197600   301.02231     -58317.832     -58631.565      313.73284      8867.571       182018.86    
    197700   298.57795     -58317.14      -58628.325      311.18526      8950.9265      182018.86    
    197800   298.36854     -58315.188     -58626.155      310.96702      8948.0715      182018.86    
    197900   305.65906     -58309.112     -58627.677      318.56537      8960.7309      182018.86    
    198000   301.88065     -58308.415     -58623.042      314.62742      9082.2476      182018.86    
    198100   301.76555     -58315.279     -58629.786      314.50746      8997.7667      182018.86    
    198200   295.83213     -58319.076     -58627.399      308.32351      8873.643       182018.86    
    198300   298.92043     -58317.054     -58628.596      311.54221      8977.3785      182018.86    
    198400   303.66574     -58313.495     -58629.983      316.48789      8952.0667      182018.86    
    198500   303.27419     -58313.525     -58629.604      316.0798       8926.1645      182018.86    
    198600   294.62793     -58320.509     -58627.577      307.06846      8885.939       182018.86    
    198700   297.52418     -58321.56      -58631.647      310.087        8866.4376      182018.86    
    198800   302.81164     -58318.35      -58633.947      315.59772      8877.539       182018.86    
    198900   300.88062     -58312.558     -58626.143      313.58517      8918.3304      182018.86    
    199000   300.64033     -58307.804     -58621.139      313.33474      9160.5733      182018.86    
    199100   301.69213     -58311.378     -58625.809      314.43094      9016.1164      182018.86    
    199200   299.22356     -58317.545     -58629.403      311.85814      8932.0323      182018.86    
    199300   302.38254     -58319.3       -58634.45       315.1505       8910.36        182018.86    
    199400   296.72469     -58320.243     -58629.497      309.25375      8915.276       182018.86    
    199500   299.01084     -58314.87      -58626.507      311.63644      9004.6788      182018.86    
    199600   301.95577     -58310.927     -58625.633      314.70572      9046.5132      182018.86    
    199700   302.22737     -58311.952     -58626.941      314.98878      9008.1969      182018.86    
    199800   300.14174     -58314.858     -58627.673      312.81508      8984.0443      182018.86    
    199900   300.07566     -58319.717     -58632.463      312.74622      8824.6951      182018.86    
    200000   295.22577     -58320.813     -58628.505      307.69154      8878.9131      182018.86    
Loop time of 26398.1 on 20 procs for 200000 steps with 8064 atoms

Performance: 0.655 ns/day, 36.664 hours/ns, 7.576 timesteps/s, 61.095 katom-step/s
100.0% CPU use with 20 MPI tasks x 1 OpenMP threads

MPI task timing breakdown:
Section |  min time  |  avg time  |  max time  |%varavg| %total
---------------------------------------------------------------
Pair    | 22841      | 24132      | 25964      | 686.6 | 91.41
Neigh   | 232.35     | 254.93     | 290.54     | 104.7 |  0.97
Comm    | 137.3      | 2004.9     | 3315.3     |2419.1 |  7.59
Output  | 0.48889    | 0.56607    | 0.65793    |   6.4 |  0.00
Modify  | 3.4599     | 4.293      | 5.1514     |  24.7 |  0.02
Other   |            | 1.914      |            |       |  0.01

Nlocal:          403.2 ave         433 max         382 min
Histogram: 8 0 0 0 4 4 0 0 0 4
Nghost:        1635.65 ave        1687 max        1597 min
Histogram: 7 4 1 0 0 0 0 0 0 8
Neighs:              0 ave           0 max           0 min
Histogram: 20 0 0 0 0 0 0 0 0 0
FullNghs:      23112.8 ave       24871 max       21852 min
Histogram: 8 0 0 1 1 5 1 0 0 4

Total # of neighbors = 462256
Ave neighs/atom = 57.323413
Neighbor list builds = 200000
Dangerous builds not checked
Total wall time: 7:19:58
