12
Lattice="5.136475506554316 0.0 0.0 0.0 5.19341333754447 0.0 -0.883442968274303 0.0 5.246159804521277" Properties=species:S:1:pos:R:3 energy=-111.08588366253844 stress="-0.007422386161272368 -0.0 0.0003029920130158191 -0.0 -0.008315753520861434 -0.0 0.0003029920130158191 -0.0 -0.008800540741686744" free_energy=-10702.146503816806 pbc="T T T"
Hf      0.7762038189194448  2.3501668291581748  3.68279798082485    
Hf      3.046909974681737  4.944150105556711  4.138358285486626     
Hf      3.4768272330490273  2.843247525261339  1.5633593416957139   
Hf      1.206121357063365  0.24926426962334255  1.1077988397499436  
O       1.9923882927377357  3.7560995537962394  0.09468011073273033 
O       2.4156598997102234  1.232091591716475  2.535088502166751    
O       2.260642995344876  1.4373149847910918  5.151477127466908    
O       1.8373715411046625  3.961322345404707  2.711068754608852    
O       -0.04009856273561367  1.7101732621660004  1.8395909106552648
O       4.637992808257605  4.332359369278529  0.8066572267456065    
O       4.293129979308621  3.48324132936595  3.406566397691778      
O       -0.3849615448673518  0.8610550379485409  4.4395001680755115 
