LAMMPS (27 Jun 2024)
OMP_NUM_THREADS environment is not set. Defaulting to 1 thread. (src/comm.cpp:98)
  using 1 OpenMP thread(s) per MPI task
Reading data file ...
  orthogonal box = (0 0 0) to (22.422218 22.19224 20.321894)
  5 by 2 by 2 MPI processor grid
  reading atoms ...
  448 atoms
  read_data CPU = 0.004 seconds
**************** Begin of POD Potentials ****************
species: Hf 
periodic boundary conditions: 1 1 1
number of environment clusters: 8
number of principal compoments: 2
inner cut-off radius: 1
outer cut-off radius: 5
cut-off function type: 1
gaussian_exponents: 
polynomial_degrees: 
bessel polynomial degree: 4
inverse polynomial degree: 10
one-body potential: 1
two-body radial basis functions: 8
three-body radial basis functions: 8
three-body angular degree: 6
four-body radial basis functions: 7
four-body angular degree: 5
five-body radial basis functions: 0
five-body angular degree: 0
six-body radial basis functions: 0
six-body angular degree: 0
seven-body radial basis functions: 0
seven-body angular degree: 0
number of local descriptors per element for one-body potential: 1
number of local descriptors per element for two-body potential: 8
number of local descriptors per element for three-body potential: 56
number of local descriptors per element for four-body potential: 112
number of local descriptors per element for five-body potential: 0
number of local descriptors per element for six-body potential: 0
number of local descriptors per element for seven-body potential: 0
number of local descriptors per element for all potentials: 177
number of global descriptors: 1409
**************** End of POD Potentials ****************

**************** Begin of Model Coefficients ****************
total number of coefficients for POD potential: 1409
total number of elements for PCA projection matrix: 352
total number of elements for PCA centroids: 16
**************** End of Model Coefficients ****************


CITE-CITE-CITE-CITE-CITE-CITE-CITE-CITE-CITE-CITE-CITE-CITE-CITE

Your simulation uses code contributions which should be cited:
- Type Label Framework: https://doi.org/10.1021/acs.jpcb.3c08419
The log file lists these citations in BibTeX format.

CITE-CITE-CITE-CITE-CITE-CITE-CITE-CITE-CITE-CITE-CITE-CITE-CITE

Neighbor list info ...
  update: every = 1 steps, delay = 0 steps, check = no
  max neighbors/atom: 2000, page size: 100000
  master list distance cutoff = 7
  ghost atom cutoff = 7
  binsize = 3.5, bins = 7 7 6
  1 neighbor lists, perpetual/occasional/extra = 1 0 0
  (1) pair pod, perpetual
      attributes: full, newton on
      pair build: full/bin/atomonly
      stencil: full/bin/3d
      bin: standard
Setting up Verlet run ...
  Unit style    : metal
  Current step  : 0
  Time step     : 0.001
Per MPI rank memory allocation (min/avg/max) = 2.586 | 2.586 | 2.586 Mbytes
   Step          Temp          TotEng         PotEng         KinEng         Press          Volume    
         0   300           -3231.7429     -3249.0767      17.333785      27701.818      10112.159    
       100   324.21342     -3235.6743     -3254.4071      18.73282       9343.264       10112.159    
       200   231.59422     -3236.5518     -3249.9331      13.381348      10906.493      10112.159    
       300   340.74036     -3235.2651     -3254.9529      19.687734      8966.6481      10112.159    
       400   353.08083     -3237.5617     -3257.9625      20.400758      8816.7053      10112.159    
       500   323.60982     -3240.16       -3258.858       18.697944      8148.9253      10112.159    
       600   271.15671     -3241.4        -3257.0673      15.667241      7998.1227      10112.159    
       700   274.28458     -3240.7086     -3256.5565      15.847967      9324.4944      10112.159    
       800   308.21375     -3239.3258     -3257.1341      17.80837       8684.05        10112.159    
       900   315.78612     -3238.6009     -3256.8468      18.245896      8756.7125      10112.159    
      1000   304.89127     -3239.0108     -3256.6272      17.616399      8794.4329      10112.159    
      1100   286.5077      -3240.0218     -3256.576       16.55421       8698.1558      10112.159    
      1200   294.96632     -3240.5475     -3257.5904      17.042943      8367.4583      10112.159    
      1300   292.97727     -3240.6562     -3257.5842      16.928017      8738.1747      10112.159    
      1400   289.81719     -3239.9744     -3256.7198      16.74543       8604.1416      10112.159    
      1500   321.9845      -3238.4808     -3257.0848      18.604034      8981.0503      10112.159    
      1600   313.23938     -3238.5487     -3256.6475      18.098747      8832.5771      10112.159    
      1700   287.85941     -3239.3142     -3255.9465      16.632311      9343.98        10112.159    
      1800   289.18356     -3240.0954     -3256.8042      16.70882       9239.5585      10112.159    
      1900   310.44086     -3239.9854     -3257.9225      17.937051      8440.6741      10112.159    
      2000   289.80229     -3240.1139     -3256.8584      16.744569      8683.8983      10112.159    
      2100   337.23874     -3239.1661     -3258.6515      19.485413      8599.6044      10112.159    
      2200   275.59393     -3239.4845     -3255.4081      15.92362       8844.118       10112.159    
      2300   311.90061     -3238.899      -3256.9204      18.021394      8535.3903      10112.159    
      2400   298.93211     -3239.8038     -3257.0759      17.272084      8868.549       10112.159    
      2500   297.2769      -3240.8962     -3258.0726      17.176446      8124.4875      10112.159    
      2600   283.22147     -3241.1918     -3257.5562      16.364334      8138.1469      10112.159    
      2700   299.3503      -3239.754      -3257.0503      17.296246      8494.8111      10112.159    
      2800   311.08373     -3239.0025     -3256.9767      17.974195      9145.0249      10112.159    
      2900   295.7536      -3239.8181     -3256.9065      17.088431      8265.3162      10112.159    
      3000   304.39601     -3240.2536     -3257.8414      17.587784      8161.7186      10112.159    
      3100   295.75585     -3240.0649     -3257.1534      17.088562      8906.9055      10112.159    
      3200   311.47462     -3238.498      -3256.4948      17.996781      9015.1378      10112.159    
      3300   308.89658     -3237.9503     -3255.7981      17.847823      9043.1205      10112.159    
      3400   308.94024     -3238.6103     -3256.4606      17.850346      9010.1066      10112.159    
      3500   301.30968     -3240.3846     -3257.7941      17.409458      7975.8639      10112.159    
      3600   278.13821     -3241.0336     -3257.1042      16.070627      8487.9451      10112.159    
      3700   313.75648     -3240.1435     -3258.2721      18.128625      8683.5219      10112.159    
      3800   296.78561     -3239.3974     -3256.5454      17.14806       8820.1487      10112.159    
      3900   318.70592     -3238.2953     -3256.7099      18.4146        8679.0426      10112.159    
      4000   309.623       -3238.7594     -3256.6492      17.889796      8374.9014      10112.159    
      4100   287.87096     -3240.7969     -3257.4299      16.632978      8379.2236      10112.159    
      4200   291.87106     -3240.9563     -3257.8204      16.864101      8137.5488      10112.159    
      4300   303.86933     -3240.2989     -3257.8563      17.557352      8398.1729      10112.159    
      4400   313.72231     -3239.0743     -3257.201       18.126651      9183.9722      10112.159    
      4500   289.15586     -3239.1746     -3255.8818      16.707219      8585.8806      10112.159    
      4600   317.46594     -3238.9718     -3257.3147      18.342955      8571.5242      10112.159    
      4700   304.86395     -3239.4773     -3257.0921      17.614821      9041.5897      10112.159    
      4800   294.64058     -3240.0544     -3257.0786      17.024122      8820.3288      10112.159    
      4900   294.64278     -3240.2362     -3257.2604      17.024249      8318.8044      10112.159    
      5000   298.29386     -3239.7752     -3257.0104      17.235206      8457.7038      10112.159    
      5100   311.36469     -3239.4697     -3257.4601      17.990429      9015.464       10112.159    
      5200   288.35083     -3239.9091     -3256.5698      16.660705      8765.4938      10112.159    
      5300   305.89164     -3239.7851     -3257.4593      17.6742        8862.8504      10112.159    
      5400   300.24832     -3239.9838     -3257.332       17.348133      8627.8981      10112.159    
      5500   277.95651     -3240.3466     -3256.4067      16.060128      8621.937       10112.159    
      5600   328.75838     -3239.3227     -3258.3181      18.995424      8828.1426      10112.159    
      5700   304.56174     -3238.7672     -3256.3646      17.59736       8887.6968      10112.159    
      5800   302.67099     -3238.9558     -3256.444       17.488114      8989.9182      10112.159    
      5900   297.4111      -3240.3399     -3257.5241      17.1842        8753.2669      10112.159    
      6000   295.9237      -3241.1129     -3258.2111      17.09826       8510.2744      10112.159    
      6100   279.9386      -3241.1074     -3257.2821      16.174652      8593.3063      10112.159    
      6200   304.97333     -3240.2113     -3257.8325      17.621141      8411.0361      10112.159    
      6300   292.49391     -3239.9596     -3256.8597      16.900089      8782.5822      10112.159    
      6400   297.86511     -3239.6806     -3256.891       17.210433      8615.5584      10112.159    
      6500   294.56871     -3239.9218     -3256.9417      17.019969      8722.1509      10112.159    
      6600   306.41445     -3240.1143     -3257.8187      17.704408      8613.3675      10112.159    
      6700   293.35153     -3240.4281     -3257.3777      16.949642      8728.6079      10112.159    
      6800   311.0471      -3240.0043     -3257.9763      17.972079      8547.9431      10112.159    
      6900   281.25777     -3239.9689     -3256.2198      16.250873      9019.7823      10112.159    
      7000   309.74138     -3239.0306     -3256.9273      17.896636      8911.3157      10112.159    
      7100   308.59143     -3238.7341     -3256.5643      17.830192      9138.7953      10112.159    
      7200   295.59929     -3240.0193     -3257.0988      17.079515      9081.1426      10112.159    
      7300   301.55291     -3241.0125     -3258.436       17.423512      8286.8996      10112.159    
      7400   287.00177     -3241.3322     -3257.915       16.582757      8575.365       10112.159    
      7500   296.29629     -3239.4712     -3256.591       17.119788      9074.835       10112.159    
      7600   315.10142     -3238.3499     -3256.5562      18.206335      9274.8301      10112.159    
      7700   308.31675     -3239.0732     -3256.8875      17.814321      8574.5443      10112.159    
      7800   292.52226     -3240.4821     -3257.3838      16.901727      8834.6294      10112.159    
      7900   298.68683     -3240.6879     -3257.9458      17.257911      8713.7981      10112.159    
      8000   282.72278     -3240.4494     -3256.7849      16.33552       9081.4217      10112.159    
      8100   319.77169     -3238.9031     -3257.3793      18.47618       8837.6118      10112.159    
      8200   300.4967      -3238.4649     -3255.8274      17.362484      9355.2861      10112.159    
      8300   311.8223      -3238.7053     -3256.7222      18.016869      9560.4602      10112.159    
      8400   292.00119     -3240.984      -3257.8556      16.87162       8877.2239      10112.159    
      8500   301.80531     -3241.0702     -3258.5083      17.438095      8797.9553      10112.159    
      8600   288.70141     -3240.4422     -3257.1231      16.680961      8825.5054      10112.159    
      8700   308.85741     -3239.1541     -3256.9996      17.84556       9183.2273      10112.159    
      8800   302.52844     -3239.2625     -3256.7424      17.479877      8622.255       10112.159    
      8900   297.15012     -3239.7962     -3256.9653      17.169121      9208.3797      10112.159    
      9000   294.31327     -3241.0503     -3258.0555      17.00521       8606.945       10112.159    
      9100   278.68139     -3242.1751     -3258.2771      16.102011      8601.1754      10112.159    
      9200   300.66011     -3240.9841     -3258.356       17.371926      8430.1741      10112.159    
      9300   284.43799     -3240.0541     -3256.4887      16.434623      9137.3319      10112.159    
      9400   310.02841     -3239.4103     -3257.3235      17.91322       9025.8242      10112.159    
      9500   311.93301     -3239.4731     -3257.4963      18.023266      8932.2323      10112.159    
      9600   284.25831     -3240.3819     -3256.8061      16.424242      8921.3391      10112.159    
      9700   294.42672     -3241.5664     -3258.5782      17.011765      8460.4986      10112.159    
      9800   279.05947     -3242.0116     -3258.1355      16.123857      8359.0569      10112.159    
      9900   295.9991      -3240.0669     -3257.1695      17.102616      8904.9477      10112.159    
     10000   313.32609     -3238.9831     -3257.0869      18.103758      8989.504       10112.159    
     10100   309.17087     -3239.4593     -3257.323       17.863672      9196.8989      10112.159    
     10200   280.97829     -3240.3504     -3256.5852      16.234725      9078.6856      10112.159    
     10300   294.98655     -3240.3216     -3257.3657      17.044112      9084.4551      10112.159    
     10400   296.96171     -3240.7128     -3257.871       17.158235      8623.3345      10112.159    
     10500   300.26516     -3240.7012     -3258.0503      17.349106      8415.3016      10112.159    
     10600   298.06908     -3239.7602     -3256.9824      17.222218      8882.4689      10112.159    
     10700   293.42206     -3238.9873     -3255.941       16.953717      9397.9221      10112.159    
     10800   316.99925     -3238.6654     -3256.9813      18.31599       8959.2045      10112.159    
     10900   306.09986     -3240.1242     -3257.8104      17.686231      8671.9073      10112.159    
     11000   295.22026     -3241.2468     -3258.3044      17.057616      8490.8241      10112.159    
     11100   291.0437      -3240.8718     -3257.6881      16.816297      8731.1536      10112.159    
     11200   298.66876     -3239.787      -3257.0438      17.256867      8727.7427      10112.159    
     11300   312.3725      -3239.4168     -3257.4654      18.04866       9155.0147      10112.159    
     11400   280.17523     -3239.7827     -3255.971       16.188325      9303.3599      10112.159    
     11500   302.85908     -3239.686      -3257.1849      17.498981      9022.4097      10112.159    
     11600   305.89135     -3239.9592     -3257.6334      17.674183      8905.7558      10112.159    
     11700   295.70361     -3240.4692     -3257.5548      17.085543      8999.1127      10112.159    
     11800   283.76714     -3241.8647     -3258.2606      16.395862      8379.9937      10112.159    
     11900   279.85271     -3241.7539     -3257.9236      16.16969       8685.8109      10112.159    
     12000   300.99195     -3240.3312     -3257.7223      17.3911        8725.6658      10112.159    
     12100   295.06679     -3239.4341     -3256.4828      17.048748      8961.7817      10112.159    
     12200   311.62639     -3238.967      -3256.9725      18.00555       9036.9473      10112.159    
     12300   306.03729     -3239.4787     -3257.1613      17.682616      8867.1298      10112.159    
     12400   291.2006      -3240.779      -3257.6043      16.825362      9055.4359      10112.159    
     12500   288.4446      -3241.7743     -3258.4404      16.666122      8402.7861      10112.159    
     12600   281.25046     -3241.4326     -3257.683       16.250451      8849.8913      10112.159    
     12700   290.74948     -3240.5199     -3257.3192      16.799297      8948.1209      10112.159    
     12800   304.15771     -3239.487      -3257.0611      17.574015      8780.3151      10112.159    
     12900   309.6597      -3238.9564     -3256.8483      17.891916      9184.1889      10112.159    
     13000   286.46967     -3239.4566     -3256.0086      16.552013      9002.3101      10112.159    
     13100   302.90094     -3241.0059     -3258.5073      17.501399      8076.5069      10112.159    
     13200   282.18178     -3241.7501     -3258.0544      16.304261      8502.4382      10112.159    
     13300   292.64952     -3240.8578     -3257.7669      16.90908       8838.4789      10112.159    
     13400   299.38113     -3240.0525     -3257.3505      17.298028      8903.1761      10112.159    
     13500   301.63211     -3239.5946     -3257.0227      17.428087      9071.4138      10112.159    
     13600   292.80965     -3239.5345     -3256.4528      16.918332      8686.327       10112.159    
     13700   303.11598     -3239.533      -3257.0469      17.513825      8958.4539      10112.159    
     13800   298.50522     -3240.8136     -3258.061       17.247418      8709.6121      10112.159    
     13900   294.56448     -3241.5459     -3258.5657      17.019725      8340.1605      10112.159    
     14000   291.80389     -3241.0842     -3257.9444      16.86022       9058.3766      10112.159    
     14100   292.94376     -3239.5053     -3256.4314      16.926081      8939.0242      10112.159    
     14200   305.59145     -3238.9911     -3256.6479      17.656855      8707.5021      10112.159    
     14300   316.28431     -3239.2481     -3257.5228      18.274681      8900.1862      10112.159    
     14400   295.76438     -3240.4753     -3257.5644      17.089055      8578.9462      10112.159    
     14500   299.1705      -3241.1453     -3258.4312      17.285858      8554.8897      10112.159    
     14600   278.43116     -3240.961      -3257.0485      16.087553      8709.6325      10112.159    
     14700   296.37328     -3240.2972     -3257.4214      17.124236      9097.0054      10112.159    
     14800   300.81342     -3239.9158     -3257.2966      17.380784      8866.9486      10112.159    
     14900   319.23194     -3239.3815     -3257.8265      18.444993      8873.6749      10112.159    
     15000   290.78782     -3239.8479     -3256.6494      16.801512      8708.7489      10112.159    
     15100   282.74616     -3240.566      -3256.9029      16.336871      9196.0969      10112.159    
     15200   284.22159     -3241.6462     -3258.0684      16.42212       8499.1674      10112.159    
     15300   291.02129     -3241.6275     -3258.4425      16.815002      8051.3651      10112.159    
     15400   313.04492     -3240.1088     -3258.1964      18.087512      8428.9703      10112.159    
     15500   293.0566      -3239.7394     -3256.672       16.932601      9102.6329      10112.159    
     15600   294.99065     -3239.686      -3256.7304      17.044349      9008.6463      10112.159    
     15700   306.06088     -3239.9838     -3257.6678      17.683979      8609.0458      10112.159    
     15800   297.76734     -3240.4227     -3257.6275      17.204784      8723.4233      10112.159    
     15900   298.79938     -3240.5428     -3257.8072      17.264414      8906.5977      10112.159    
     16000   283.46227     -3240.4865     -3256.8647      16.378247      8903.4806      10112.159    
     16100   301.85271     -3239.4815     -3256.9223      17.440834      8932.4768      10112.159    
     16200   315.13469     -3238.6075     -3256.8157      18.208257      9123.8712      10112.159    
     16300   307.78359     -3239.1221     -3256.9056      17.783516      8966.3833      10112.159    
     16400   299.85876     -3240.9059     -3258.2316      17.325625      8554.4254      10112.159    
     16500   289.76638     -3241.5313     -3258.2738      16.742494      8854.7051      10112.159    
     16600   285.9612      -3240.8014     -3257.3241      16.522634      9044.581       10112.159    
     16700   310.59849     -3239.8835     -3257.8297      17.946159      8782.7125      10112.159    
     16800   289.87726     -3239.9149     -3256.6638      16.748901      8991.2562      10112.159    
     16900   302.72285     -3239.1532     -3256.6443      17.49111       9084.7193      10112.159    
     17000   323.34716     -3237.9975     -3256.6803      18.682767      9681.3856      10112.159    
     17100   315.9877      -3238.0665     -3256.3241      18.257543      9167.3787      10112.159    
     17200   299.7117      -3239.6287     -3256.9459      17.317128      8972.4638      10112.159    
     17300   285.63842     -3240.7607     -3257.2647      16.503984      9188.8958      10112.159    
     17400   296.91831     -3240.8311     -3257.9868      17.155727      8734.875       10112.159    
     17500   313.99706     -3239.8131     -3257.9557      18.142525      8662.8225      10112.159    
     17600   290.20068     -3239.1567     -3255.9243      16.767588      9254.0529      10112.159    
     17700   314.39483     -3239.1122     -3257.2777      18.165508      9173.5275      10112.159    
     17800   293.03054     -3240.0234     -3256.9545      16.931095      8926.9036      10112.159    
     17900   295.63517     -3240.302      -3257.3836      17.081589      8464.0556      10112.159    
     18000   307.70981     -3240.0849     -3257.8641      17.779253      9053.5478      10112.159    
     18100   289.32946     -3240.5431     -3257.2603      16.717249      8640.2903      10112.159    
     18200   292.56947     -3240.527      -3257.4314      16.904455      8733.8297      10112.159    
     18300   296.14587     -3239.7564     -3256.8675      17.111097      8923.7624      10112.159    
     18400   318.86248     -3238.5779     -3257.0016      18.423646      9302.5992      10112.159    
     18500   312.08588     -3238.5458     -3256.5779      18.032099      9273.5564      10112.159    
     18600   285.24757     -3240.466      -3256.9474      16.4814        8902.4175      10112.159    
     18700   296.90662     -3240.936      -3258.0911      17.155052      8582.0499      10112.159    
     18800   301.03715     -3240.5041     -3257.8978      17.393712      8712.1231      10112.159    
     18900   293.01977     -3239.6398     -3256.5703      16.930473      8938.5541      10112.159    
     19000   324.02403     -3238.5361     -3257.258       18.721877      9224.4077      10112.159    
     19100   291.59353     -3239.3858     -3256.2338      16.848066      8745.8131      10112.159    
     19200   285.76427     -3241.0435     -3257.5547      16.511255      8725.6142      10112.159    
     19300   285.95852     -3242.392      -3258.9144      16.522479      8143.6125      10112.159    
     19400   284.86031     -3241.6371     -3258.0961      16.459025      8646.6546      10112.159    
     19500   299.77348     -3240.1394     -3257.4601      17.320697      8614.4963      10112.159    
     19600   312.77612     -3239.2624     -3257.3344      18.07198       9000.6681      10112.159    
     19700   301.00756     -3239.3543     -3256.7463      17.392001      9312.0613      10112.159    
     19800   299.01694     -3240.0149     -3257.2918      17.276985      8792.9733      10112.159    
     19900   285.39904     -3241.174      -3257.6641      16.490153      8701.0691      10112.159    
     20000   292.04872     -3241.4995     -3258.3738      16.874366      8370.0503      10112.159    
     20100   306.18407     -3240.5388     -3258.2299      17.691097      8014.9266      10112.159    
     20200   290.28403     -3239.2181     -3255.9905      16.772404      9612.5268      10112.159    
     20300   313.25094     -3238.7664     -3256.8658      18.099415      9106.9393      10112.159    
     20400   296.6892      -3239.472      -3256.6145      17.14249       9025.7084      10112.159    
     20500   308.23849     -3240.0582     -3257.868       17.809799      8907.4151      10112.159    
     20600   284.1486      -3241.9503     -3258.3682      16.417903      8303.1683      10112.159    
     20700   280.5365      -3241.8003     -3258.0095      16.209198      8664.1478      10112.159    
     20800   277.32325     -3240.6435     -3256.6671      16.023539      8849.2854      10112.159    
     20900   304.614       -3239.7053     -3257.3057      17.600379      8871.6018      10112.159    
     21000   303.73195     -3239.3333     -3256.8827      17.549415      8947.1595      10112.159    
     21100   311.44591     -3239.3622     -3257.3573      17.995122      8771.7139      10112.159    
     21200   285.88609     -3240.9764     -3257.4947      16.518294      8764.4048      10112.159    
     21300   286.00149     -3241.3314     -3257.8564      16.524961      8520.0151      10112.159    
     21400   291.2558      -3240.8256     -3257.6541      16.828552      8779.6997      10112.159    
     21500   292.19324     -3240.1596     -3257.0423      16.882717      8982.9024      10112.159    
     21600   287.52483     -3239.7864     -3256.3994      16.612979      9017.5062      10112.159    
     21700   314.92635     -3239.5285     -3257.7247      18.19622       8883.4776      10112.159    
     21800   294.53583     -3240.1656     -3257.1837      17.01807       8764.1592      10112.159    
     21900   284.38496     -3241.1755     -3257.6071      16.43156       8936.9229      10112.159    
     22000   298.67558     -3241.3081     -3258.5654      17.257262      8488.6826      10112.159    
     22100   282.7676      -3240.3355     -3256.6736      16.33811       9173.7215      10112.159    
     22200   308.50756     -3239.0242     -3256.8496      17.825346      8952.4343      10112.159    
     22300   303.25995     -3239.0093     -3256.5314      17.522143      8942.4759      10112.159    
     22400   298.99074     -3239.6442     -3256.9197      17.275471      9130.5808      10112.159    
     22500   299.49506     -3240.8587     -3258.1633      17.30461       8671.5514      10112.159    
     22600   285.20603     -3241.558      -3258.037       16.479001      8552.2451      10112.159    
     22700   311.54262     -3239.577      -3257.5777      18.00071       8788.4253      10112.159    
     22800   317.73069     -3238.2985     -3256.6568      18.358252      9245.3352      10112.159    
     22900   301.01578     -3238.8624     -3256.2548      17.392477      9228.5633      10112.159    
     23000   299.95254     -3240.0601     -3257.3911      17.331043      9112.3942      10112.159    
     23100   303.78043     -3240.633      -3258.1852      17.552216      8258.0036      10112.159    
     23200   289.69002     -3240.514      -3257.2521      16.738082      8895.8203      10112.159    
     23300   301.03091     -3239.1957     -3256.589       17.393351      9275.1795      10112.159    
     23400   319.73797     -3237.1769     -3255.6512      18.474231      9469.5839      10112.159    
     23500   325.62134     -3237.6976     -3256.5117      18.814168      9536.5561      10112.159    
     23600   303.28056     -3238.9551     -3256.4784      17.523334      9221.9995      10112.159    
     23700   279.58993     -3239.9961     -3256.1506      16.154506      9290.4325      10112.159    
     23800   315.53209     -3239.9953     -3258.2265      18.231219      8896.8643      10112.159    
     23900   293.50136     -3240.7173     -3257.6756      16.958299      9024.8573      10112.159    
     24000   288.86944     -3241.6719     -3258.3626      16.69067       8622.4511      10112.159    
     24100   276.52193     -3242.0953     -3258.0725      15.977239      8574.7112      10112.159    
     24200   284.19821     -3240.6102     -3257.0309      16.42077       9152.212       10112.159    
     24300   310.81813     -3239.3504     -3257.3092      17.958849      9026.4363      10112.159    
     24400   304.79761     -3239.2696     -3256.8806      17.610988      9079.9239      10112.159    
     24500   317.2835      -3239.7945     -3258.1269      18.332414      9065.8642      10112.159    
     24600   283.47547     -3240.9393     -3257.3183      16.37901       9096.8514      10112.159    
     24700   285.60073     -3240.8886     -3257.3904      16.501806      8864.8494      10112.159    
     24800   303.42424     -3239.7893     -3257.3209      17.531635      9080.7756      10112.159    
     24900   325.82313     -3238.0629     -3256.8887      18.825828      9151.6814      10112.159    
     25000   304.61558     -3238.5078     -3256.1083      17.600471      9620.6096      10112.159    
     25100   286.00364     -3239.8166     -3256.3416      16.525086      8903.63        10112.159    
     25200   295.95243     -3240.4808     -3257.5807      17.09992       9282.8935      10112.159    
     25300   298.68576     -3240.5966     -3257.8545      17.257849      8829.7095      10112.159    
     25400   314.96953     -3239.612      -3257.8107      18.198714      8748.8378      10112.159    
     25500   315.32494     -3238.3013     -3256.5206      18.219249      9146.325       10112.159    
     25600   313.59944     -3238.4248     -3256.5443      18.119551      9529.5551      10112.159    
     25700   283.4115      -3240.438      -3256.8133      16.375314      9068.2329      10112.159    
     25800   307.16305     -3240.5783     -3258.3259      17.747662      8723.1667      10112.159    
     25900   296.06136     -3240.6509     -3257.7571      17.106214      8741.594       10112.159    
     26000   282.74639     -3240.0064     -3256.3432      16.336884      9239.7125      10112.159    
     26100   314.65059     -3238.9092     -3257.0895      18.180286      9227.7026      10112.159    
     26200   299.94888     -3239.2825     -3256.6134      17.330832      8992.7472      10112.159    
     26300   305.79293     -3239.8773     -3257.5457      17.668497      8897.4343      10112.159    
     26400   280.55924     -3241.6166     -3257.8271      16.210512      8564.9386      10112.159    
     26500   298.0952      -3241.4043     -3258.628       17.223727      8569.4768      10112.159    
     26600   288.47188     -3240.8445     -3257.5122      16.667699      8865.979       10112.159    
     26700   298.75527     -3239.7716     -3257.0334      17.261866      9098.9987      10112.159    
     26800   291.87243     -3239.5743     -3256.4385      16.86418       9356.4266      10112.159    
     26900   303.67448     -3239.663      -3257.2091      17.546094      8926.3269      10112.159    
     27000   300.86617     -3239.9013     -3257.2851      17.383832      8842.5316      10112.159    
     27100   308.57047     -3239.9028     -3257.7317      17.828981      8721.7666      10112.159    
     27200   295.30225     -3240.1651     -3257.2274      17.062353      9247.1438      10112.159    
     27300   294.78929     -3240.3864     -3257.4191      17.032714      8929.9891      10112.159    
     27400   295.25122     -3240.3113     -3257.3707      17.059404      8757.5704      10112.159    
     27500   311.42598     -3239.4346     -3257.4286      17.99397       9171.5804      10112.159    
     27600   304.37832     -3238.7142     -3256.301       17.586762      9333.766       10112.159    
     27700   319.48219     -3238.4025     -3256.8619      18.459453      9048.6543      10112.159    
     27800   305.55463     -3239.8433     -3257.4981      17.654728      9452.5409      10112.159    
     27900   287.69978     -3241.0022     -3257.6253      16.623087      8796.915       10112.159    
     28000   287.72167     -3240.7769     -3257.4013      16.624352      8993.7927      10112.159    
     28100   318.34357     -3239.4745     -3257.8681      18.393664      8639.3811      10112.159    
     28200   305.10745     -3239.1562     -3256.7851      17.62889       9224.0411      10112.159    
     28300   301.16731     -3239.1286     -3256.5298      17.401232      9247.1791      10112.159    
     28400   304.34986     -3239.4989     -3257.0841      17.585117      9324.476       10112.159    
     28500   291.16564     -3239.9771     -3256.8004      16.823342      8878.4115      10112.159    
     28600   304.85885     -3239.8469     -3257.4614      17.614526      8765.6587      10112.159    
     28700   300.13549     -3239.7439     -3257.0855      17.341614      9200.8096      10112.159    
     28800   290.58107     -3239.5962     -3256.3857      16.789567      9348.7079      10112.159    
     28900   305.8853      -3239.2186     -3256.8924      17.673834      9383.9237      10112.159    
     29000   298.33787     -3239.5572     -3256.7949      17.237749      9235.9174      10112.159    
     29100   302.67589     -3240.479      -3257.9674      17.488397      8491.123       10112.159    
     29200   290.76415     -3241.2842     -3258.0844      16.800145      8803.0303      10112.159    
     29300   275.6316      -3241.4346     -3257.3604      15.925797      9031.303       10112.159    
     29400   302.88046     -3239.7055     -3257.2057      17.500216      8857.4398      10112.159    
     29500   312.08465     -3238.829      -3256.861       18.032028      9144.1099      10112.159    
     29600   300.23273     -3239.0498     -3256.397       17.347232      9275.6084      10112.159    
     29700   297.29427     -3240.3327     -3257.5101      17.17745       8945.7291      10112.159    
     29800   303.65321     -3240.9189     -3258.4638      17.544865      8445.5017      10112.159    
     29900   281.14201     -3240.8909     -3257.1351      16.244184      8772.6491      10112.159    
     30000   295.13045     -3239.8752     -3256.9276      17.052427      9183.7208      10112.159    
     30100   308.87566     -3239.5113     -3257.3579      17.846615      9242.7951      10112.159    
     30200   310.62158     -3239.5434     -3257.4909      17.947493      8902.0771      10112.159    
     30300   302.43501     -3239.5032     -3256.9776      17.474478      8923.3874      10112.159    
     30400   278.60896     -3239.9516     -3256.0494      16.097826      9284.6848      10112.159    
     30500   295.62223     -3241.1568     -3258.2376      17.080841      8606.5214      10112.159    
     30600   292.50224     -3241.803      -3258.7036      16.90057       8305.0074      10112.159    
     30700   284.04673     -3240.7126     -3257.1247      16.412017      8572.3583      10112.159    
     30800   304.56362     -3239.6044     -3257.2018      17.597468      8840.6837      10112.159    
     30900   287.22912     -3239.8726     -3256.4685      16.595893      9142.1327      10112.159    
     31000   312.45206     -3239.5935     -3257.6468      18.053257      8812.3867      10112.159    
     31100   300.07528     -3239.6751     -3257.0132      17.338135      9138.8226      10112.159    
     31200   302.29783     -3240.1543     -3257.6209      17.466552      9068.3678      10112.159    
     31300   279.4527      -3241.1701     -3257.3167      16.146577      8650.6927      10112.159    
     31400   297.76229     -3240.9918     -3258.1963      17.204492      9020.5796      10112.159    
     31500   298.29699     -3239.6875     -3256.9229      17.235387      8959.2381      10112.159    
     31600   317.87653     -3238.3622     -3256.7289      18.366679      9204.0792      10112.159    
     31700   307.13794     -3238.6039     -3256.3501      17.746211      9184.4369      10112.159    
     31800   291.29408     -3239.851      -3256.6818      16.830764      9136.4026      10112.159    
     31900   308.92811     -3240.0758     -3257.9254      17.849645      8761.9125      10112.159    
     32000   301.79221     -3240.2517     -3257.6891      17.437338      8648.4579      10112.159    
     32100   291.9965      -3240.0919     -3256.9632      16.871349      8825.3641      10112.159    
     32200   314.19556     -3238.4556     -3256.6096      18.153995      9627.656       10112.159    
     32300   297.038       -3238.0311     -3255.1937      17.162643      9632.0742      10112.159    
     32400   317.72085     -3238.7994     -3257.1571      18.357684      9220.3634      10112.159    
     32500   305.47837     -3240.7023     -3258.3526      17.650322      8602.0077      10112.159    
     32600   288.45022     -3240.9038     -3257.5703      16.666447      8994.6247      10112.159    
     32700   292.56457     -3240.2226     -3257.1268      16.904172      8970.9761      10112.159    
     32800   309.81355     -3239.1993     -3257.1001      17.900805      9136.7418      10112.159    
     32900   296.17831     -3238.6642     -3255.7772      17.112971      9372.3375      10112.159    
     33000   313.71783     -3238.3296     -3256.456       18.126392      8933.2212      10112.159    
     33100   303.87474     -3239.3466     -3256.9042      17.557665      8831.3588      10112.159    
     33200   292.66837     -3240.7941     -3257.7043      16.910169      8863.5792      10112.159    
     33300   305.01727     -3240.7674     -3258.3911      17.62368       8509.6803      10112.159    
     33400   294.92176     -3240.019      -3257.0594      17.040368      8910.1308      10112.159    
     33500   306.93216     -3238.7754     -3256.5098      17.734321      9088.8989      10112.159    
     33600   316.31886     -3238.4892     -3256.7659      18.276678      9365.133       10112.159    
     33700   293.18252     -3239.9408     -3256.8807      16.939876      9232.484       10112.159    
     33800   292.8585      -3241.3591     -3258.2802      16.921155      8621.0148      10112.159    
     33900   290.86561     -3240.9605     -3257.7665      16.806007      8670.3269      10112.159    
     34000   305.62676     -3239.6686     -3257.3275      17.658896      9086.9176      10112.159    
     34100   302.39957     -3239.053      -3256.5254      17.472431      9448.2716      10112.159    
     34200   296.75475     -3239.1273     -3256.2735      17.146277      9327.7137      10112.159    
     34300   292.2692      -3240.4208     -3257.3079      16.887105      9187.2601      10112.159    
     34400   300.35499     -3241.3731     -3258.7274      17.354297      8293.2771      10112.159    
     34500   285.67709     -3241.0986     -3257.6048      16.506218      8726.8731      10112.159    
     34600   302.09971     -3239.8944     -3257.3495      17.455105      9152.0474      10112.159    
     34700   297.4916      -3239.5632     -3256.752       17.188852      9129.1816      10112.159    
     34800   293.39524     -3239.7392     -3256.6913      16.952167      8765.3124      10112.159    
     34900   304.21477     -3239.9395     -3257.5169      17.577312      9152.6518      10112.159    
     35000   284.61925     -3240.9936     -3257.4387      16.445097      8694.9001      10112.159    
     35100   295.99117     -3241.6224     -3258.7246      17.102158      8455.9385      10112.159    
     35200   285.30716     -3240.7119     -3257.1967      16.484844      8961.5709      10112.159    
     35300   296.00464     -3239.5086     -3256.6115      17.102936      9304.791       10112.159    
     35400   307.90992     -3239.5631     -3257.3539      17.790815      8788.6743      10112.159    
     35500   305.71365     -3239.9101     -3257.574       17.663916      8731.9949      10112.159    
     35600   289.3848      -3240.0504     -3256.7708      16.720447      8862.0606      10112.159    
     35700   300.64471     -3239.9227     -3257.2937      17.371037      9128.1727      10112.159    
     35800   285.03581     -3240.3335     -3256.8026      16.469165      8651.6582      10112.159    
     35900   305.33201     -3240.0009     -3257.6428      17.641865      8829.6432      10112.159    
     36000   298.25562     -3239.7514     -3256.9843      17.232997      8670.8613      10112.159    
     36100   313.99771     -3239.0633     -3257.2058      18.142563      9007.5889      10112.159    
     36200   290.39828     -3239.0269     -3255.8059      16.779005      9416.9091      10112.159    
     36300   297.32766     -3239.3003     -3256.4797      17.179379      9353.2114      10112.159    
     36400   294.42911     -3240.7139     -3257.7258      17.011903      8663.6208      10112.159    
     36500   305.81173     -3241.1074     -3258.777       17.669583      8659.9729      10112.159    
     36600   301.34293     -3240.2785     -3257.6899      17.411379      8557.8304      10112.159    
     36700   297.85525     -3239.5037     -3256.7136      17.209863      8925.4085      10112.159    
     36800   306.9884      -3239.2907     -3257.0283      17.73757       9244.2077      10112.159    
     36900   310.04468     -3239.5445     -3257.4587      17.91416       8953.0161      10112.159    
     37000   280.87605     -3241.3899     -3257.6187      16.228817      8773.5995      10112.159    
     37100   284.22654     -3241.9543     -3258.3767      16.422406      8533.9339      10112.159    
     37200   289.26324     -3241.0568     -3257.7703      16.713423      8900.9382      10112.159    
     37300   298.90595     -3240.1735     -3257.4441      17.270572      8769.373       10112.159    
     37400   302.55866     -3239.717      -3257.1986      17.481623      8934.1652      10112.159    
     37500   304.22148     -3239.3084     -3256.8861      17.5777        9129.7849      10112.159    
     37600   309.30719     -3238.9479     -3256.8194      17.871548      8835.2984      10112.159    
     37700   315.66697     -3238.7459     -3256.9849      18.239012      9205.5003      10112.159    
     37800   283.61216     -3240.0338     -3256.4207      16.386908      8785.3979      10112.159    
     37900   297.55339     -3240.5926     -3257.785       17.192422      8677.5547      10112.159    
     38000   278.86764     -3240.9718     -3257.0846      16.112773      8614.1672      10112.159    
     38100   315.44985     -3239.6549     -3257.8813      18.226467      8389.2919      10112.159    
     38200   302.88807     -3238.6706     -3256.1712      17.500656      9000.4354      10112.159    
     38300   313.14623     -3238.5303     -3256.6236      18.093365      9359.6679      10112.159    
     38400   288.03831     -3240.0445     -3256.6871      16.642647      9243.1832      10112.159    
     38500   305.62532     -3240.1829     -3257.8417      17.658813      8747.8143      10112.159    
     38600   294.62265     -3240.0536     -3257.0767      17.023086      8724.2904      10112.159    
     38700   303.839       -3239.3129     -3256.8685      17.5556        8951.2742      10112.159    
     38800   305.91137     -3238.8949     -3256.5702      17.67534       9302.0891      10112.159    
     38900   295.72119     -3239.5862     -3256.6728      17.086559      8979.0741      10112.159    
     39000   293.8104      -3240.8535     -3257.8297      16.976155      8434.1958      10112.159    
     39100   296.71678     -3241.2331     -3258.3771      17.144084      8554.236       10112.159    
     39200   281.13239     -3240.8862     -3257.1298      16.243628      8549.6785      10112.159    
     39300   310.53162     -3238.8765     -3256.8188      17.942295      9492.4         10112.159    
     39400   310.93417     -3238.924      -3256.8896      17.965554      9209.4243      10112.159    
     39500   297.49864     -3239.8545     -3257.0437      17.189259      8698.9622      10112.159    
     39600   299.75076     -3240.5592     -3257.8786      17.319384      8886.4263      10112.159    
     39700   265.08337     -3241.6779     -3256.9943      15.316328      9004.4023      10112.159    
     39800   318.02721     -3240.8366     -3259.212       18.375385      8253.5892      10112.159    
     39900   298.14467     -3239.2542     -3256.4808      17.226586      8982.5692      10112.159    
     40000   317.19731     -3238.7682     -3257.0957      18.327434      9235.9903      10112.159    
     40100   293.9764      -3239.7439     -3256.7296      16.985746      9453.1327      10112.159    
     40200   307.42446     -3239.8056     -3257.5684      17.762765      9043.8336      10112.159    
     40300   292.00825     -3240.117      -3256.989       16.872028      8799.728       10112.159    
     40400   304.78641     -3240.3923     -3258.0027      17.610341      9021.4253      10112.159    
     40500   280.76112     -3241.4753     -3257.6974      16.222177      8598.4704      10112.159    
     40600   279.59539     -3241.6268     -3257.7816      16.154822      8553.1618      10112.159    
     40700   317.12912     -3240.1626     -3258.4861      18.323494      8644.3926      10112.159    
     40800   286.24291     -3239.8697     -3256.4086      16.538911      8769.8825      10112.159    
     40900   296.20566     -3239.198      -3256.3125      17.114551      9267.3583      10112.159    
     41000   325.78776     -3238.2787     -3257.1025      18.823784      9101.0394      10112.159    
     41100   288.79417     -3239.5095     -3256.1958      16.686321      9086.0354      10112.159    
     41200   293.36862     -3240.9568     -3257.9074      16.950629      8553.9048      10112.159    
     41300   277.83817     -3241.4215     -3257.4748      16.053291      8656.6557      10112.159    
     41400   315.45698     -3240.3024     -3258.5293      18.226879      8637.0775      10112.159    
     41500   298.75265     -3239.9643     -3257.226       17.261715      9018.0813      10112.159    
     41600   282.02955     -3239.7588     -3256.0543      16.295465      9198.9791      10112.159    
     41700   316.24167     -3238.9202     -3257.1924      18.272218      8973.4002      10112.159    
     41800   307.63211     -3239.7076     -3257.4823      17.774763      8558.0659      10112.159    
     41900   295.20438     -3241.3104     -3258.3671      17.056698      8645.4876      10112.159    
     42000   280.11866     -3241.363      -3257.548       16.185056      8902.122       10112.159    
     42100   287.73469     -3240.0995     -3256.7246      16.625105      8853.6588      10112.159    
     42200   308.18799     -3239.1545     -3256.9614      17.806882      9033.7085      10112.159    
     42300   307.43264     -3239.1888     -3256.952       17.763238      9145.3715      10112.159    
     42400   311.21892     -3239.8809     -3257.8629      17.982007      8800.1829      10112.159    
     42500   276.87601     -3241.2017     -3257.1994      15.997698      8740.1308      10112.159    
     42600   292.10433     -3240.8283     -3257.7059      16.877579      8571.037       10112.159    
     42700   296.74524     -3240.4046     -3257.5503      17.145728      8710.781       10112.159    
     42800   315.62475     -3239.7782     -3258.0148      18.236572      8746.9853      10112.159    
     42900   298.29802     -3239.5349     -3256.7703      17.235446      9096.1868      10112.159    
     43000   293.60618     -3239.0972     -3256.0616      16.964355      9063.4677      10112.159    
     43100   317.36994     -3238.4164     -3256.7538      18.337408      9314.8647      10112.159    
     43200   305.63577     -3239.3496     -3257.009       17.659416      8992.6177      10112.159    
     43300   291.38631     -3240.3729     -3257.209       16.836093      8605.4569      10112.159    
     43400   301.14061     -3240.3589     -3257.7586      17.399689      8679.4721      10112.159    
     43500   296.16817     -3239.8892     -3257.0016      17.112385      9208.6783      10112.159    
     43600   316.96333     -3238.4395     -3256.7534      18.313915      9345.1771      10112.159    
     43700   295.32607     -3238.6597     -3255.7234      17.063729      9061.1775      10112.159    
     43800   314.44781     -3239.7629     -3257.9315      18.16857       9002.9754      10112.159    
     43900   294.90456     -3240.7127     -3257.7521      17.039375      8973.9721      10112.159    
     44000   288.3086      -3240.5376     -3257.1959      16.658265      8354.0762      10112.159    
     44100   300.42914     -3239.6085     -3256.9671      17.358581      9090.4992      10112.159    
     44200   311.13513     -3238.8788     -3256.8559      17.977165      9167.2016      10112.159    
     44300   308.67904     -3239.4318     -3257.267       17.835254      8794.7456      10112.159    
     44400   282.55087     -3241.1099     -3257.4355      16.325587      8859.4742      10112.159    
     44500   293.00838     -3241.109      -3258.0389      16.929814      8703.9039      10112.159    
     44600   292.49606     -3240.5347     -3257.4349      16.900213      8843.6863      10112.159    
     44700   296.95323     -3239.5008     -3256.6586      17.157745      9408.3485      10112.159    
     44800   313.70649     -3238.8629     -3256.9886      18.125736      8775.358       10112.159    
     44900   306.141       -3239.2656     -3256.9542      17.688608      9267.3164      10112.159    
     45000   283.39923     -3241.4095     -3257.7841      16.374605      8538.5788      10112.159    
     45100   283.7476      -3241.391      -3257.7857      16.394734      8749.7391      10112.159    
     45200   290.71533     -3240.4117     -3257.209       16.797324      8681.5067      10112.159    
     45300   316.68706     -3239.3244     -3257.6224      18.297952      9091.1234      10112.159    
     45400   305.65707     -3239.0212     -3256.6818      17.660647      9225.7265      10112.159    
     45500   302.34605     -3239.4758     -3256.9451      17.469339      8946.9955      10112.159    
     45600   289.93538     -3241.3475     -3258.0997      16.752259      9004.4096      10112.159    
     45700   280.47796     -3241.461      -3257.6668      16.205816      8313.0517      10112.159    
     45800   299.46271     -3240.4283     -3257.731       17.302741      8930.6965      10112.159    
     45900   312.13511     -3239.6444     -3257.6793      18.034944      9035.9471      10112.159    
     46000   297.25328     -3239.6469     -3256.822       17.175082      9293.9572      10112.159    
     46100   295.06796     -3239.705      -3256.7539      17.048816      8863.3101      10112.159    
     46200   305.803       -3239.5246     -3257.1936      17.669079      9245.5534      10112.159    
     46300   300.9217      -3239.0681     -3256.4551      17.38704       9324.593       10112.159    
     46400   315.21386     -3239.3666     -3257.5794      18.212831      8748.0032      10112.159    
     46500   304.87838     -3240.2398     -3257.8555      17.615655      8607.0034      10112.159    
     46600   292.76686     -3240.4932     -3257.409       16.91586       8828.6825      10112.159    
     46700   284.40696     -3240.2732     -3256.706       16.432831      9016.6337      10112.159    
     46800   323.41052     -3238.863      -3257.5494      18.686429      8930.6267      10112.159    
     46900   293.91535     -3238.7411     -3255.7233      16.982219      9197.3076      10112.159    
     47000   320.60788     -3238.6371     -3257.1616      18.524494      8872.3512      10112.159    
     47100   302.68337     -3240.5655     -3258.0543      17.488829      8679.2237      10112.159    
     47200   298.95054     -3240.8487     -3258.1218      17.273149      8259.8081      10112.159    
     47300   290.69185     -3240.5833     -3257.3793      16.795967      8706.2135      10112.159    
     47400   297.144       -3239.5804     -3256.7492      17.168768      8849.7737      10112.159    
     47500   325.80837     -3238.4682     -3257.2932      18.824974      9129.86        10112.159    
     47600   290.58754     -3239.2252     -3256.0152      16.78994       9182.2393      10112.159    
     47700   305.69636     -3239.7666     -3257.4295      17.662917      8708.0512      10112.159    
     47800   298.88712     -3240.6114     -3257.8809      17.269484      8795.6716      10112.159    
     47900   285.21568     -3240.814      -3257.2936      16.479558      8688.1777      10112.159    
     48000   297.87838     -3240.1174     -3257.3286      17.2112        8784.8731      10112.159    
     48100   282.29004     -3240.0112     -3256.3217      16.310517      9004.9486      10112.159    
     48200   314.96232     -3239.423      -3257.6213      18.198298      8585.1511      10112.159    
     48300   296.82865     -3239.4494     -3256.5999      17.150547      8883.9117      10112.159    
     48400   305.51873     -3239.0001     -3256.6527      17.652654      8901.7981      10112.159    
     48500   296.23353     -3239.7357     -3256.8519      17.116161      8775.3394      10112.159    
     48600   295.80675     -3240.6496     -3257.7411      17.091502      8474.4717      10112.159    
     48700   286.17904     -3240.8688     -3257.4041      16.53522       8604.7311      10112.159    
     48800   302.59593     -3239.8573     -3257.341       17.483777      8990.2087      10112.159    
     48900   309.49627     -3238.364      -3256.2465      17.882473      8993.6727      10112.159    
     49000   296.23804     -3238.8391     -3255.9556      17.116422      9001.039       10112.159    
     49100   315.58125     -3239.3503     -3257.5843      18.234059      8779.2426      10112.159    
     49200   297.53541     -3240.2427     -3257.4341      17.191383      8476.8333      10112.159    
     49300   303.77942     -3240.2232     -3257.7753      17.552158      8291.1022      10112.159    
     49400   293.47805     -3240.0504     -3257.0073      16.956952      8791.908       10112.159    
     49500   314.57177     -3239.4185     -3257.5942      18.175732      8819.5941      10112.159    
     49600   304.32727     -3239.0829     -3256.6667      17.583812      8813.788       10112.159    
     49700   311.63294     -3238.4633     -3256.4692      18.005929      8881.3996      10112.159    
     49800   307.64639     -3238.5592     -3256.3347      17.775589      8971.5789      10112.159    
     49900   294.89949     -3239.8286     -3256.8677      17.039082      8731.3282      10112.159    
     50000   291.64825     -3240.6405     -3257.4918      16.851227      8542.6754      10112.159    
     50100   302.57549     -3240.3973     -3257.8799      17.482595      8515.3826      10112.159    
     50200   304.9745      -3239.5732     -3257.1944      17.621209      8715.7188      10112.159    
     50300   316.98041     -3238.1899     -3256.5048      18.314901      8986.7083      10112.159    
     50400   322.60797     -3238.1909     -3256.831       18.640058      9247.0408      10112.159    
     50500   295.6899      -3240.2731     -3257.3579      17.084751      8849.8461      10112.159    
     50600   294.54829     -3240.8861     -3257.9048      17.01879       8648.0592      10112.159    
     50700   279.273       -3240.8785     -3257.0147      16.136194      8624.0956      10112.159    
     50800   315.15273     -3239.3306     -3257.5399      18.209299      8979.7034      10112.159    
     50900   300.34839     -3239.3257     -3256.6797      17.353915      9037.4082      10112.159    
     51000   301.10848     -3239.6914     -3257.0893      17.397833      8843.3302      10112.159    
     51100   291.15176     -3240.3177     -3257.1403      16.822541      8859.9784      10112.159    
     51200   295.89679     -3241.3852     -3258.4819      17.096705      8452.7289      10112.159    
     51300   281.64722     -3242.3462     -3258.6195      16.273375      7982.6432      10112.159    
     51400   290.23412     -3241.2942     -3258.0637      16.76952       8563.89        10112.159    
     51500   296.26309     -3240.1896     -3257.3075      17.117869      9043.8305      10112.159    
     51600   312.46721     -3239.5886     -3257.6427      18.054132      8390.941       10112.159    
     51700   291.55369     -3239.4137     -3256.2594      16.845764      9032.9697      10112.159    
     51800   319.98918     -3238.397      -3256.8857      18.488746      9031.6974      10112.159    
     51900   318.35655     -3238.2232     -3256.6177      18.394414      9062.9109      10112.159    
     52000   310.95568     -3239.8403     -3257.8071      17.966797      8728.7607      10112.159    
     52100   280.75163     -3240.9969     -3257.2185      16.221629      8580.5335      10112.159    
     52200   312.64563     -3240.3658     -3258.4302      18.064441      8706.9594      10112.159    
     52300   288.79271     -3240.2188     -3256.905       16.686237      8765.1014      10112.159    
     52400   307.78089     -3239.2683     -3257.0517      17.78336       9184.3421      10112.159    
     52500   306.02446     -3237.6214     -3255.3033      17.681874      9539.1973      10112.159    
     52600   338.37793     -3237.4268     -3256.978       19.551235      9161.2152      10112.159    
     52700   311.42136     -3238.6425     -3256.6362      17.993704      9021.1531      10112.159    
     52800   293.03957     -3239.7598     -3256.6914      16.931617      9122.2235      10112.159    
     52900   303.43151     -3240.2659     -3257.7979      17.532056      8697.7089      10112.159    
     53000   293.71655     -3240.8851     -3257.8559      16.970732      8801.4606      10112.159    
     53100   294.1865      -3241.0128     -3258.0107      16.997885      8602.0586      10112.159    
     53200   305.15835     -3239.3766     -3257.0084      17.631831      8899.1295      10112.159    
     53300   305.17305     -3238.763      -3256.3957      17.632681      9204.344       10112.159    
     53400   304.88945     -3239.3433     -3256.9596      17.616295      9009.88        10112.159    
     53500   304.39183     -3240.0392     -3257.6268      17.587542      8595.2223      10112.159    
     53600   284.5175      -3241.3613     -3257.8005      16.439218      8714.1748      10112.159    
     53700   286.71784     -3242.0637     -3258.63        16.566352      8457.9807      10112.159    
     53800   286.20103     -3241.3834     -3257.9199      16.536491      8703.9424      10112.159    
     53900   282.69674     -3240.5343     -3256.8683      16.334015      8979.1335      10112.159    
     54000   330.22082     -3239.2805     -3258.3604      19.079923      8783.9538      10112.159    
     54100   282.41359     -3239.6736     -3255.9912      16.317655      8854.217       10112.159    
     54200   308.76901     -3239.332      -3257.1724      17.840452      8933.0234      10112.159    
     54300   305.20003     -3239.9112     -3257.5454      17.634239      8931.1299      10112.159    
     54400   282.0817      -3241.4346     -3257.7331      16.298479      8705.5064      10112.159    
     54500   292.42104     -3241.2148     -3258.1107      16.895879      8506.858       10112.159    
     54600   301.19252     -3239.9617     -3257.3644      17.402688      8648.5729      10112.159    
     54700   311.92635     -3239.0564     -3257.0793      18.022881      9081.8669      10112.159    
     54800   297.40163     -3239.2201     -3256.4038      17.183653      9436.8693      10112.159    
     54900   296.68997     -3239.6605     -3256.8031      17.142534      9089.662       10112.159    
     55000   298.37882     -3240.269      -3257.5091      17.240115      8647.1028      10112.159    
     55100   304.31014     -3240.8678     -3258.4506      17.582822      8642.5602      10112.159    
     55200   279.91215     -3241.8441     -3258.0173      16.173124      8705.7587      10112.159    
     55300   285.70356     -3241.3636     -3257.8713      16.507747      8726.2928      10112.159    
     55400   303.64188     -3239.8753     -3257.4195      17.544211      8779.9384      10112.159    
     55500   295.50408     -3239.112      -3256.186       17.074014      9046.2527      10112.159    
     55600   319.78591     -3238.9126     -3257.3896      18.477001      9110.3522      10112.159    
     55700   292.36127     -3239.8688     -3256.7612      16.892425      8921.1685      10112.159    
     55800   299.04334     -3240.0257     -3257.3042      17.27851       8808.8203      10112.159    
     55900   300.2018      -3240.1744     -3257.5198      17.345445      9071.0037      10112.159    
     56000   289.32337     -3240.3594     -3257.0763      16.716897      8739.5081      10112.159    
     56100   317.96364     -3239.3929     -3257.7646      18.371712      8922.3902      10112.159    
     56200   314.69509     -3237.4558     -3255.6387      18.182857      9324.3113      10112.159    
     56300   319.1018      -3237.7305     -3256.168       18.437474      9722.2872      10112.159    
     56400   296.64893     -3239.0458     -3256.1859      17.140163      9273.7714      10112.159    
     56500   310.72842     -3239.6902     -3257.6439      17.953666      8973.4507      10112.159    
     56600   296.82494     -3240.8308     -3257.9811      17.150333      8317.1881      10112.159    
     56700   306.76895     -3240.7258     -3258.4506      17.724891      8584.2639      10112.159    
     56800   294.7889      -3240.2224     -3257.2551      17.032692      8875.6989      10112.159    
     56900   293.5549      -3239.8996     -3256.861       16.961392      9062.387       10112.159    
     57000   298.4699      -3239.8124     -3257.0577      17.245378      9139.3747      10112.159    
     57100   313.66404     -3239.7611     -3257.8844      18.123284      8584.6334      10112.159    
     57200   297.43525     -3240.2219     -3257.4075      17.185596      8786.7991      10112.159    
     57300   282.4589      -3240.8579     -3257.1782      16.320273      8954.3231      10112.159    
     57400   283.44895     -3241.1299     -3257.5074      16.377478      8770.7137      10112.159    
     57500   299.46073     -3240.4093     -3257.7119      17.302627      8894.6461      10112.159    
     57600   313.10313     -3239.1063     -3257.1972      18.090875      9131.3011      10112.159    
     57700   318.51099     -3238.5272     -3256.9305      18.403337      9042.2237      10112.159    
     57800   302.67465     -3239.3329     -3256.8212      17.488325      9026.6923      10112.159    
     57900   287.42129     -3240.2696     -3256.8766      16.606997      9148.2883      10112.159    
     58000   295.16154     -3240.2078     -3257.262       17.054223      9137.3745      10112.159    
     58100   292.5231      -3240.1368     -3257.0386      16.901775      8630.1739      10112.159    
     58200   297.28212     -3239.7146     -3256.8914      17.176748      9198.0117      10112.159    
     58300   317.80902     -3238.6228     -3256.9856      18.362778      9279.1126      10112.159    
     58400   310.99379     -3238.519      -3256.488       17.968999      9350.617       10112.159    
     58500   292.36248     -3240.2355     -3257.128       16.892495      9046.0279      10112.159    
     58600   291.74016     -3241.0111     -3257.8676      16.856538      8515.4408      10112.159    
     58700   305.52315     -3240.6226     -3258.2755      17.652909      8550.8303      10112.159    
     58800   297.75101     -3239.8315     -3257.0353      17.20384       8888.1207      10112.159    
     58900   317.83191     -3238.1074     -3256.4715      18.3641        9023.8036      10112.159    
     59000   313.99198     -3238.2455     -3256.3877      18.142232      9428.6835      10112.159    
     59100   309.83601     -3239.0882     -3256.9903      17.902103      9343.4414      10112.159    
     59200   288.00828     -3240.2157     -3256.8566      16.640912      8732.5747      10112.159    
     59300   300.65175     -3240.7176     -3258.089       17.371443      8878.5306      10112.159    
     59400   286.51783     -3240.8592     -3257.414       16.554795      8755.7915      10112.159    
     59500   326.75413     -3238.871      -3257.7507      18.87962       9032.8197      10112.159    
     59600   295.23704     -3238.909      -3255.9676      17.058585      9166.2414      10112.159    
     59700   316.47669     -3239.2333     -3257.5191      18.285797      9014.4649      10112.159    
     59800   293.92517     -3240.385      -3257.3677      16.982786      8740.4752      10112.159    
     59900   305.56961     -3240.6331     -3258.2887      17.655593      8437.6138      10112.159    
     60000   285.59081     -3240.6083     -3257.1096      16.501233      8868.5739      10112.159    
     60100   295.1657      -3240.2015     -3257.256       17.054463      9150.7362      10112.159    
     60200   311.34484     -3239.6992     -3257.6885      17.989282      9016.3534      10112.159    
     60300   297.85564     -3239.3973     -3256.6072      17.209886      8917.7862      10112.159    
     60400   322.031       -3238.3217     -3256.9284      18.606721      9260.0678      10112.159    
     60500   292.3509      -3238.8226     -3255.7144      16.891826      9894.4715      10112.159    
     60600   292.9682      -3240.3673     -3257.2948      16.927493      8804.2898      10112.159    
     60700   297.40267     -3240.69       -3257.8737      17.183713      8709.7032      10112.159    
     60800   302.43699     -3240.3939     -3257.8685      17.474593      8803.7039      10112.159    
     60900   307.93175     -3239.5523     -3257.3444      17.792077      8987.3041      10112.159    
     61000   299.83232     -3237.8622     -3255.1863      17.324097      9655.0696      10112.159    
     61100   329.71937     -3237.5241     -3256.575       19.050949      9541.2379      10112.159    
     61200   308.07821     -3238.6712     -3256.4718      17.800538      9578.0912      10112.159    
     61300   291.58135     -3239.3672     -3256.2145      16.847362      9561.2148      10112.159    
     61400   308.1863      -3240.1523     -3257.9591      17.806784      8662.6193      10112.159    
     61500   302.83347     -3241.0182     -3258.5157      17.497501      8985.5703      10112.159    
     61600   275.70809     -3240.9888     -3256.919       15.930216      8875.6473      10112.159    
     61700   311.79649     -3239.5873     -3257.6026      18.015378      9137.7662      10112.159    
     61800   289.2749      -3239.2825     -3255.9966      16.714097      9610.6221      10112.159    
     61900   322.52869     -3239.0988     -3257.7343      18.635477      9034.1311      10112.159    
     62000   287.36998     -3240.1447     -3256.7488      16.604032      9111.3285      10112.159    
     62100   295.32659     -3240.2481     -3257.3119      17.063759      9236.6939      10112.159    
     62200   309.29243     -3239.8916     -3257.7623      17.870695      9068.404       10112.159    
     62300   321.89439     -3238.7578     -3257.3566      18.598828      9326.4238      10112.159    
     62400   295.93886     -3238.0852     -3255.1844      17.099136      9868.1323      10112.159    
     62500   317.85518     -3238.3217     -3256.6872      18.365445      9202.5845      10112.159    
     62600   303.34117     -3240.3525     -3257.8793      17.526836      8742.4471      10112.159    
     62700   296.24451     -3240.586      -3257.7028      17.116796      8822.7446      10112.159    
     62800   300.10056     -3239.8471     -3257.1867      17.339596      8920.7949      10112.159    
     62900   295.95577     -3239.2409     -3256.341       17.100113      9487.3288      10112.159    
     63000   318.50456     -3239.0175     -3257.4204      18.402966      9227.3222      10112.159    
     63100   295.49463     -3240.3447     -3257.4182      17.073468      8795.5877      10112.159    
     63200   285.43722     -3241.1098     -3257.6022      16.492358      9277.4518      10112.159    
     63300   296.9123      -3240.6963     -3257.8517      17.15538       9144.3833      10112.159    
     63400   315.26911     -3238.805      -3257.0211      18.216024      9169.7229      10112.159    
     63500   300.65915     -3238.8189     -3256.1908      17.371871      9488.8351      10112.159    
     63600   291.78525     -3239.6692     -3256.5284      16.859143      9326.5483      10112.159    
     63700   291.41278     -3240.255      -3257.0926      16.837622      9434.193       10112.159    
     63800   288.63468     -3240.9575     -3257.6346      16.677106      8827.429       10112.159    
     63900   277.89182     -3242.1691     -3258.2255      16.056391      8331.0973      10112.159    
     64000   296.36118     -3241.3633     -3258.4868      17.123537      8577.8256      10112.159    
     64100   294.65758     -3239.8373     -3256.8624      17.025105      9196.4006      10112.159    
     64200   307.04507     -3239.3229     -3257.0637      17.740844      9332.1691      10112.159    
     64300   292.65263     -3239.6967     -3256.6059      16.90926       9321.3742      10112.159    
     64400   297.32901     -3240.2246     -3257.404       17.179458      8801.5338      10112.159    
     64500   297.37625     -3241.0389     -3258.2211      17.182187      8849.3361      10112.159    
     64600   280.88544     -3241.7509     -3257.9803      16.22936       8700.4516      10112.159    
     64700   298.51343     -3241.0162     -3258.2641      17.247892      8860.3794      10112.159    
     64800   304.56874     -3239.7534     -3257.3511      17.597764      9222.8859      10112.159    
     64900   299.96581     -3239.0787     -3256.4105      17.33181       9541.1796      10112.159    
     65000   317.07999     -3238.8991     -3257.2198      18.320655      9301.4918      10112.159    
     65100   294.65358     -3239.3323     -3256.3571      17.024873      9072.5363      10112.159    
     65200   309.62202     -3239.5792     -3257.469       17.889739      9166.8222      10112.159    
     65300   285.75991     -3240.4174     -3256.9284      16.511004      8960.502       10112.159    
     65400   297.14341     -3240.4434     -3257.6122      17.168734      8722.0926      10112.159    
     65500   318.78658     -3239.7353     -3258.1546      18.419261      8880.8357      10112.159    
     65600   311.01732     -3237.9946     -3255.965       17.970358      9620.4414      10112.159    
     65700   303.58072     -3237.8315     -3255.3722      17.540677      9737.9431      10112.159    
     65800   318.25197     -3238.8946     -3257.283       18.388371      9023.535       10112.159    
     65900   312.62683     -3239.8103     -3257.8736      18.063355      9139.5189      10112.159    
     66000   284.01582     -3240.6211     -3257.0313      16.410231      8959.7091      10112.159    
     66100   301.97799     -3240.331      -3257.779       17.448072      8694.8574      10112.159    
     66200   314.89928     -3239.5385     -3257.7331      18.194655      9226.5171      10112.159    
     66300   310.91314     -3238.2618     -3256.2261      17.964339      9380.7891      10112.159    
     66400   322.53756     -3237.2481     -3255.8841      18.635989      9396.2444      10112.159    
     66500   307.53874     -3238.6084     -3256.3777      17.769368      9493.9534      10112.159    
     66600   289.4572      -3239.5676     -3256.2922      16.72463       9277.8147      10112.159    
     66700   312.11587     -3239.8958     -3257.9296      18.033832      8808.7196      10112.159    
     66800   285.02376     -3240.909      -3257.3774      16.468469      8829.8258      10112.159    
     66900   292.7235      -3240.5997     -3257.5131      16.913355      9222.8502      10112.159    
     67000   311.25415     -3238.8295     -3256.8136      17.984042      9132.447       10112.159    
     67100   300.48932     -3238.6172     -3255.9792      17.362058      9659.0114      10112.159    
     67200   316.53881     -3238.9133     -3257.2027      18.289386      9175.999       10112.159    
     67300   302.42411     -3239.615      -3257.0889      17.473849      9065.4128      10112.159    
     67400   298.39181     -3240.0877     -3257.3285      17.240865      8848.5263      10112.159    
     67500   301.18096     -3240.6488     -3258.0508      17.40202       9101.0989      10112.159    
     67600   260.41167     -3242.295      -3257.3414      15.0464        8623.18        10112.159    
     67700   290.18905     -3242.445      -3259.2119      16.766916      8515.6139      10112.159    
     67800   296.9779      -3240.4493     -3257.6084      17.15917       8692.5861      10112.159    
     67900   293.57991     -3239.7447     -3256.7075      16.962837      8860.0135      10112.159    
     68000   311.49208     -3239.091      -3257.0888      17.997789      9121.7947      10112.159    
     68100   297.42783     -3239.3687     -3256.5538      17.185167      9411.0309      10112.159    
     68200   293.66816     -3240.3592     -3257.3272      16.967936      8975.0649      10112.159    
     68300   301.76634     -3240.9946     -3258.4304      17.435843      8554.7877      10112.159    
     68400   278.17889     -3241.1578     -3257.2307      16.072977      9056.4128      10112.159    
     68500   303.32377     -3239.411      -3256.9369      17.52583       8831.1643      10112.159    
     68600   313.00068     -3238.5254     -3256.6103      18.084955      9218.4509      10112.159    
     68700   295.61539     -3239.2517     -3256.3321      17.080446      9128.364       10112.159    
     68800   306.02561     -3239.9547     -3257.6366      17.681941      8658.4672      10112.159    
     68900   298.65627     -3240.2734     -3257.5295      17.256146      8766.4955      10112.159    
     69000   303.64912     -3239.9606     -3257.5052      17.544629      8850.8161      10112.159    
     69100   291.32205     -3239.7555     -3256.5879      16.83238       9292.4493      10112.159    
     69200   300.21832     -3239.5166     -3256.863       17.3464        9319.908       10112.159    
     69300   302.63489     -3239.1726     -3256.6587      17.486027      9120.124       10112.159    
     69400   317.84944     -3239.0259     -3257.391       18.365113      9124.2763      10112.159    
     69500   287.25753     -3240.0746     -3256.6721      16.597534      8839.5181      10112.159    
     69600   300.18966     -3240.4993     -3257.8441      17.344744      8958.2489      10112.159    
     69700   298.34417     -3240.8504     -3258.0885      17.238113      8651.4045      10112.159    
     69800   293.90012     -3240.2315     -3257.2129      16.981339      8648.2748      10112.159    
     69900   317.24732     -3238.77       -3257.1004      18.330323      9252.3443      10112.159    
     70000   292.02642     -3239.1674     -3256.0405      16.873078      9158.7611      10112.159    
     70100   299.23731     -3239.8986     -3257.1883      17.289718      8939.3397      10112.159    
     70200   301.26935     -3241.1559     -3258.563       17.407128      8658.2934      10112.159    
     70300   269.47662     -3242.189      -3257.7591      15.570167      8495.2617      10112.159    
     70400   305.01701     -3240.2032     -3257.8269      17.623665      9267.5268      10112.159    
     70500   313.20065     -3239.0626     -3257.1591      18.096509      8803.3071      10112.159    
     70600   304.70403     -3239.0821     -3256.6877      17.605581      9345.5776      10112.159    
     70700   293.80697     -3239.9585     -3256.9345      16.975957      9251.9397      10112.159    
     70800   284.02116     -3240.8556     -3257.2661      16.410539      8603.3056      10112.159    
     70900   301.90197     -3240.6811     -3258.1247      17.44368       8577.1558      10112.159    
     71000   299.31738     -3239.372      -3256.6663      17.294344      8988.5492      10112.159    
     71100   312.88295     -3238.3607     -3256.4388      18.078153      9139.1784      10112.159    
     71200   313.63943     -3238.8795     -3257.0014      18.121862      9252.7861      10112.159    
     71300   280.68573     -3240.287      -3256.5048      16.217821      8933.0093      10112.159    
     71400   313.97547     -3240.206      -3258.3473      18.141278      8855.1914      10112.159    
     71500   296.74132     -3240.3599     -3257.5054      17.145501      8740.0992      10112.159    
     71600   304.45794     -3240.003      -3257.5943      17.591362      8968.954       10112.159    
     71700   290.38739     -3239.8249     -3256.6032      16.778376      8969.719       10112.159    
     71800   320.49136     -3238.3173     -3256.835       18.517762      9115.432       10112.159    
     71900   314.60982     -3237.7146     -3255.8925      18.17793       9697.8605      10112.159    
     72000   292.37838     -3238.7717     -3255.6651      16.893414      9579.9783      10112.159    
     72100   319.81193     -3239.7168     -3258.1953      18.478505      9119.6862      10112.159    
     72200   297.54014     -3240.618      -3257.8097      17.191656      8935.9269      10112.159    
     72300   303.04015     -3240.4328     -3257.9422      17.509443      8688.9836      10112.159    
     72400   288.57165     -3240.1354     -3256.8089      16.673463      9214.2859      10112.159    
     72500   323.12744     -3238.6525     -3257.3225      18.670072      8960.0191      10112.159    
     72600   308.55991     -3237.4931     -3255.3215      17.828371      9429.3906      10112.159    
     72700   324.81285     -3237.1412     -3255.9087      18.767454      9460.2873      10112.159    
     72800   291.6146      -3239.0656     -3255.9149      16.849283      9371.3986      10112.159    
     72900   312.4436      -3240.2153     -3258.2681      18.052768      8632.4257      10112.159    
     73000   298.20455     -3240.8854     -3258.1154      17.230046      8749.6598      10112.159    
     73100   286.11552     -3240.667      -3257.1986      16.53155       8711.6177      10112.159    
     73200   314.80588     -3239.2399     -3257.4291      18.189258      9358.6161      10112.159    
     73300   289.32506     -3239.1085     -3255.8255      16.716995      9542.135       10112.159    
     73400   311.85115     -3238.9765     -3256.9951      18.018537      8856.7369      10112.159    
     73500   311.73661     -3239.751      -3257.7629      18.011918      8938.496       10112.159    
     73600   284.84432     -3241.6291     -3258.0872      16.458101      8705.0209      10112.159    
     73700   288.25351     -3241.4325     -3258.0876      16.655082      8423.316       10112.159    
     73800   298.73858     -3240.1961     -3257.457       17.260901      9096.3624      10112.159    
     73900   300.13985     -3239.322      -3256.6639      17.341866      8905.1131      10112.159    
     74000   298.63757     -3238.9395     -3256.1945      17.255065      9397.9627      10112.159    
     74100   305.83219     -3239.1254     -3256.7962      17.670765      9259.2805      10112.159    
     74200   300.88713     -3240.8609     -3258.2459      17.385043      8526.0783      10112.159    
     74300   287.04403     -3241.6085     -3258.1937      16.585199      8203.7041      10112.159    
     74400   289.46289     -3240.8251     -3257.5501      16.724959      8780.3543      10112.159    
     74500   296.1476      -3239.8376     -3256.9488      17.111197      8909.1703      10112.159    
     74600   310.91192     -3239.1516     -3257.1159      17.964268      9055.86        10112.159    
     74700   306.04468     -3238.9066     -3256.5897      17.683043      9298.6204      10112.159    
     74800   317.46797     -3238.9307     -3257.2737      18.343072      8647.1866      10112.159    
     74900   292.62885     -3240.3038     -3257.2117      16.907886      8918.1463      10112.159    
     75000   288.73394     -3240.8848     -3257.5677      16.68284       8738.1552      10112.159    
     75100   292.18407     -3240.6858     -3257.568       16.882186      8672.1473      10112.159    
     75200   310.57385     -3239.2056     -3257.1504      17.944735      9291.135       10112.159    
     75300   297.24527     -3238.7189     -3255.8936      17.174619      9319.5686      10112.159    
     75400   304.22495     -3238.7961     -3256.374       17.5779        9076.3901      10112.159    
[...]
    281800   301.07284     -3239.6449     -3257.0406      17.395774      8830.718       10112.159    
    281900   319.99469     -3238.3166     -3256.8056      18.489064      9614.6096      10112.159    
    282000   307.65257     -3237.833      -3255.6089      17.775945      9713.7437      10112.159    
    282100   292.74192     -3239.4906     -3256.405       16.914419      9592.365       10112.159    
    282200   298.39455     -3240.2532     -3257.4943      17.241023      9041.1722      10112.159    
    282300   298.90964     -3240.2779     -3257.5487      17.270785      9074.2855      10112.159    
    282400   307.04897     -3239.5105     -3257.2516      17.74107       8965.7422      10112.159    
    282500   293.74959     -3238.5755     -3255.5482      16.972641      9522.0046      10112.159    
    282600   308.41206     -3238.1162     -3255.936       17.819828      9318.2959      10112.159    
    282700   311.45178     -3239.9117     -3257.9072      17.995461      8590.8318      10112.159    
    282800   305.29257     -3240.9331     -3258.5727      17.639586      8520.4358      10112.159    
    282900   279.09713     -3240.9614     -3257.0874      16.126033      8984.9004      10112.159    
    283000   307.26913     -3239.8088     -3257.5626      17.753791      8804.2416      10112.159    
    283100   291.27427     -3239.4871     -3256.3168      16.829619      8994.1388      10112.159    
    283200   307.13577     -3238.9389     -3256.685       17.746085      9147.834       10112.159    
    283300   304.1609      -3239.2787     -3256.8529      17.574199      9299.8947      10112.159    
    283400   296.66618     -3240.3261     -3257.4673      17.14116       8677.5163      10112.159    
    283500   285.44256     -3241.1763     -3257.669       16.492667      8582.0138      10112.159    
    283600   298.92692     -3240.9788     -3258.2505      17.271784      8666.8678      10112.159    
    283700   304.74058     -3239.6314     -3257.2391      17.607693      8695.2919      10112.159    
    283800   318.0318      -3238.7447     -3257.1204      18.37565       8789.1768      10112.159    
    283900   294.65008     -3239.3258     -3256.3505      17.024671      9248.8224      10112.159    
    284000   308.21348     -3239.3687     -3257.1771      17.808354      9054.3498      10112.159    
    284100   291.17403     -3239.9768     -3256.8006      16.823827      9026.5156      10112.159    
    284200   296.79512     -3241.2343     -3258.3829      17.14861       8821.8481      10112.159    
    284300   283.55883     -3242.1689     -3258.5527      16.383826      8511.6409      10112.159    
    284400   279.8838      -3241.6756     -3257.8471      16.171486      8639.53        10112.159    
    284500   291.75902     -3240.5685     -3257.4261      16.857627      9014.6074      10112.159    
    284600   294.0791      -3239.4236     -3256.4152      16.99168       9384.3905      10112.159    
    284700   319.09509     -3239.0228     -3257.4599      18.437086      8874.727       10112.159    
    284800   297.67127     -3239.8703     -3257.0695      17.199233      8894.4016      10112.159    
    284900   300.88497     -3240.3568     -3257.7417      17.384919      9237.2282      10112.159    
    285000   282.39843     -3240.9918     -3257.3086      16.316779      8827.2114      10112.159    
    285100   290.85235     -3241.7169     -3258.5221      16.805241      8198.4853      10112.159    
    285200   296.15046     -3241.3313     -3258.4427      17.111362      8739.2813      10112.159    
    285300   295.66393     -3239.8567     -3256.94        17.083251      8916.4857      10112.159    
    285400   306.3366      -3239.3746     -3257.0745      17.69991       9107.3996      10112.159    
    285500   297.84791     -3239.9939     -3257.2034      17.209439      8915.5244      10112.159    
    285600   291.16149     -3240.559      -3257.3821      16.823102      8660.6594      10112.159    
    285700   292.27815     -3240.3884     -3257.2761      16.887623      8876.0231      10112.159    
    285800   310.38073     -3239.2587     -3257.1923      17.933576      9164.2573      10112.159    
    285900   300.02524     -3238.9836     -3256.3188      17.335244      9066.6391      10112.159    
    286000   304.30582     -3239.289      -3256.8715      17.582573      9084.9552      10112.159    
    286100   290.34446     -3240.7816     -3257.5575      16.775895      8971.9385      10112.159    
    286200   280.11606     -3241.4193     -3257.6042      16.184906      8584.6611      10112.159    
    286300   301.45952     -3240.6146     -3258.0327      17.418115      8641.338       10112.159    
    286400   297.71215     -3239.8738     -3257.0754      17.201595      9180.97        10112.159    
    286500   295.3811      -3239.588      -3256.6549      17.066909      8979.0719      10112.159    
    286600   316.52667     -3239.5799     -3257.8686      18.288685      9056.4326      10112.159    
    286700   282.6779      -3240.5591     -3256.8921      16.332927      9232.0717      10112.159    
    286800   297.93253     -3240.5519     -3257.7662      17.214329      8585.0529      10112.159    
    286900   311.37665     -3239.1324     -3257.1235      17.99112       9106.1224      10112.159    
    287000   301.55368     -3238.2285     -3255.652       17.423556      9210.9393      10112.159    
    287100   317.04365     -3238.7953     -3257.1138      18.318555      8828.3183      10112.159    
    287200   293.05429     -3240.2776     -3257.2101      16.932467      8774.2287      10112.159    
    287300   299.8235      -3240.3839     -3257.7074      17.323587      8945.6514      10112.159    
    287400   291.70644     -3240.1446     -3256.9992      16.854589      8905.6007      10112.159    
    287500   298.53914     -3238.8415     -3256.0909      17.249378      9166.1529      10112.159    
    287600   332.01675     -3237.633      -3256.8167      19.18369       9484.6524      10112.159    
    287700   302.05721     -3238.5668     -3256.0195      17.452649      9044.0073      10112.159    
    287800   308.24613     -3239.2034     -3257.0136      17.810241      9197.0935      10112.159    
    287900   299.74651     -3240.1702     -3257.4893      17.319139      8385.5825      10112.159    
    288000   300.99244     -3240.4113     -3257.8024      17.391128      8918.9727      10112.159    
    288100   286.73734     -3240.4711     -3257.0386      16.567478      8703.0283      10112.159    
    288200   302.99227     -3240.1186     -3257.6253      17.506677      8888.9873      10112.159    
    288300   304.24877     -3239.0023     -3256.5816      17.579277      9198.7753      10112.159    
    288400   303.70315     -3238.5121     -3256.0598      17.547751      9095.4453      10112.159    
    288500   296.38912     -3239.5067     -3256.6319      17.125152      9107.5222      10112.159    
    288600   295.9114      -3240.5038     -3257.6013      17.097549      8576.7851      10112.159    
    288700   304.13758     -3240.8272     -3258.4         17.572852      8497.9878      10112.159    
    288800   302.20371     -3240.515      -3257.9761      17.461114      8484.2631      10112.159    
    288900   282.52636     -3239.951      -3256.2751      16.324171      8983.1803      10112.159    
    289000   309.80618     -3239.6535     -3257.5539      17.90038       8762.0167      10112.159    
    289100   297.46792     -3240.1775     -3257.3649      17.187484      8969.8767      10112.159    
    289200   295.06704     -3240.6195     -3257.6683      17.048763      8576.1422      10112.159    
    289300   281.68952     -3240.7852     -3257.061       16.275819      8740.4588      10112.159    
    289400   315.46595     -3239.4376     -3257.665       18.227397      8794.8126      10112.159    
    289500   309.25848     -3238.9039     -3256.7726      17.868734      9024.0298      10112.159    
    289600   302.22605     -3239.143      -3256.6054      17.462405      8825.0439      10112.159    
    289700   282.87673     -3240.5107     -3256.8551      16.344415      8983.639       10112.159    
    289800   291.96002     -3241.4464     -3258.3156      16.869241      8694.2456      10112.159    
    289900   302.09807     -3240.7684     -3258.2234      17.455011      8613.3893      10112.159    
    290000   303.35446     -3239.988      -3257.5156      17.527604      9008.3493      10112.159    
    290100   289.26677     -3239.8647     -3256.5783      16.713627      9247.7278      10112.159    
    290200   303.39339     -3239.3292     -3256.8591      17.529853      8926.412       10112.159    
    290300   285.80033     -3239.4584     -3255.9717      16.513339      9210.3792      10112.159    
    290400   306.90338     -3240.5694     -3258.302       17.732658      8475.7412      10112.159    
    290500   283.75036     -3241.9255     -3258.3204      16.394893      8239.4382      10112.159    
    290600   286.03798     -3241.5447     -3258.0718      16.52707       8428.6273      10112.159    
    290700   294.67827     -3239.9319     -3256.9582      17.026299      8673.9512      10112.159    
    290800   299.46295     -3239.3345     -3256.6372      17.302755      9101.7869      10112.159    
    290900   311.95887     -3239.416      -3257.4408      18.02476       8755.3475      10112.159    
    291000   281.46256     -3240.3601     -3256.6228      16.262705      9175.2774      10112.159    
    291100   301.63329     -3240.6149     -3258.0431      17.428156      8631.0478      10112.159    
    291200   275.45096     -3241.7642     -3257.6796      15.915359      8495.5758      10112.159    
    291300   303.17606     -3241.2504     -3258.7677      17.517296      8390.1801      10112.159    
    291400   295.6558      -3239.8585     -3256.9413      17.082781      8578.761       10112.159    
    291500   299.75546     -3239.0964     -3256.4161      17.319656      9080.2329      10112.159    
    291600   289.5735      -3239.6004     -3256.3317      16.73135       9354.467       10112.159    
    291700   305.25123     -3240.0216     -3257.6588      17.637198      8684.1979      10112.159    
    291800   312.42449     -3240.0556     -3258.1072      18.051664      8642.9514      10112.159    
    291900   296.65217     -3239.9202     -3257.0605      17.14035       8974.7212      10112.159    
    292000   306.36366     -3239.3883     -3257.0898      17.701473      9330.1441      10112.159    
    292100   288.63253     -3239.5243     -3256.2012      16.676981      9121.8325      10112.159    
    292200   312.6427      -3239.4574     -3257.5217      18.064272      9075.2379      10112.159    
    292300   304.2276      -3239.8636     -3257.4416      17.578053      9215.4128      10112.159    
    292400   291.41781     -3241.0395     -3257.8775      16.837913      8581.6343      10112.159    
    292500   280.90898     -3241.4987     -3257.7294      16.23072       8786.267       10112.159    
    292600   293.78473     -3240.0794     -3257.054       16.974672      8807.9244      10112.159    
    292700   321.50238     -3238.8528     -3257.429       18.576178      9151.9691      10112.159    
    292800   289.3861      -3239.2743     -3255.9948      16.720522      9161.0452      10112.159    
    292900   304.5452      -3239.3718     -3256.9682      17.596404      8913.4015      10112.159    
    293000   290.8906      -3240.5991     -3257.4065      16.807451      9310.497       10112.159    
    293100   285.75884     -3241.3485     -3257.8594      16.510941      8390.9363      10112.159    
    293200   288.30088     -3240.7785     -3257.4363      16.657819      8769.1044      10112.159    
    293300   305.49535     -3239.5845     -3257.2358      17.651303      9139.9916      10112.159    
    293400   299.81877     -3239.2184     -3256.5417      17.323314      9199.1417      10112.159    
    293500   293.3438      -3239.5079     -3256.4571      16.949195      9168.5747      10112.159    
    293600   300.71569     -3240.2572     -3257.6323      17.375137      8809.0456      10112.159    
    293700   287.40395     -3241.1283     -3257.7343      16.605994      8636.7754      10112.159    
    293800   297.76381     -3240.4887     -3257.6933      17.20458       8693.6779      10112.159    
    293900   293.05973     -3239.0781     -3256.0109      16.932782      9320.0895      10112.159    
    294000   312.58673     -3239.0203     -3257.0813      18.061038      9175.8755      10112.159    
    294100   318.47055     -3239.4072     -3257.8082      18.401001      8370.3824      10112.159    
    294200   285.65631     -3240.3356     -3256.8406      16.505017      8832.6377      10112.159    
    294300   295.75285     -3240.4251     -3257.5135      17.088388      9105.0666      10112.159    
    294400   307.07751     -3239.8713     -3257.614       17.742719      8587.7156      10112.159    
    294500   318.58493     -3237.5259     -3255.9335      18.407609      9513.7771      10112.159    
    294600   317.6595      -3237.9958     -3256.35        18.354139      9262.0983      10112.159    
    294700   311.63341     -3239.3129     -3257.3189      18.005955      8955.581       10112.159    
    294800   283.49105     -3240.5662     -3256.9461      16.37991       8884.2762      10112.159    
    294900   296.35775     -3240.3209     -3257.4443      17.123339      9073.5066      10112.159    
    295000   308.86993     -3239.6947     -3257.5409      17.846284      8780.465       10112.159    
    295100   308.60056     -3239.4938     -3257.3245      17.83072       8370.6735      10112.159    
    295200   297.64572     -3239.2761     -3256.4738      17.197757      8922.4708      10112.159    
    295300   296.25685     -3239.2668     -3256.3843      17.117509      8898.0912      10112.159    
    295400   314.24656     -3239.3057     -3257.4626      18.156941      9030.306       10112.159    
    295500   291.22963     -3240.4357     -3257.2627      16.82704       8740.4778      10112.159    
    295600   302.17011     -3240.7765     -3258.2357      17.459173      8155.8099      10112.159    
    295700   283.92184     -3240.8163     -3257.2211      16.404801      8832.2652      10112.159    
    295800   305.99363     -3239.5401     -3257.2202      17.680093      8724.0863      10112.159    
    295900   307.21225     -3238.6676     -3256.4181      17.750504      9446.8071      10112.159    
    296000   290.05354     -3238.8011     -3255.5602      16.759086      9230.6048      10112.159    
    296100   318.28372     -3239.6029     -3257.9931      18.390205      8891.1234      10112.159    
    296200   291.12224     -3241.0418     -3257.8626      16.820835      8586.5804      10112.159    
    296300   300.83243     -3240.6603     -3258.0422      17.381883      8606.1869      10112.159    
    296400   292.96217     -3240.1998     -3257.1269      16.927145      8961.608       10112.159    
    296500   309.84586     -3238.9143     -3256.817       17.902672      8939.8107      10112.159    
    296600   327.4075      -3237.6199     -3256.5373      18.917371      9322.0165      10112.159    
    296700   297.41247     -3238.5892     -3255.7735      17.18428       9398.2732      10112.159    
    296800   308.33274     -3239.3783     -3257.1935      17.815245      8787.3871      10112.159    
    296900   297.47738     -3240.5055     -3257.6935      17.18803       8892.8612      10112.159    
    297000   294.7121      -3240.7301     -3257.7584      17.028254      8880.9785      10112.159    
    297100   300.61395     -3240.0634     -3257.4327      17.369259      8987.5508      10112.159    
    297200   294.5666      -3239.082      -3256.1019      17.019847      9135.3301      10112.159    
    297300   326.57151     -3236.9899     -3255.859       18.869068      9661.6124      10112.159    
    297400   310.20507     -3237.7016     -3255.625       17.923427      9369.3592      10112.159    
    297500   316.77267     -3239.1032     -3257.4061      18.302898      9148.5088      10112.159    
    297600   302.50491     -3240.1957     -3257.6742      17.478518      8939.8153      10112.159    
    297700   282.20141     -3240.6162     -3256.9216      16.305396      8789.2791      10112.159    
    297800   308.24066     -3239.8826     -3257.6925      17.809925      8677.847       10112.159    
    297900   306.37551     -3238.7662     -3256.4684      17.702158      9247.6582      10112.159    
    298000   312.1098      -3237.6375     -3255.671       18.033481      9397.9748      10112.159    
    298100   313.65748     -3238.6101     -3256.733       18.122905      9148.7294      10112.159    
    298200   310.09403     -3239.4258     -3257.3428      17.917011      8850.4159      10112.159    
    298300   294.29309     -3239.9841     -3256.9882      17.004044      9183.0641      10112.159    
    298400   304.93633     -3240.022      -3257.641       17.619003      8641.6423      10112.159    
    298500   292.085       -3240.2271     -3257.1036      16.876462      8770.234       10112.159    
    298600   301.96828     -3240.1868     -3257.6343      17.447511      9030.659       10112.159    
    298700   301.51126     -3239.7662     -3257.1874      17.421105      8755.8012      10112.159    
    298800   300.22536     -3239.171      -3256.5178      17.346807      8952.896       10112.159    
    298900   305.39462     -3239.3575     -3257.003       17.645483      9177.4281      10112.159    
    299000   286.48523     -3240.1264     -3256.6793      16.552912      9183.3036      10112.159    
    299100   303.77984     -3240.5624     -3258.1145      17.552182      8683.3246      10112.159    
    299200   280.23831     -3241.7992     -3257.9911      16.191969      8543.6267      10112.159    
    299300   303.271       -3241.2739     -3258.7967      17.522782      8393.4692      10112.159    
    299400   286.68451     -3240.3929     -3256.9574      16.564426      8597.1644      10112.159    
    299500   290.28781     -3239.8792     -3256.6518      16.772622      9073.5908      10112.159    
    299600   299.65983     -3239.4432     -3256.7573      17.314131      8966.1788      10112.159    
    299700   315.2246      -3239.0894     -3257.3028      18.213452      9099.947       10112.159    
    299800   314.48214     -3239.5586     -3257.7292      18.170553      8963.5471      10112.159    
    299900   289.234       -3240.9609     -3257.6726      16.711734      8703.8492      10112.159    
    300000   286.59159     -3241.2781     -3257.8372      16.559057      8538.5627      10112.159    
Loop time of 2295.73 on 20 procs for 300000 steps with 448 atoms

Performance: 11.291 ns/day, 2.126 hours/ns, 130.677 timesteps/s, 58.543 katom-step/s
99.9% CPU use with 20 MPI tasks x 1 OpenMP threads

MPI task timing breakdown:
Section |  min time  |  avg time  |  max time  |%varavg| %total
---------------------------------------------------------------
Pair    | 1694.9     | 1992.7     | 2198.6     | 401.5 | 86.80
Neigh   | 19.673     | 26.272     | 34.633     |  93.6 |  1.14
Comm    | 59.252     | 273.55     | 578.25     |1111.9 | 11.92
Output  | 0.3494     | 0.55905    | 0.62203    |   7.4 |  0.02
Modify  | 2.0532     | 2.3267     | 2.5644     |   9.6 |  0.10
Other   |            | 0.271      |            |       |  0.01

Nlocal:           22.4 ave          25 max          17 min
Histogram: 1 1 2 0 0 2 1 2 10 1
Nghost:          495.3 ave         522 max         465 min
Histogram: 4 0 0 6 2 0 0 0 1 7
Neighs:              0 ave           0 max           0 min
Histogram: 20 0 0 0 0 0 0 0 0 0
FullNghs:       1282.5 ave        1460 max         992 min
Histogram: 2 1 1 0 2 1 2 3 7 1

Total # of neighbors = 25650
Ave neighs/atom = 57.254464
Neighbor list builds = 300000
Dangerous builds not checked
Total wall time: 0:38:15
