96
 Atoms. Timestep: 0
1   10.8872619700000008    8.4562843700000005    3.7519201999999998
1    2.7682177200000000   10.2805686600000001    5.4050766000000001
1    5.2661078999999997    5.8903774300000000    6.3473908999999997
1    2.3234128500000000    3.2823558199999998    4.5907470999999997
1    4.2106383799999998    6.7881501100000001    2.6523938999999999
1    4.2482845500000002    9.9314096299999992    9.3820323999999999
1    0.1142743800000000    0.0620883100000000    9.2552570000000003
1    0.5961936000000000    2.3333637399999998    7.0547306000000001
1    1.2350242499999999    5.4572453100000002    9.2364622000000001
1    6.5585646899999999    3.2954576499999999    3.9863734000000002
1    5.3354822200000003    0.2000503100000000    6.8009212000000003
1    3.5588698499999998    3.7985817599999998    8.7246772999999997
1    7.4227238499999997    7.1833115000000003    8.9492876999999993
1    5.1314672300000002    1.7989666600000001   10.9839490000000009
1    9.6043533100000005    6.0175944799999996    6.9577751000000001
1    1.6444819700000000    6.7989453800000001    6.2042459000000001
1    9.9772603800000006    6.2552431999999998    0.0583646000000000
1    1.4489142600000000    2.5210595300000000    0.5942683000000000
1    9.9731027799999996    9.7864869599999995    6.7025277000000001
1    1.5403115300000001    6.2348670200000003    1.9041433999999999
1   10.1504474800000004    0.1355879100000000    1.7069723000000001
1    7.2382545399999998    8.0330458300000007    4.1684805999999996
1    8.3199954799999993    0.5598223400000000    8.6503259000000003
1    6.8774039900000004    5.3320168199999998    0.9926531000000000
1    4.5566227000000001    6.4139282599999996   10.2857575000000008
1    1.9637026900000001    8.9887812000000000    0.0439998000000000
1    7.4158237199999997    3.6301289699999999    7.2695812999999996
1    4.5377032599999998    0.6808431300000000    3.1163341000000000
1    6.9858429900000001    9.6046346600000003    0.3723487000000000
1    8.6115279200000003    2.4922300700000002    0.1118609000000000
1    7.7270777800000001   10.7591459999999994    4.2118387000000004
1    9.9888031799999997    2.9678138600000001    3.4581238000000001
2    0.8992960600000000   10.6864644599999998    7.5390086700000003
2    6.7075754400000003    9.5422469000000003    5.4586596199999997
2    4.2623142899999999    1.3604461200000000    9.2361252300000007
2    6.5996505900000004   10.6072639899999999    7.8373401700000001
2    3.1314888000000001   10.4900214900000002    0.0162407800000000
2   10.9008224200000008    7.2841989299999996    2.1318183700000000
2    9.0988866500000007    9.1267366499999998    4.4419974299999998
2    0.4414378900000000    4.7006667699999998    0.6985599700000000
2    5.6597280300000001    4.4100263699999998    7.4915150300000004
2    1.8611853700000001    1.1568000100000000    5.4640654700000004
2    0.2583514500000000    8.9755244199999993   10.9068411899999997
2    9.0548527399999994    8.0792885600000002    7.6211215000000001
2    9.7293191100000005    1.1732500600000000   10.4309134100000005
2    4.3930576099999996   11.0582403500000002    5.0160466699999997
2    6.0054828699999998    6.6232011499999999    4.6454218400000000
2    6.5573901899999996    2.9991108199999998    0.8416408200000000
2   10.8289244000000000    6.5058321299999999    5.4410252999999997
2    1.8983061600000000    7.3741918899999996    3.3560855599999999
2    5.3609917800000000    6.6518150100000000    1.0310178200000000
2    3.3383210700000001    1.8896659400000000    0.3776929100000000
2    5.6323954100000000    8.9796486000000009   10.0535500500000001
2    4.0083879199999997    2.5170635300000002    2.9854359499999998
2    2.2748493399999998    3.2579365500000002    7.2145859100000003
2    8.1754375699999997    7.0892364600000004    0.8372943900000001
2    8.7372767899999992   10.1572731899999997    1.1427389500000000
2    7.6721479600000002    5.7576417900000001    6.5717552699999997
2    2.8573021000000001    5.3058821299999996    2.5846852100000000
2   11.0496160200000002    4.5237725900000001    7.8645253999999998
2    7.0974205000000001    8.7987293199999996    2.4469050299999999
2    2.7639507100000000    5.0433260899999999    6.0009321699999996
2    0.3105592900000000    9.0883059700000004    5.6079435999999996
2    3.1714078699999999    5.7927073699999996    9.0546962299999993
2   10.2930971299999996    1.2217674700000001    7.9251554200000003
2    4.7185160200000000    4.2404048599999999   10.0406465899999997
2    1.1462654299999999    6.6556243999999998   11.0138255699999998
2    9.8782392199999993    4.7216192000000001    3.7816931999999999
2    5.0942635799999998    3.9785664700000001    5.0894828499999996
2    8.8305780899999995    4.3079392299999997    0.0261620100000000
2    3.0712221000000000   10.2141261399999994    3.2803941399999998
2    7.0356257600000003    0.4958538800000000   10.2378326499999996
2    3.3472604000000001    8.1563256400000004    9.8034061799999996
2    5.6974389600000004    6.8821400700000002    8.0734096399999995
2    8.0485931799999992    2.7970448399999999    5.0298017300000000
2    0.3021852100000000   10.1073913500000003    2.5455883099999999
2    1.1153934400000001    7.1461635000000001    8.0700614300000009
2    0.6031487200000000    0.8197781400000000    0.1607944700000000
2    9.7410407400000008    2.2071615699999998    1.6428867199999999
2    6.9329835900000001    5.7775663300000000   10.2127439399999993
2    0.4413329300000000    3.4393040099999999    4.9126227699999996
2    6.2104950800000003    4.9301905499999998    2.8262671699999999
2    9.7264287500000002   10.0820245100000001    9.0428253200000004
2    1.5449955200000001    3.6458910300000000   10.0669020200000006
2    3.4866860300000000    7.3412674700000000    5.9582810100000003
2    1.1235467100000001    3.1292215600000000    2.9788549400000002
2    8.4392817400000002    0.1819419400000000    5.8820224500000000
2    5.3682652300000004    0.5115820599999999    1.2046327699999999
2    8.0774973800000005    8.5162950500000001   10.2922670800000002
2    9.5140077999999999    5.8985431400000001    9.1500391800000003
2    8.2219958599999998    2.5738912699999998    8.9791284400000002
2    3.9301748999999999   10.0729433299999993    7.4269552100000000
2    3.2190650199999999    7.1542058099999997    1.0534665200000000
2    6.3645665700000000    2.0810346100000001    7.3590762900000000
2    6.7014198299999999    1.0770554000000001    3.4241068800000001
2    9.3346107899999993    0.8531612900000000    3.4202645000000000
96
 Atoms. Timestep: 1
1   10.8864809259833137    8.4520568596922985    3.7529080911179138
1    2.7707202959544230   10.2767774562353136    5.4031507819375628
1    5.2607235002792336    5.8858363726719816    6.3493063427908929
1    2.3245879845400679    3.2894246473498914    4.5889199873514892
1    4.2081190127712995    6.7828173905949320    2.6572594552750224
1    4.2425449539896913    9.9334225437480228    9.3843560489569651
1    0.1179216664459405    0.0569477228920826    9.2516398067523351
1    0.6001082051484248    2.3350603037895130    7.0599515774020825
1    1.2368658138426314    5.4594317078347254    9.2403227711419191
1    6.5458263241760486    3.3019449722007224    3.9799176123923203
1    5.3368136185122061    0.1949594533172992    6.8035139860152025
1    3.5550686642222611    3.7961091122284065    8.7181255282854604
1    7.4207883290925301    7.1811585066148478    8.9588333922481187
1    5.1395919870233673    1.8026638591251742   10.9861554818189830
1    9.6002320316214966    6.0179230225526119    6.9586901687056200
1    1.6393137650830285    6.7944122602135693    6.2062415912503148
1    9.9791826297004018    6.2522524987619281    0.0634894960696438
1    1.4521949202182274    2.5198939462845664    0.5872816524704055
1    9.9781776593478781    9.7840611813831391    6.6986870168729062
1    1.5439394401297342    6.2395243449436411    1.9095291830850094
1   10.1447205658291022    0.1314781413833253    1.7053251098565443
1    7.2394627756208925    8.0323504808908428    4.1694930768838212
1    8.3206011628675665    0.5598709789492271    8.6545457997902400
1    6.8773315297984201    5.3316083531072520    0.9820339928101246
1    4.5572733017182632    6.4208495477558101   10.2800752348410303
1    1.9670600486332497    8.9902839630914357    0.0421091318384206
1    7.4183610420413784    3.6288699921624472    7.2694253966119877
1    4.5355442798335410    0.6787895013606732    3.1216271112377494
1    6.9894968967976503    9.6084619235444926    0.3799049186400171
1    8.6145561797982300    2.4934109132874598    0.1107822628000490
1    7.7280749782902891   10.7545038893919696    4.2086660150055151
1    9.9911504464275307    2.9730163846924680    3.4543857228558630
2    0.8943759976888603   10.6799742668740478    7.5625181088665059
2    6.7065620580237253    9.5522619786962490    5.4502583847334751
2    4.2585719787081482    1.3661331427600165    9.2412373506861165
2    6.6087622536314976   10.6162482003022749    7.8390651433176695
2    3.1323571428189005   10.4752965000588265    0.0418670769248917
2   10.8922159757155370    7.2752634514193328    2.1153130282645507
2    9.1161838149649945    9.1590621330540465    4.4358165203715094
2    0.4468270804405330    4.7137049133915072    0.6759462731642747
2    5.6427319969013752    4.3958411427703155    7.4735930288660306
2    1.8660341992881451    1.1467033405314642    5.4623037358963424
2    0.2409093162434993    8.9559345505637822   10.9405863389752120
2    9.0549907132040754    8.0777936335150393    7.6285975372435182
2    9.7274614352679833    1.1993606274302058   10.4118640637299134
2    4.3999063091423665   11.0710697697140752    5.0150845872904579
2    5.9933161180589760    6.6282897470535938    4.6501593698952703
2    6.5650759356521338    2.9966121488455459    0.8427666716499598
2   10.8565437954352877    6.4893869478857278    5.4363241487960128
2    1.8786835673667337    7.3638492425062427    3.3350562069276108
2    5.3580468955198874    6.6558443219803660    1.0443810341153621
2    3.3223456397034643    1.8848838102091487    0.3788675794080428
2    5.6171884730980599    8.9827472270179882   10.0517183781190536
2    3.9989977293794259    2.5484429950312708    2.9898665966829481
2    2.2599247686520707    3.2715738481430710    7.2075285319813505
2    8.1792563256038555    7.0686725971797264    0.8450048846417756
2    8.7425858226729325   10.1592311025733988    1.1649255982818778
2    7.6951755197544065    5.7511805264752125    6.5577544264759968
2    2.8475589938678398    5.3272555164029338    2.5844170436813156
2   11.0615007390243942    4.5431416411512613    7.8899340384516270
2    7.0943231412015662    8.7869789283842596    2.4437171627006928
2    2.7516330680769578    5.0456087810645869    5.9805075720479453
2    0.2920437702512408    9.0772202459233196    5.5950795736546315
2    3.1479134177263992    5.7996756824398048    9.0687873858205528
2   10.2880765842131296    1.2237537182270810    7.9040804042268373
2    4.7089201710090753    4.2235225263820775   10.0290993006075730
2    1.1654525143723957    6.6479007236901762   11.0000903078910248
2    9.8648383904718617    4.7314004311517444    3.7618663933695320
2    5.1040408872506271    3.9901314251895115    5.0928432954094385
2    8.8455091549996716    4.2944964188351555    0.0295112887017373
2    3.0583980697579967   10.2106343832324953    3.2942430963519147
2    7.0761208918856022    0.5152421133733879   10.2367425158386514
2    3.3674351451173155    8.1453489493897600    9.8014571006806772
2    5.7053979953731746    6.8956638225713238    8.0831758236084550
2    8.0591798451462804    2.8127605625258942    5.0096474666616473
2    0.3035249596800237   10.0985029120182226    2.5378220865759333
2    1.1223375013969630    7.1425279989470809    8.0448546384051287
2    0.6127707106926982    0.8037536763145147    0.1730703370409234
2    9.7367958630873623    2.2143500055622938    1.6473364966285862
2    6.9480079049523491    5.8097814294997026   10.2181502295514051
2    0.4301419606744883    3.4369460045957019    4.9184726976055604
2    6.1986670107271049    4.9022553120966279    2.8277181704806793
2    9.7286756639043990   10.0920431026212416    9.0402899962170000
2    1.5247403738827696    3.6643147351590124   10.0644516962804076
2    3.4959619798597341    7.3411346717457011    5.9414101126018926
2    1.1243535602019334    3.1397400384061274    2.9739329085434338
2    8.4330815775010990    0.2015600725477306    5.8849532700124749
2    5.3768956127553684    0.5058715198025742    1.2199165186500713
2    8.0666633150827334    8.5213253849414716   10.2828806591697877
2    9.5164020596379277    5.9098038229945349    9.1436257427529792
2    8.2099558808096127    2.5469811536617621    8.9878807293468785
2    3.9395431370511873   10.0757711984622986    7.4188921388897988
2    3.2076803151732545    7.1643557023347633    1.0550318544611452
2    6.3388684850353814    2.0717159460973091    7.3521921805702526
2    6.7021911873041349    1.0841259622946897    3.4304473856776578
2    9.3354946864912396    0.8555409483625532    3.4277793426086647
96
 Atoms. Timestep: 2
1   10.8858349467133788    8.4477907145058353    3.7536834000500314
1    2.7729925075604447   10.2729750392985402    5.4011563083447500
1    5.2551473657165788    5.8813597904539918    6.3511265647454040
1    2.3258301591354660    3.2965027858490856    4.5870549449167335
1    4.2055796150830549    6.7774114498068023    2.6622474811913457
1    4.2366235267393435    9.9355747365336278    9.3867140122152186
1    0.1216311700215058    0.0517963867765011    9.2483058010399759
1    0.6040169499783635    2.3368660874518676    7.0649434255761401
1    1.2384776818881742    5.4617712125967186    9.2442698697020607
1    6.5328804222935517    3.3084175648139458    3.9733832852575541
1    5.3382338817540784    0.1900953851649818    6.8061303658411294
1    3.5512653791404443    3.7934353840016222    8.7113971455816444
1    7.4190548922774866    7.1791348944700353    8.9683979660030957
1    5.1478367720905460    1.8064222672762094   10.9882895767216304
1    9.5962965551857486    6.0183253452705685    6.9597401084947208
1    1.6342539410486860    6.7897689848554963    6.2081926600936042
1    9.9810696640268208    6.2492495508580177    0.0687148713032686
1    1.4555293084242846    2.5188284976011719    0.5804360086065617
1    9.9831522838288134    9.7816274176942244    6.6949351314492382
1    1.5470483597570390    6.2441632930595645    1.9145294436115685
1   10.1390817153449024    0.1274235529434158    1.7036099124501496
1    7.2406835156230880    8.0316191452766308    4.1705801283588144
1    8.3210307636764860    0.5599823638818818    8.6588094548940973
1    6.8774790029965791    5.3311341435097654    0.9714399962183536
1    4.5579592794895616    6.4278910967644016   10.2743290982629993
1    1.9706573041879549    8.9915279100775454    0.0403553489721206
1    7.4208668984068691    3.6274534495713118    7.2693295844910946
1    4.5333505878062210    0.6767559525143713    3.1267203619835251
1    6.9932444269189435    9.6123414809456680    0.3874653702579726
1    8.6172818194316196    2.4945469507101814    0.1095911264252770
1    7.7292454722943811   10.7500357989923732    4.2054821099065913
1    9.9936698902202750    2.9781967868354262    3.4508277964661138
2    0.8899796785869746   10.6728954945622014    7.5851021098114382
2    6.7047182989494685    9.5611707884354526    5.4405509137553247
2    4.2547866451035601    1.3715811953943675    9.2449016272607150
2    6.6198927397623946   10.6238915703187935    7.8423584046870340
2    3.1337979965341916   10.4610839726426459    0.0663404080441683
2   10.8819930372112115    7.2663628021736670    2.0987402651125291
2    9.1333015151595127    9.1903673632518466    4.4297359586728646
2    0.4509531736308762    4.7262509867955265    0.6541217682764467
2    5.6251430810188383    4.3809824167493963    7.4572909719333484
2    1.8713931527721672    1.1364872366573477    5.4609526048424604
2    0.2200521265797774    8.9378865088007551   10.9730395426116178
2    9.0553944424573238    8.0758332425523651    7.6343417251626517
2    9.7256879158393819    1.2240597427135869   10.3915656904705855
2    4.4087741949231489   11.0849606669731351    5.0147235125822780
2    5.9808246864125953    6.6341312880640180    4.6541054001532327
2    6.5734607685248694    2.9948783723408456    0.8436326863601656
2   10.8837675599230774    6.4734526560995560    5.4317475048999242
2    1.8596529176409204    7.3559836095939390    3.3170420055146019
2    5.3559395450331237    6.6593576019432748    1.0578731676425062
2    3.3042771767137196    1.8816670649486915    0.3809659467913107
2    5.6039026939893306    8.9843930368250913   10.0507849614322939
2    3.9896137489246062    2.5787986800380076    2.9956345882390516
2    2.2454100641963133    3.2837993141765760    7.2013798122102477
2    8.1840945906306128    7.0456132852304929    0.8538962902936644
2    8.7473974513991291   10.1612402616987580    1.1868895107718898
2    7.7183412518982264    5.7442599105468304    6.5439549765429872
2    2.8429845435712990    5.3453675664493474    2.5864934143113802
2   11.0733069942402942    4.5618236131705379    7.9140671694340323
2    7.0900032085207885    8.7755935619227152    2.4411518475435945
2    2.7388619257892293    5.0483944270924201    5.9592573810659770
2    0.2752628462006672    9.0662615958366626    5.5821705185165520
2    3.1243149097551006    5.8052169908961906    9.0818271236242136
2   10.2824042296476055    1.2266019895817482    7.8824165494155487
2    4.7010437660387723    4.2073854959205628   10.0204178964849877
2    1.1839463929886034    6.6407806558499232   10.9843732769467000
2    9.8498891483171676    4.7425325106542928    3.7413515689159600
2    5.1146421249589533    4.0016377240773249    5.0962803944497885
2    8.8610976802201833    4.2839403907648981    0.0336134166360903
2    3.0459555224172941   10.2075776497041186    3.3092312661770475
2    7.1165124458911047    0.5342377269703608   10.2367118611562855
2    3.3870978074566125    8.1347678658537816    9.7991807084914750
2    5.7125774433603969    6.9097135853782561    8.0932982674924592
2    8.0705749282808572    2.8294267496224381    4.9904411189259426
2    0.3047843118030192   10.0881687326106562    2.5314487137861752
2    1.1289171028303742    7.1387021174347449    8.0190628029545810
2    0.6231715919038331    0.7875361687617876    0.1856837754831851
2    9.7334856413516988    2.2221637652248991    1.6510110860985454
2    6.9611027835910111    5.8418450973039375   10.2223599695656979
2    0.4180978708780587    3.4334213806493099    4.9280823959568858
2    6.1872620218918195    4.8745768202440578    2.8287738515741081
2    9.7296786996825801   10.1020279969932822    9.0360563968685135
2    1.5061667808314165    3.6814567922793819   10.0604874848377577
2    3.5058229707272237    7.3422757378775891    5.9243213177980740
2    1.1253429808397974    3.1491720452997272    2.9664092166730085
2    8.4285864949706930    0.2205545325500444    5.8897877519211468
2    5.3856699226358380    0.4979720555561693    1.2365874343774688
2    8.0552935009772408    8.5267244392226971   10.2724907766652773
2    9.5184721128382233    5.9222176146770504    9.1373468119569221
2    8.1976509629507035    2.5213659670711879    8.9958254160099251
2    3.9479167095539327   10.0787011385453145    7.4096560143664680
2    3.1957696549731738    7.1756122891768435    1.0562777595638337
2    6.3128040808597836    2.0610911812117827    7.3441175699726369
2    6.7007930027620031    1.0921161083071171    3.4371248728795956
2    9.3364305255675220    0.8568870564360892    3.4360967262018902
96
 Atoms. Timestep: 3
1   10.8853241971003030    8.4434758488838639    3.7542186891018479
1    2.7750559056350284   10.2691697304338927    5.3990873075466164
1    5.2493798838329297    5.8769636567304611    6.3528453884653890
1    2.3271238778654761    3.3035916361015811    4.5851486803784027
1    4.2030258794021442    6.7719475692052793    2.6673555107069284
1    4.2305159302570070    9.9378671122080302    9.3890976150015604
1    0.1253869270116462    0.0466579029737917    9.2452758853763815
1    0.6079014750588391    2.3387776135080802    7.0697005638925940
1    1.2398382123960290    5.4642749251372429    9.2483134169511452
1    6.5197495728836214    3.3148499649584720    3.9667859826568987
1    5.3397592966677356    0.1854647823899072    6.8087617770125988
1    3.5474488052724542    3.7905639432846518    8.7044861701081544
1    7.4175478000699320    7.1772674522442195    8.9779502810960174
1    5.1561735233724040    1.8102264461786053   10.9903699570118274
1    9.5925751881246466    6.0188093099492637    6.9609297951623601
1    1.6293207754011989    6.7850166425800271    6.2100747959966611
1    9.9829380049276093    6.2462353162383355    0.0740423380179524
1    1.4589009430813544    2.5178643558372755    0.5737287718311240
1    9.9880116772049288    9.7791955482481470    6.6912789924762626
1    1.5495766810074947    6.2487843838242547    1.9190680855324498
1   10.1335655081540548    0.1234423476842646    1.7018472834419818
1    7.2419140205953942    8.0308441028422806    4.1717444973017512
1    8.3212999653591595    0.5601427469782734    8.6630905021669715
1    6.8778417679336794    5.3305901492281071    0.9608968904665482
1    4.5586689073680207    6.4350526700840902   10.2685245521833366
1    1.9744291159156926    8.9924899238532987    0.0387241985517514
1    7.4233190907858173    3.6258578238062831    7.2692873581233490
1    4.5311141418033856    0.6747712101005662    3.1316150548998101
1    6.9970849533084607    9.6162682141203639    0.3950210562137674
1    8.6196987742696578    2.4956232216357588    0.1082946218688114
1    7.7305898675312488   10.7457731424105631    4.2022955839463609
1    9.9963559082822009    2.9833639888909067    3.4474612835346670
2    0.8862743667253177   10.6650846228825991    7.6064180163199770
2    6.7020409468371573    9.5688860164242513    5.4295979494305815
2    4.2509886576718356    1.3767947770299334    9.2472249327130580
2    6.6329800779619843   10.6301527273316587    7.8472333015266251
2    3.1359740264219083   10.4475365750414095    0.0896566506579520
2   10.8701207109086990    7.2575229150091962    2.0821644095788909
2    9.1501049588420642    9.2205591864388978    4.4237712661278401
2    0.4537054960522348    4.7382538657775788    0.6332054019018439
2    5.6071100718655122    4.3654847526864833    7.4427419836564148
2    1.8772412953043445    1.1261455520906947    5.4600603005785926
2    0.1963280424625230    8.9213678692246372   11.0043132365107539
2    9.0561140230535369    8.0734495190201585    7.6382622255888535
2    9.7243419805233522    1.2471830399791726   10.3700634486675263
2    4.4194546291502990   11.0997984387919839    5.0149685053632806
2    5.9681117048695622    6.6407573012567971    4.6571875227866633
2    6.5824434046384059    2.9939068081516704    0.8441811151814079
2   10.9103836479915728    6.4580119490194106    5.4273037317230379
2    1.8412860587178068    7.3510376860966105    3.3025560254184221
2    5.3546742151391769    6.6622826318877619    1.0713088202775856
2    3.2846031965856906    1.8799588548232473    0.3838870402334447
2    5.5927538468448033    8.9846652865811283   10.0508960792380080
2    3.9803333365777749    2.6078293101505845    3.0027438156208519
2    2.2315091690683824    3.2946844312798831    7.1961344744161346
2    8.1898912673798563    7.0201768790997736    0.8639295017624304
2    8.7513663823013594   10.1630933404545267    1.2084895822232609
2    7.7413258826175726    5.7367874452687442    6.5303575654677184
2    2.8440421945118395    5.3597210325192339    2.5911661395743253
2   11.0848939977827072    4.5796996477583436    7.9367225773020342
2    7.0844860020833940    8.7645824580025291    2.4391998003431632
2    2.7257167645146043    5.0515914147201562    5.9371758997048749
2    0.2603719162299355    9.0555010215448899    5.5694163083285861
2    3.1011835984150129    5.8092766879742062    9.0937832186346359
2   10.2761722677985166    1.2301970784730365    7.8602647477153944
2    4.6950340467672254    4.1920718788399371   10.0147110021148809
2    1.2017450203437967    6.6343877060397354   10.9667994208571837
2    9.8334559177658978    4.7549333110551251    3.7201340351525434
2    5.1259278940980870    4.0131405498775390    5.0998539162682066
2    8.8772749280647698    4.2765533496555515    0.0383828989319999
2    3.0339594683396709   10.2049660604612988    3.3253575626935508
2    7.1564706203255870    0.5527426819933607   10.2380539163593980
2    3.4061243731917008    8.1246917264485301    9.7965951208762885
2    5.7188065472228704    6.9240920542752740    8.1036101640171054
2    8.0826843433788422    2.8470693763366177    4.9721895471904416
2    0.3058847182718174   10.0764434664398195    2.5264770927732823
2    1.1350679452871613    7.1348400699411130    7.9929832076205942
2    0.6342293690240426    0.7711644319003860    0.1985661057814721
2    9.7311083846345241    2.2304431320705600    1.6538612362152068
2    6.9721240787976990    5.8733391757287334   10.2255973756802749
2    0.4053628784493691    3.4286810908401288    4.9413391180242616
2    6.1763040651699761    4.8474542495687363    2.8291591353733452
2    9.7294231859693934   10.1118694208193034    9.0301831150060838
2    1.4894062768359304    3.6969717382462717   10.0550905152240642
2    3.5161663779303649    7.3446298226271880    5.9070399788250567
2    1.1265158694750284    3.1575543775086712    2.9564254547180369
2    8.4257262903355450    0.2387839094974880    5.8963531206646991
2    5.3945449758108825    0.4880942707360119    1.2543526252091139
2    8.0433904441736015    8.5325703999030598   10.2613487376411818
2    9.5201196084029842    5.9357435147632964    9.1312085943894452
2    8.1850082202943408    2.4974496636225743    9.0028114978922567
2    3.9551682564705652   10.0816178091908277    7.3994218170062052
2    3.1835407487408349    7.1879923444044485    1.0573073902860231
2    6.2865648291537060    2.0494795658178409    7.3348626259431677
2    6.6972233863459909    1.1009233108955854    3.4441237644070455
2    9.3374734898831573    0.8572201768822145    3.4450994938618331
96
 Atoms. Timestep: 4
1   10.8849482050634219    8.4391026086229814    3.7544882659767556
1    2.7769323365943923   10.2653702659323667    5.3969393369479119
1    5.2434221541960300    5.8726627430546436    6.3544571025944387
1    2.3284531776842758    3.3106929058115444    4.5831969492732068
1    4.2004661316939638    6.7664416419225430    2.6725823554262469
1    4.2242230427468295    9.9402977777000547    9.3914989093299983
1    0.1291717492451163    0.0415547647182102    9.2425719951426917
1    0.6117425516026249    2.3407904387772018    7.0742178377968958
1    1.2409243101672633    5.4669536108783694    9.2524618075566245
1    6.5064589818643466    3.3212135863962295    3.9601438970497500
1    5.3414098511321573    0.1810714913249586    6.8114025017058264
1    3.5436123425978008    3.7874996777726966    8.6973916243877838
1    7.4162917749216319    7.1755859193650009    8.9874535696283839
1    5.1645760963822500    1.8140610883984261   10.9924137978937981
1    9.5890971630240269    6.0193829324702639    6.9622647841667575
1    1.6245349372922702    6.7801568439101949    6.2118578267095694
1    9.9848029908304650    6.2432106710799573    0.0794732529735037
1    1.4622897981762017    2.5170034384201774    0.5671575907593435
1    9.9927422342347363    9.7767751559698493    6.6877250789123597
1    1.5514809374010994    6.2533782117471883    1.9230810673190650
1   10.1282082470602699    0.1195517693868960    1.7000578959792856
1    7.2431508840088599    8.0300171860119978    4.1729882972096570
1    8.3214269109104517    0.5603358884263827    8.6673590458325975
1    6.8784153478129184    5.3299722265396356    0.9504279627833857
1    4.5593915511971606    6.4423324007997946   10.2626665081396329
1    1.9783064612193497    8.9931492934813964    0.0372027285601806
1    7.4256972838754738    3.6240644832539357    7.2692913667948833
1    4.5288287216261880    0.6728580219575782    3.1363140200975139
1    7.0010169603728416    9.6202372836083097    0.4025643781962844
1    8.6218047198570122    2.4966293242872108    0.1068983642115114
1    7.7321075849864380   10.7417476543786101    4.1991148850416957
1    9.9992025685910981    2.9885297385132898    3.4442974863122360
2    0.8834225167904692   10.6564033839486161    7.6261202387344253
2    6.6985328333096863    9.5753354756092648    5.4174671796151346
2    4.2472140379484831    1.3817820172968316    9.2483336133421208
2    6.6479063827084506   10.6350144523958079    7.8536637396573763
2    3.1390371460013915   10.4347816523736387    0.1118213604216489
2   10.8566113305862419    7.2487432153444109    2.0656396078943615
2    9.1664734220457884    9.2495599734068747    4.4179381137015730
2    0.4549990729168431    4.7496817335178187    0.6133144114660909
2    5.5887679851316134    4.3493928083247209    7.4300680912396420
2    1.8835586120279850    1.1156752064464259    5.4596683829516195
2    0.1703367511917184    8.9063718870019848   11.0344987935095524
2    9.0571970618946516    8.0706853281957915    7.6402740669128351
2    9.7237399552869199    1.2686027417804782   10.3474213054340840
2    4.4317281202106411   11.1154619699089530    5.0158200422664185
2    5.9552740418777406    6.6481842998815077    4.6593467666149051
2    6.5919216799413549    2.9936792445484399    0.8443509402375229
2   10.9361620993284809    6.4430460456494449    5.4229845141767514
2    1.8236291210292690    7.3494000625164686    3.2920527017704053
2    5.3542437544376842    6.6645586502100036    1.0845109978056098
2    3.2638347942841675    1.8796879484799909    0.3875293218970750
2    5.5838825912611503    8.9836703117332490   10.0521619244447233
2    3.9712313513749917    2.6353028894608159    3.0111915293788956
2    2.2184391447030327    3.3043189432779152    7.1917832801080799