ITEM: TIMESTEP
0
ITEM: NUMBER OF ATOMS
96
ITEM: BOX BOUNDS pp pp pp
0.0000000000000000e+00 1.1107390000000001e+01
0.0000000000000000e+00 1.1107390000000001e+01
0.0000000000000000e+00 1.1107390000000001e+01
ITEM: ATOMS id type x y z fx fy fz
   1 1   10.8872619700000008    8.4562843700000005    3.7519201999999998    2.4832974348642196   -0.5245361115803178   -3.4007976656772456
   2 1    2.7682177200000000   10.2805686600000001    5.4050766000000001   -4.6311141112298406   -0.3429716025575500   -1.1435229864806908
   3 1    5.2661078999999997    5.8903774300000000    6.3473908999999997   -3.5437504783813640    0.8833957831823369   -1.6392656005808579
   4 1    2.3234128500000000    3.2823558199999998    4.5907470999999997    1.5009107257727856    0.1509988546045431   -0.6602762730520489
   5 1    4.2106383799999998    6.7881501100000001    2.6523938999999999   -0.4193319361713570   -1.6159227416343604    2.3324931716219250
   6 1    4.2482845500000002    9.9314096299999992    9.3820323999999999   -3.1979960722232335    2.5132431501050192    0.7966024208680977
   7 1    0.1142743800000000    0.0620883100000000    9.2552570000000003    1.4181802949457278   -0.6485730049390135    4.8877367481723510
   8 1    0.5961936000000000    2.3333637399999998    7.0547306000000001    0.2114330403999958    2.0680609445642730   -4.1287993024568053
   9 1    1.2350242499999999    5.4572453100000002    9.2364622000000001   -3.8820305161152930    2.6316561768996749    1.3983214987695618
  10 1    6.5585646899999999    3.2954576499999999    3.9863734000000002   -4.2022988136266584    0.1372945094360558   -1.6905910276953797
  11 1    5.3354822200000003    0.2000503100000000    6.8009212000000003    1.4200440595735984    4.0205398708933444    0.6495357478491144
  12 1    3.5588698499999998    3.7985817599999998    8.7246772999999997    0.2349792424320389   -3.7592221860995987   -3.0816577120899842
  13 1    7.4227238499999997    7.1833115000000003    8.9492876999999993    3.3030239028970145    1.9555011577582990    0.8270365933368746
  14 1    5.1314672300000002    1.7989666600000001   10.9839490000000009    2.7518552671235259    1.4037344867240460   -1.6937855930017942
  15 1    9.6043533100000005    6.0175944799999996    6.9577751000000001    2.9399595390679458    1.2227296752978809    2.4212791507558897
  16 1    1.6444819700000000    6.7989453800000001    6.2042459000000001    1.7098921499672173   -2.0478088146535853   -0.4748187892159175
  17 1    9.9772603800000006    6.2552431999999998    0.0583646000000000   -0.9715892379322639   -0.2448650237495542    1.8278246175443229
  18 1    1.4489142600000000    2.5210595300000000    0.5942683000000000    1.2401125173418706    1.8447343629780462    2.6569730451647930
  19 1    9.9731027799999996    9.7864869599999995    6.7025277000000001   -1.5559351047823355   -0.3335838251447658    1.5105975109808831
  20 1    1.5403115300000001    6.2348670200000003    1.9041433999999999   -8.3216439892001262   -0.4750218532585393   -5.6668494855110474
  21 1   10.1504474800000004    0.1355879100000000    1.7069723000000001    1.0388868621461853    0.6762716468014069   -1.6274143725674008
  22 1    7.2382545399999998    8.0330458300000007    4.1684805999999996    0.2645203862010652   -0.5323644865022336    1.3160843962280548
  23 1    8.3199954799999993    0.5598223400000000    8.6503259000000003   -3.4936497794920029    1.3595111419851875    1.2186508193501773
  24 1    6.8774039900000004    5.3320168199999998    0.9926531000000000    4.1614126806354967   -1.1402479257159095   -0.0618118275944886
  25 1    4.5566227000000001    6.4139282599999996   10.2857575000000008    0.8797263829168642    2.2007274095062499   -1.2963865589445689
  26 1    1.9637026900000001    8.9887812000000000    0.0439998000000000    5.4876500258763725   -4.3342905356427712    2.7970596041861446
  27 1    7.4158237199999997    3.6301289699999999    7.2695812999999996   -0.1467661742726252   -2.4697479337420134    1.2130259620631971
  28 1    4.5377032599999998    0.6808431300000000    3.1163341000000000   -0.4535863363075023   -0.2908715771328758   -3.6855793032079536
  29 1    6.9858429900000001    9.6046346600000003    0.3723487000000000    1.7340960153161726    1.0671998145877983    0.2735146455795563
  30 1    8.6115279200000003    2.4922300700000002    0.1118609000000000   -5.4287935295539427   -0.4890688912697740   -2.2284317520955703
  31 1    7.7270777800000001   10.7591459999999994    4.2118387000000004    3.1724195351691042    2.6580931129058594   -0.3618981197205987
  32 1    9.9888031799999997    2.9678138600000001    3.4581238000000001    3.2858609996555757   -0.5164266160866209    3.1304797242362099
  33 2    0.8992960600000000   10.6864644599999998    7.5390086700000003    0.5927257679926896   -0.7343184338267719   -0.9894448276448031
  34 2    6.7075754400000003    9.5422469000000003    5.4586596199999997   -1.3609721271543507   -1.6651194380213621   -2.2535201906927886
  35 2    4.2623142899999999    1.3604461200000000    9.2361252300000007   -0.1090235878780206   -0.3949927774789650   -2.5370122752901807
  36 2    6.5996505900000004   10.6072639899999999    7.8373401700000001    3.3558308010054212   -2.1135877140410391    2.5103642295803721
  37 2    3.1314888000000001   10.4900214900000002    0.0162407800000000    0.6707989069294377    0.5619658370967822   -1.8869052623860088
  38 2   10.9008224200000008    7.2841989299999996    2.1318183700000000   -2.5564529272816117   -0.0311910607061350   -0.2406631734338873
  39 2    9.0988866500000007    9.1267366499999998    4.4419974299999998   -0.0490471857484636   -1.5097757973256059    0.1406637174073779
  40 2    0.4414378900000000    4.7006667699999998    0.6985599700000000   -1.8775003137261308   -0.7017775533584949    1.1113038717318204
  41 2    5.6597280300000001    4.4100263699999998    7.4915150300000004   -1.2466232699680688   -1.1618160269301541    2.4524611744636147
  42 2    1.8611853700000001    1.1568000100000000    5.4640654700000004    0.8827569055852615   -0.1854956804285848    0.5904127645792094
  43 2    0.2583514500000000    8.9755244199999993   10.9068411899999997   -6.4049865056987656    2.5897795022589634   -2.3459989817735902
  44 2    9.0548527399999994    8.0792885600000002    7.6211215000000001    0.3551744871782176   -0.8399960051388327   -2.7095891796519997
  45 2    9.7293191100000005    1.1732500600000000   10.4309134100000005   -0.4598808386243149   -2.0198688850719719   -2.1205063906227153
  46 2    4.3930576099999996   11.0582403500000002    5.0160466699999997    3.6535580779731731    1.9324295938213787    0.9838236207443742
  47 2    6.0054828699999998    6.6232011499999999    4.6454218400000000   -0.7193563739592364    1.1717209725995090   -1.1726516691086886
  48 2    6.5573901899999996    2.9991108199999998    0.8416408200000000    1.3203893063579477    1.2456182596943925   -0.3439525943363495
  49 2   10.8289244000000000    6.5058321299999999    5.4410252999999997   -0.3288813094114857    0.8733433754985072    0.1639207034820060
  50 2    1.8983061600000000    7.3741918899999996    3.3560855599999999    0.8323201108497216    3.3520849618408448    4.1310471926986310
  51 2    5.3609917800000000    6.6518150100000000    1.0310178200000000    1.3617324491129530   -0.7176571568388823    0.5298924175862112
  52 2    3.3383210700000001    1.8896659400000000    0.3776929100000000   -4.2237787907402637    2.6667095056036931    1.6921137218061979
  53 2    5.6323954100000000    8.9796486000000009   10.0535500500000001    2.7160340317546319   -2.5016173868299232    1.1920353916015143
  54 2    4.0083879199999997    2.5170635300000002    2.9854359499999998   -0.1960388239892410   -1.0617794247122898    2.1982940914736169
  55 2    2.2748493399999998    3.2579365500000002    7.2145859100000003    0.3684773007552451   -2.4277073745442976    1.5085424486383197
  56 2    8.1754375699999997    7.0892364600000004    0.8372943900000001    1.7759799856667584   -4.3055682375716469    2.0147427175373132
  57 2    8.7372767899999992   10.1572731899999997    1.1427389500000000   -0.2644100612910876    0.4104169171265291   -0.1256321174789292
  58 2    7.6721479600000002    5.7576417900000001    6.5717552699999997    0.7300671990195333   -0.6107102376805037    0.3137589206358117
  59 2    2.8573021000000001    5.3058821299999996    2.5846852100000000    7.5856914771560611   -4.4333135080563544    3.3757085936298772
  60 2   11.0496160200000002    4.5237725900000001    7.8645253999999998    0.0681921119085871   -0.9501749892109217   -1.8020802222883674
  61 2    7.0974205000000001    8.7987293199999996    2.4469050299999999   -2.0598688484277838    0.5969175360304226    1.0327277376879467
  62 2    2.7639507100000000    5.0433260899999999    6.0009321699999996   -0.8731031553206376    0.9625718305808162   -1.3573423682641765
  63 2    0.3105592900000000    9.0883059700000004    5.6079435999999996    2.6022091340564657    0.0867041902823757   -0.3853344254051052
  64 2    3.1714078699999999    5.7927073699999996    9.0546962299999993   -1.0310340257894843   -2.2305814580817644   -1.6917971533418745
  65 2   10.2930971299999996    1.2217674700000001    7.9251554200000003   -1.2210870231701634    1.6155038162077204   -1.1457176416692292
  66 2    4.7185160200000000    4.2404048599999999   10.0406465899999997    2.5120764119486978    1.0534891297578639    4.4876498059430432
  67 2    1.1462654299999999    6.6556243999999998   11.0138255699999998   -1.1352639990866606    0.8079110985596891   -3.4192993605705766
  68 2    9.8782392199999993    4.7216192000000001    3.7816931999999999   -2.6497499913310456    2.3132641265185629   -1.1177966422461552
  69 2    5.0942635799999998    3.9785664700000001    5.0894828499999996    1.5819570702173165   -0.1797536329627594    0.0363579139832276
  70 2    8.8305780899999995    4.3079392299999997    0.0261620100000000    1.1905712411778211    4.2134919684689862    1.3937375760925406
  71 2    3.0712221000000000   10.2141261399999994    3.2803941399999998    0.5168664387813622    0.6944793077731546    1.8714481278230233
  72 2    7.0356257600000003    0.4958538800000000   10.2378326499999996    0.3330556519134236   -0.4907301530107593    1.2993393902702319
  73 2    3.3472604000000001    8.1563256400000004    9.8034061799999996   -0.6507937841202729    0.4859363970736714   -0.5749070195977313
  74 2    5.6974389600000004    6.8821400700000002    8.0734096399999995   -1.0168631824763885    1.2078019113815657    0.8652709440380919
  75 2    8.0485931799999992    2.7970448399999999    5.0298017300000000    1.4727448117284823    1.5236096992634316    1.5419676516685241
  76 2    0.3021852100000000   10.1073913500000003    2.5455883099999999   -0.0208152559888788   -2.4590560727571642    2.2718468238700495
  77 2    1.1153934400000001    7.1461635000000001    8.0700614300000009   -0.5154722975525701   -0.5622118710775794   -1.3571101549384181
  78 2    0.6031487200000000    0.8197781400000000    0.1607944700000000    1.4930375369555122   -0.3832768600339520    0.6740423424325499
  79 2    9.7410407400000008    2.2071615699999998    1.6428867199999999    1.5372500378859364    1.2870000789522891   -1.1951022430439338
  80 2    6.9329835900000001    5.7775663300000000   10.2127439399999993   -2.9719905929393065    0.3829412306620199   -2.2433963838866262
  81 2    0.4413329300000000    3.4393040099999999    4.9126227699999996   -1.6629261533960715   -1.8581748694918563    6.3453619618273223
  82 2    6.2104950800000003    4.9301905499999998    2.8262671699999999    0.6371817326905571   -0.0273522862182389   -0.2112566777147435
  83 2    9.7264287500000002   10.0820245100000001    9.0428253200000004   -2.0130550487244250    0.1390216050331787   -2.9154176083285961
  84 2    1.5449955200000001    3.6458910300000000   10.0669020200000006    2.5609775528060510   -1.5658083272165548   -2.6161895222144409
  85 2    3.4866860300000000    7.3412674700000000    5.9582810100000003    1.1416526858784515    2.2013798738416899   -0.3915505958699814
  86 2    1.1235467100000001    3.1292215600000000    2.9788549400000002    0.2900147188086919   -1.8535211896278696   -4.4711676815232693
  87 2    8.4392817400000002    0.1819419400000000    5.8820224500000000    2.9229797042850896   -0.8197697333746596    3.4037237122498816
  88 2    5.3682652300000004    0.5115820599999999    1.2046327699999999    0.3094098678217563   -3.9496927630175236    2.7548287768129143
  89 2    8.0774973800000005    8.5162950500000001   10.2922670800000002   -0.8618209560435544    0.4782036833727149   -2.0575238103967699
  90 2    9.5140077999999999    5.8985431400000001    9.1500391800000003   -0.3743052419409025    1.9700451569001451    0.2022014938014678
  91 2    8.2219958599999998    2.5738912699999998    8.9791284400000002   -0.3249784841617265    1.5304445712116705   -1.0709982640853730
  92 2    3.9301748999999999   10.0729433299999993    7.4269552100000000   -1.4381555541137243    0.3524660160470177   -2.1964796148084673
  93 2    3.2190650199999999    7.1542058099999997    1.0534665200000000   -1.2349874995491028    1.7946165173483226   -0.6891095855840383
  94 2    6.3645665700000000    2.0810346100000001    7.3590762900000000   -0.9545451848866602   -2.7318470325974999   -1.9781970888599441
  95 2    6.7014198299999999    1.0770554000000001    3.4241068800000001   -3.5486565471265692    1.6716368393926402    0.6024878234097653
  96 2    9.3346107899999993    0.8531612900000000    3.4202645000000000   -0.0050635575978788   -1.7234305414792814    1.5062437807364404
ITEM: TIMESTEP
1
ITEM: NUMBER OF ATOMS
96
ITEM: BOX BOUNDS pp pp pp
0.0000000000000000e+00 1.1107390000000001e+01
0.0000000000000000e+00 1.1107390000000001e+01
0.0000000000000000e+00 1.1107390000000001e+01
ITEM: ATOMS id type x y z fx fy fz
   1 1   10.8864809259833137    8.4520568596922985    3.7529080911179138    2.4985948829473017   -0.7146701746002044   -3.9326059542804046
   2 1    2.7707202959544230   10.2767774562353136    5.4031507819375628   -4.2615768877372764   -0.2073955988527549   -1.2700511720289667
   3 1    5.2607235002792336    5.8858363726719816    6.3493063427908929   -3.5468818753030256    1.1927831396733666   -1.7615269003822611
   4 1    2.3245879845400679    3.2894246473498914    4.5889199873514892    1.2401739080120320    0.1721761314002661   -0.7016511555040013
   5 1    4.2081190127712995    6.7828173905949320    2.6572594552750224   -0.3705212155950410   -1.3544807625589474    2.2655563774216869
   6 1    4.2425449539896913    9.9334225437480228    9.3843560489569651   -3.3636697336676100    2.5765271529151015    0.6347625621410771
   7 1    0.1179216664459405    0.0569477228920826    9.2516398067523351    1.1509283949106361   -0.1987951019069456    5.2387738861990485
   8 1    0.6001082051484248    2.3350603037895130    7.0599515774020825   -0.1084512181291473    2.0204605392906814   -4.2387560493276908
   9 1    1.2368658138426314    5.4594317078347254    9.2403227711419191   -4.2492024596805322    2.8323299751542876    1.6006465787740218
  10 1    6.5458263241760486    3.3019449722007224    3.9799176123923203   -3.8391159981073919   -0.2725517899841696   -1.4528505429885654
  11 1    5.3368136185122061    0.1949594533172992    6.8035139860152025    1.6439108543821135    4.1954537313625337    0.4364395327044406
  12 1    3.5550686642222611    3.7961091122284065    8.7181255282854604   -0.0387964243431984   -3.7197979016593834   -3.2670910545002285
  13 1    7.4207883290925301    7.1811585066148478    8.9588333922481187    3.7384095667875976    2.3934687504332790    0.3491944878052887
  14 1    5.1395919870233673    1.8026638591251742   10.9861554818189830    2.2203369108509854    1.1322787915254677   -1.3391211193024368
  15 1    9.6002320316214966    6.0179230225526119    6.9586901687056200    3.4372255842947794    1.3648690878413561    2.4949948798258159
  16 1    1.6393137650830285    6.7944122602135693    6.2062415912503148    2.0050102997433044   -2.0377411129395426   -0.8254983411362753
  17 1    9.9791826297004018    6.2522524987619281    0.0634894960696438   -0.6514752035802260   -0.2265225925597747    1.8587294513194337
  18 1    1.4521949202182274    2.5198939462845664    0.5872816524704055    0.9938900039149292    1.8524277946334060    2.6085236375235890
  19 1    9.9781776593478781    9.7840611813831391    6.6986870168729062   -1.8546847272184905   -0.1476924005871822    1.6427239577020458
  20 1    1.5439394401297342    6.2395243449436411    1.9095291830850094   -9.6009352019586842   -0.3400039737152500   -7.1319058923707885
  21 1   10.1447205658291022    0.1314781413833253    1.7053251098565443    1.6291645922751172    1.0208300866904274   -1.2580616139379508
  22 1    7.2394627756208925    8.0323504808908428    4.1694930768838212    0.2313083940934156   -0.6657136545673489    1.3795583001607603
  23 1    8.3206011628675665    0.5598709789492271    8.6545457997902400   -3.2573796637306884    1.1607486558250457    0.8093940916045543
  24 1    6.8773315297984201    5.3316083531072520    0.9820339928101246    4.0685879873315880   -1.2161818489949381    0.4646343260014476
  25 1    4.5572733017182632    6.4208495477558101   10.2800752348410303    0.6544212524901880    2.2246634254190241   -1.1815105243085071
  26 1    1.9670600486332497    8.9902839630914357    0.0421091318384206    4.4378615724591715   -4.7879007689681075    2.5322849132280987
  27 1    7.4183610420413784    3.6288699921624472    7.2694253966119877   -0.5821151756695750   -2.9148056099912205    1.1116406820156539
  28 1    4.5355442798335410    0.6787895013606732    3.1216271112377494   -0.6421187761521665    0.3714807352232512   -3.6954592941709086
  29 1    6.9894968967976503    9.6084619235444926    0.3799049186400171    1.7319171196609848    0.9673541509020913    0.0782291346746229
  30 1    8.6145561797982300    2.4934109132874598    0.1107822628000490   -5.5982555320094338   -0.8288838027901928   -2.0811312684503847
  31 1    7.7280749782902891   10.7545038893919696    4.2086660150055151    3.2058181370713204    3.2192785172283283   -0.2075301838262272
  32 1    9.9911504464275307    2.9730163846924680    3.4543857228558630    3.1851157634022584   -0.4093023405690168    3.3326793120088780
  33 2    0.8943759976888603   10.6799742668740478    7.5625181088665059    0.8684644804359607   -0.9759636440774386   -1.5345632774168934
  34 2    6.7065620580237253    9.5522619786962490    5.4502583847334751   -1.3769128828637938   -1.8344010889833986   -2.1659648231405026
  35 2    4.2585719787081482    1.3661331427600165    9.2412373506861165   -0.0713352532535083   -0.3962604561071963   -2.4007893094545238
  36 2    6.6087622536314976   10.6162482003022749    7.8390651433176695    3.3475605729924705   -2.2233613781765582    2.6005006302249716
  37 2    3.1323571428189005   10.4752965000588265    0.0418670769248917    0.9493247119324628    0.8497680991589219   -1.9118471681038423
  38 2   10.8922159757155370    7.2752634514193328    2.1153130282645507   -2.6804287581481567    0.0577614823647821   -0.1117816027581000
  39 2    9.1161838149649945    9.1590621330540465    4.4358165203715094   -0.2976006003966347   -1.6917915079546830    0.1664005046272621
  40 2    0.4468270804405330    4.7137049133915072    0.6759462731642747   -2.0944462098401289   -0.8159520725895142    1.3086422502313901
  41 2    5.6427319969013752    4.3958411427703155    7.4735930288660306   -0.9830901236878801   -1.1167684725054488    2.6861738271330191
  42 2    1.8660341992881451    1.1467033405314642    5.4623037358963424    0.8458727406567546   -0.1980343358692774    0.6808549481366732
  43 2    0.2409093162434993    8.9559345505637822   10.9405863389752120   -5.6627577454504063    2.5566441785001075   -2.1423075649045984
  44 2    9.0549907132040754    8.0777936335150393    7.6285975372435182    0.4406709565079772   -0.7718220192218337   -2.8717229443324519
  45 2    9.7274614352679833    1.1993606274302058   10.4118640637299134    0.1395462590259910   -2.3404642198911034   -2.0710927378821875
  46 2    4.3999063091423665   11.0710697697140752    5.0150845872904579    3.3481664605428136    1.7601079164008269    0.9965796935375550
  47 2    5.9933161180589760    6.6282897470535938    4.6501593698952703   -0.5383658664072186    1.2485111335682859   -1.3124523821189342
  48 2    6.5650759356521338    2.9966121488455459    0.8427666716499598    1.1592046408440217    1.2683344943679506   -0.4308571755281227
  49 2   10.8565437954352877    6.4893869478857278    5.4363241487960128   -0.6560522894144114    0.8471626964233678    0.2064597164090429
  50 2    1.8786835673667337    7.3638492425062427    3.3350562069276108    0.9815652967323345    4.1073429134702835    4.9996803039285567
  51 2    5.3580468955198874    6.6558443219803660    1.0443810341153621    1.3887839340876447   -0.8556771259199252    0.2137591710770863
  52 2    3.3223456397034643    1.8848838102091487    0.3788675794080428   -3.4706080448047061    2.5956920530732748    1.5316554477214481
  53 2    5.6171884730980599    8.9827472270179882   10.0517183781190536    3.1856373655937245   -2.4090337474660073    1.4894695272323506
  54 2    3.9989977293794259    2.5484429950312708    2.9898665966829481    0.0103061966321611   -1.6976393146275219    2.2175530289507668
  55 2    2.2599247686520707    3.2715738481430710    7.2075285319813505    0.6796463651434976   -2.3410828018508454    1.5067244541792562
  56 2    8.1792563256038555    7.0686725971797264    0.8450048846417756    1.6905255420598024   -4.1378822855201705    1.9581546775747523
  57 2    8.7425858226729325   10.1592311025733988    1.1649255982818778   -0.8247896275986690    0.0849741535643957   -0.3693561906342779
  58 2    7.6951755197544065    5.7511805264752125    6.5577544264759968    0.2290933811399896   -0.7616825420645308    0.3339594790403093
  59 2    2.8475589938678398    5.3272555164029338    2.5844170436813156    8.5705651980848572   -5.4078988997273889    3.8876620336821492
  60 2   11.0615007390243942    4.5431416411512613    7.8899340384516270   -0.1301179579350986   -1.1393179474368935   -2.1150429736431420
  61 2    7.0943231412015662    8.7869789283842596    2.4437171627006928   -2.0272434147536096    0.6052878222918111    1.0323057798534596
  62 2    2.7516330680769578    5.0456087810645869    5.9805075720479453   -0.7519734317722375    0.8339872286609598   -1.3689622009964659
  63 2    0.2920437702512408    9.0772202459233196    5.5950795736546315    2.8762870699775078    0.2107216027465597   -0.0746539722657644
  64 2    3.1479134177263992    5.7996756824398048    9.0687873858205528   -0.1725213723876884   -2.3662343540190367   -1.7434521616544361
  65 2   10.2880765842131296    1.2237537182270810    7.9040804042268373   -1.0808109737968792    1.4293867684507120   -0.9763811205799477
  66 2    4.7089201710090753    4.2235225263820775   10.0290993006075730    2.8511546792479976    1.2358615128507324    4.7521612056596751
  67 2    1.1654525143723957    6.6479007236901762   11.0000903078910248   -1.1494768194040290    1.0008979497693424   -3.2861147181216808
  68 2    9.8648383904718617    4.7314004311517444    3.7618663933695320   -2.5675328875338010    2.2399392934213562   -1.1408384401391629
  69 2    5.1040408872506271    3.9901314251895115    5.0928432954094385    1.3662151447527897   -0.0972732734603294    0.1271023476745033
  70 2    8.8455091549996716    4.2944964188351555    0.0295112887017373    1.0901729673823866    4.7868152806833564    1.2483556624885743
  71 2    3.0583980697579967   10.2106343832324953    3.2942430963519147    0.6325786986926292    0.7213495818498621    1.8890070582422585
  72 2    7.0761208918856022    0.5152421133733879   10.2367425158386514   -0.1717878785100395   -0.6510516636364461    1.7568075589848122
  73 2    3.3674351451173155    8.1453489493897600    9.8014571006806772   -0.8491434196233243    0.6559974069109478   -0.5427415154793839
  74 2    5.7053979953731746    6.8956638225713238    8.0831758236084550   -1.2927026987227896    0.8722066639702177    0.5907343091163106
  75 2    8.0591798451462804    2.8127605625258942    5.0096474666616473    1.3404919508319804    1.5760258877236546    1.5718322109835134
  76 2    0.3035249596800237   10.0985029120182226    2.5378220865759333   -0.1333147670829362   -2.3972898122678146    2.3096027232330698
  77 2    1.1223375013969630    7.1425279989470809    8.0448546384051287   -0.6043462175444674   -0.3156815265557356   -0.9700842314346687
  78 2    0.6127707106926982    0.8037536763145147    0.1730703370409234    1.2915310088626484   -0.3200865465453617    0.5597425048673514
  79 2    9.7367958630873623    2.2143500055622938    1.6473364966285862    1.5498294300170379    1.0368926454747509   -1.2854031090705718
  80 2    6.9480079049523491    5.8097814294997026   10.2181502295514051   -3.1993644660348588   -0.2511304570188032   -1.9840982093734536
  81 2    0.4301419606744883    3.4369460045957019    4.9184726976055604   -1.4146161105604733   -1.9344601276402891    6.2343672847197951
  82 2    6.1986670107271049    4.9022553120966279    2.8277181704806793    0.7015539418680348    0.4257565692316341   -0.6555116152494378
  83 2    9.7286756639043990   10.0920431026212416    9.0402899962170000   -2.0625745751826088   -0.0558869352094860   -2.8160424429656103
  84 2    1.5247403738827696    3.6643147351590124   10.0644516962804076    2.7883344931815515   -2.1252187166303393   -2.5102944843969794
  85 2    3.4959619798597341    7.3411346717457011    5.9414101126018926    0.9700941512051955    2.1122952167897511   -0.3612973826015371
  86 2    1.1243535602019334    3.1397400384061274    2.9739329085434338    0.3027337099364544   -1.8015738461412099   -4.3140139775900082
  87 2    8.4330815775010990    0.2015600725477306    5.8849532700124749    2.8273333895555717   -1.0341787100072697    3.1566093671507502
  88 2    5.3768956127553684    0.5058715198025742    1.2199165186500713    0.2386489951807533   -3.6296225057763820    2.3001571833895564
  89 2    8.0666633150827334    8.5213253849414716   10.2828806591697877   -0.8883580621814963    0.6113980197149762   -1.6639103860512043
  90 2    9.5164020596379277    5.9098038229945349    9.1436257427529792   -0.5375944869450109    1.9120501895957425    0.2230416586104766
  91 2    8.2099558808096127    2.5469811536617621    8.9878807293468785   -0.4393046539273588    2.1472499666954743   -1.3391578046849153
  92 2    3.9395431370511873   10.0757711984622986    7.4188921388897988   -1.6493404147616655    0.1692504125033309   -1.9451250517004084
  93 2    3.2076803151732545    7.1643557023347633    1.0550318544611452   -0.8721176585160890    1.8350881937388017   -0.5296724730023410
  94 2    6.3388684850353814    2.0717159460973091    7.3521921805702526   -0.6073991808818135   -2.1657405754836532   -1.9740576347089362
  95 2    6.7021911873041349    1.0841259622946897    3.4304473856776578   -3.5974893030226553    1.5248278536620177    0.5587698383786730
  96 2    9.3354946864912396    0.8555409483625532    3.4277793426086647    0.0861292880966857   -1.7138135075190206    1.3307496503500467
ITEM: TIMESTEP
2
ITEM: NUMBER OF ATOMS
96
ITEM: BOX BOUNDS pp pp pp
0.0000000000000000e+00 1.1107390000000001e+01
0.0000000000000000e+00 1.1107390000000001e+01
0.0000000000000000e+00 1.1107390000000001e+01
ITEM: ATOMS id type x y z fx fy fz
   1 1   10.8858349467133788    8.4477907145058353    3.7536834000500314    2.5016624510785164   -0.9011088978585775   -4.4401992652111417
   2 1    2.7729925075604447   10.2729750392985402    5.4011563083447500   -3.8629705232022737   -0.0533392616903319   -1.3786075157276123
   3 1    5.2551473657165788    5.8813597904539918    6.3511265647454040   -3.5395321048026069    1.4884169690835165   -1.8758585567553965
   4 1    2.3258301591354660    3.2965027858490856    4.5870549449167335    0.9534714026690647    0.1978625243716643   -0.7624964270276273
   5 1    4.2055796150830549    6.7774114498068023    2.6622474811913457   -0.2651346862130377   -1.0716120145623942    2.2197575687598943
   6 1    4.2366235267393435    9.9355747365336278    9.3867140122152186   -3.4437273560849508    2.5931761008521512    0.4742112162217254
   7 1    0.1216311700215058    0.0517963867765011    9.2483058010399759    0.8554943496709200    0.2379724111969139    5.6255507260538025
   8 1    0.6040169499783635    2.3368660874518676    7.0649434255761401   -0.4482085176814579    1.9560702606353715   -4.3421445884803234
   9 1    1.2384776818881742    5.4617712125967186    9.2442698697020607   -4.6496014294776913    3.0376086163654792    1.7840549695225931
  10 1    6.5328804222935517    3.3084175648139458    3.9733832852575541   -3.4208331441502589   -0.7437976487519453   -1.1647201910811100
  11 1    5.3382338817540784    0.1900953851649818    6.8061303658411294    1.9451585158294336    4.3191174010238029    0.2779579152803535
  12 1    3.5512653791404443    3.7934353840016222    8.7113971455816444   -0.2456724000490098   -3.6574037586878303   -3.3775320577228261
  13 1    7.4190548922774866    7.1791348944700353    8.9683979660030957    4.1872582269751382    2.8890973703581238   -0.2271748900441056
  14 1    5.1478367720905460    1.8064222672762094   10.9882895767216304    1.7009532575968791    0.8465634395257084   -0.9937645909130073
  15 1    9.5962965551857486    6.0183253452705685    6.9597401084947208    3.9610087318050127    1.5102911041446019    2.5851563623881884
  16 1    1.6342539410486860    6.7897689848554963    6.2081926600936042    2.3432856789403189   -2.0174525245055506   -1.2752832620520662
  17 1    9.9810696640268208    6.2492495508580177    0.0687148713032686   -0.3458916234631246   -0.2086692366093743    1.8883884536753257
  18 1    1.4555293084242846    2.5188284976011719    0.5804360086065617    0.6888887480557297    1.8741377473548864    2.5607014889413904