LAMMPS (27 Jun 2024)
**************** Begin of POD Potentials ****************
species: Hf O 
periodic boundary conditions: 1 1 1
number of environment clusters: 6
number of principal compoments: 1
inner cut-off radius: 1
outer cut-off radius: 5.2
cut-off function type: 1
gaussian_exponents: 
polynomial_degrees: 
bessel polynomial degree: 2
inverse polynomial degree: 12
one-body potential: 1
two-body radial basis functions: 8
three-body radial basis functions: 8
three-body angular degree: 4
four-body radial basis functions: 7
four-body angular degree: 3
five-body radial basis functions: 0
five-body angular degree: 0
six-body radial basis functions: 0
six-body angular degree: 0
seven-body radial basis functions: 0
seven-body angular degree: 0
number of local descriptors per element for one-body potential: 1
number of local descriptors per element for two-body potential: 16
number of local descriptors per element for three-body potential: 120
number of local descriptors per element for four-body potential: 196
number of local descriptors per element for five-body potential: 0
number of local descriptors per element for six-body potential: 0
number of local descriptors per element for seven-body potential: 0
number of local descriptors per element for all potentials: 333
number of global descriptors: 3986
**************** End of POD Potentials ****************

**************** Begin of Model Coefficients ****************
total number of coefficients for POD potential: 3986
total number of elements for PCA projection matrix: 664
total number of elements for PCA centroids: 12
**************** End of Model Coefficients ****************

**************** Begin of Data File ****************
file format: extxyz
file extension: xyz
path to training data set: /Users/swyant/cesmix/datasets/HfO2_cesmix/april_2025_data_mv/pod/trainval_1
path to test data set: /Users/swyant/cesmix/datasets/HfO2_cesmix/april_2025_data_mv/pod/test_1
path to environment configuration set: 
basename for output files: HfOx
training fraction: 1
test fraction: 1
randomize training data set: 1
randomize test data set: 0
error analysis for training data set: 1
error analysis for test data set: 1
energy/force calculation for training data set: 0
energy/force calculation for test data set: 0
fitting weight for energy: 100
fitting weight for force: 1
fitting weight for stress: 0
group_weights: global
save pod descriptors: 0
compute pod descriptors: 0
**************** End of Data File ****************
**************** Begin of Training Data Set ****************
----------------------------------------------------------------
     data file      | number of configurations | number of atoms
----------------------------------------------------------------
 dummy_trainval.xyz |              4574        |      452177
----------------------------------------------------------------
number of files: 1
number of configurations in all files: 4574
number of atoms in all files: 452177
minimum number of atoms: 49
maximum number of atoms: 188
**************** End of Training Data Set ****************
**************** Begin of Test Data Set ****************
------------------------------------------------------------
   data file    | number of configurations | number of atoms
------------------------------------------------------------
 dummy_test.xyz |               816        |       80995
------------------------------------------------------------
number of files: 1
number of configurations in all files: 816
number of atoms in all files: 80995
minimum number of atoms: 49
maximum number of atoms: 188
**************** End of Test Data Set ****************
**************** Begin of Memory Allocation ****************
maximum number of atoms in periodic domain: 188
maximum number of atoms in extended domain: 5076
maximum number of neighbors in extended domain: 954288
size of double memory: 113122680
size of descriptor matrix: 3986 x 3986
**************** End of Memory Allocation ****************
**************** Begin of Error Calculation ****************
Configuration: # 1
Configuration: # 101
Configuration: # 201
Configuration: # 301
Configuration: # 401
Configuration: # 501
Configuration: # 601
Configuration: # 701
Configuration: # 801
Configuration: # 901
Configuration: # 1001
Configuration: # 1101
Configuration: # 1201
Configuration: # 1301
Configuration: # 1401
Configuration: # 1501
Configuration: # 1601
Configuration: # 1701
Configuration: # 1801
Configuration: # 1901
Configuration: # 2001
Configuration: # 2101
Configuration: # 2201
Configuration: # 2301
Configuration: # 2401
Configuration: # 2501
Configuration: # 2601
Configuration: # 2701
Configuration: # 2801
Configuration: # 2901
Configuration: # 3001
Configuration: # 3101
Configuration: # 3201
Configuration: # 3301
Configuration: # 3401
Configuration: # 3501
Configuration: # 3601
Configuration: # 3701
Configuration: # 3801
Configuration: # 3901
Configuration: # 4001
Configuration: # 4101
Configuration: # 4201
Configuration: # 4301
Configuration: # 4401
Configuration: # 4501
**************** End of Error Calculation ****************
**************** Begin of Error Analysis for the Training Data Set ****************
----------------------------------------------------------------------------------------------------
         File         | # configs |  # atoms  | MAE energy  | RMSE energy | MAE force  | RMSE force
----------------------------------------------------------------------------------------------------
dummy_trainval.xyz         4574      452177     0.002638      0.004116      0.226791      0.374713  
----------------------------------------------------------------------------------------------------
All files                  4574      452177     0.002638      0.004116      0.226791      0.374713  
----------------------------------------------------------------------------------------------------
**************** End of Error Analysis for the Training Data Set ****************
**************** Begin of Error Calculation ****************
Configuration: # 1
Configuration: # 101
Configuration: # 201
Configuration: # 301
Configuration: # 401
Configuration: # 501
Configuration: # 601
Configuration: # 701
Configuration: # 801
**************** End of Error Calculation ****************
**************** Begin of Error Analysis for the Test Data Set ****************
------------------------------------------------------------------------------------------------
       File       | # configs |  # atoms  | MAE energy  | RMSE energy | MAE force  | RMSE force
------------------------------------------------------------------------------------------------
dummy_test.xyz          816       80995     0.004865      0.008252      0.233085      0.382350  
------------------------------------------------------------------------------------------------
All files               816       80995     0.004865      0.008252      0.233085      0.382350  
------------------------------------------------------------------------------------------------
**************** End of Error Analysis for the Test Data Set ****************
Total wall time: 0:02:50
