LAMMPS (27 Jun 2024)
OMP_NUM_THREADS environment is not set. Defaulting to 1 thread. (src/comm.cpp:98)
  using 1 OpenMP thread(s) per MPI task
# user-set variables
variable TEMP equal 300

# necessary preliminaries
units metal
atom_style atomic
dimension 3
boundary p p p

read_data orthog_Hf_7_4_4_Hfint_alt_DATA
Reading data file ...
  orthogonal box = (0 0 0) to (22.422218 22.19224 20.321894)
  5 by 2 by 2 MPI processor grid
  reading atoms ...
  448 atoms
  read_data CPU = 0.004 seconds

# neighbor parameters
neighbor 2.0 bin
neigh_modify every 1 delay 0 check no

# interatomic potential parameters
pair_style     pod
pair_coeff * * Hf_param.pod Hf_coefficients.pod Hf
**************** Begin of POD Potentials ****************
species: Hf 
periodic boundary conditions: 1 1 1
number of environment clusters: 8
number of principal compoments: 2
inner cut-off radius: 1
outer cut-off radius: 5
cut-off function type: 1
gaussian_exponents: 
polynomial_degrees: 
bessel polynomial degree: 4
inverse polynomial degree: 10
one-body potential: 1
two-body radial basis functions: 8
three-body radial basis functions: 8
three-body angular degree: 6
four-body radial basis functions: 7
four-body angular degree: 5
five-body radial basis functions: 0
five-body angular degree: 0
six-body radial basis functions: 0
six-body angular degree: 0
seven-body radial basis functions: 0
seven-body angular degree: 0
number of local descriptors per element for one-body potential: 1
number of local descriptors per element for two-body potential: 8
number of local descriptors per element for three-body potential: 56
number of local descriptors per element for four-body potential: 112
number of local descriptors per element for five-body potential: 0
number of local descriptors per element for six-body potential: 0
number of local descriptors per element for seven-body potential: 0
number of local descriptors per element for all potentials: 177
number of global descriptors: 1409
**************** End of POD Potentials ****************

**************** Begin of Model Coefficients ****************
total number of coefficients for POD potential: 1409
total number of elements for PCA projection matrix: 352
total number of elements for PCA centroids: 16
**************** End of Model Coefficients ****************


thermo 100
thermo_style custom step temp etotal pe ke press vol

# dump output
dump 1 all custom 100 ${TEMP}K_nvt.lammpstrj id type x y z
dump 1 all custom 100 300K_nvt.lammpstrj id type x y z
dump_modify 1 sort id

dump dforces all custom 250 dump_forces.custom id element x y z fx fy fz
dump_modify dforces sort id element Hf format line "%3d %2s %13.8f %13.8f %13.8f %13.8f %13.8f %13.8f"

velocity all create ${TEMP} 9928459 rot yes mom yes dist gaussian
velocity all create 300 9928459 rot yes mom yes dist gaussian
fix 1 all nvt temp ${TEMP} ${TEMP} 0.1
fix 1 all nvt temp 300 ${TEMP} 0.1
fix 1 all nvt temp 300 300 0.1

# run
run 100000

CITE-CITE-CITE-CITE-CITE-CITE-CITE-CITE-CITE-CITE-CITE-CITE-CITE

Your simulation uses code contributions which should be cited:

- Type Label Framework: https://doi.org/10.1021/acs.jpcb.3c08419

@Article{Gissinger24,
 author = {Jacob R. Gissinger, Ilia Nikiforov, Yaser Afshar, Brendon Waters, Moon-ki Choi, Daniel S. Karls, Alexander Stukowski, Wonpil Im, Hendrik Heinz, Axel Kohlmeyer, and Ellad B. Tadmor},
 title = {Type Label Framework for Bonded Force Fields in LAMMPS},
 journal = {J. Phys. Chem. B},
 year =    2024,
 volume =  128,
 number =  13,
 pages =   {3282–-3297}
}

CITE-CITE-CITE-CITE-CITE-CITE-CITE-CITE-CITE-CITE-CITE-CITE-CITE

Neighbor list info ...
  update: every = 1 steps, delay = 0 steps, check = no
  max neighbors/atom: 2000, page size: 100000
  master list distance cutoff = 7
  ghost atom cutoff = 7
  binsize = 3.5, bins = 7 7 6
  1 neighbor lists, perpetual/occasional/extra = 1 0 0
  (1) pair pod, perpetual
      attributes: full, newton on
      pair build: full/bin/atomonly
      stencil: full/bin/3d
      bin: standard
Per MPI rank memory allocation (min/avg/max) = 2.602 | 2.602 | 2.602 Mbytes
   Step          Temp          TotEng         PotEng         KinEng         Press          Volume    
         0   300           -3231.7429     -3249.0767      17.333785      27701.818      10112.159    
       100   299.15408     -3235.8424     -3253.1273      17.284909      9625.1737      10112.159    
       200   238.31847     -3235.9243     -3249.6942      13.769871      10511.553      10112.159    
       300   329.66222     -3234.2048     -3253.2525      19.047647      9674.2202      10112.159    
       400   344.45196     -3236.6901     -3256.5923      19.902188      9337.6058      10112.159    
       500   329.72356     -3239.5899     -3258.6411      19.051191      8152.6082      10112.159    
       600   300.24132     -3240.9881     -3258.3359      17.347729      8024.3349      10112.159    
       700   275.40453     -3241.2231     -3257.1358      15.912677      8653.0268      10112.159    
       800   309.29228     -3239.9807     -3257.8514      17.870687      8771.9888      10112.159    
       900   294.06609     -3239.3129     -3256.3038      16.990928      8961.7437      10112.159    
      1000   333.96741     -3238.6529     -3257.9493      19.296398      8427.3442      10112.159    
      1100   297.81325     -3239.297      -3256.5044      17.207437      9106.264       10112.159    
      1200   293.294       -3240.3361     -3257.2824      16.946317      8554.9198      10112.159    
      1300   277.69616     -3240.8957     -3256.9408      16.045085      8272.2302      10112.159    
      1400   307.66687     -3240.2926     -3258.0693      17.776772      8431.8398      10112.159    
      1500   301.18623     -3239.6849     -3257.0872      17.402325      8686.7448      10112.159    
      1600   331.74949     -3238.7149     -3257.8832      19.168248      8264.2855      10112.159    
      1700   294.08783     -3239.055      -3256.0472      16.992184      8623.0768      10112.159    
      1800   294.54932     -3239.403      -3256.4219      17.018849      8717.5684      10112.159    
      1900   309.02164     -3239.8266     -3257.6816      17.855049      9035.2133      10112.159    
      2000   282.13681     -3240.389      -3256.6907      16.301663      8052.2849      10112.159    
      2100   318.19982     -3239.7081     -3258.0935      18.385358      8583.6371      10112.159    
      2200   274.08927     -3240.1037     -3255.9404      15.836682      8373.6179      10112.159    
      2300   329.84979     -3238.3514     -3257.4099      19.058485      8676.9408      10112.159    
      2400   296.67644     -3238.0532     -3255.1949      17.141752      9404.421       10112.159    
      2500   323.02414     -3238.7522     -3257.4163      18.664104      8748.545       10112.159    
      2600   296.64583     -3240.2952     -3257.4352      17.139984      8607.6424      10112.159    
      2700   292.76952     -3240.4651     -3257.3811      16.916013      8487.4534      10112.159    
      2800   298.90577     -3239.9468     -3257.2174      17.270562      8598.7934      10112.159    
      2900   311.56501     -3238.9272     -3256.9292      18.002004      9224.857       10112.159    
      3000   304.12538     -3237.999      -3255.5712      17.572147      8553.85        10112.159    
      3100   328.88837     -3237.1102     -3256.1131      19.002935      8957.3022      10112.159    
      3200   303.44181     -3238.6762     -3256.2089      17.532651      8729.0017      10112.159    
      3300   306.56545     -3239.6403     -3257.3534      17.713132      8604.7651      10112.159    
      3400   297.28644     -3240.4433     -3257.6203      17.176998      8520.465       10112.159    
      3500   292.3075      -3240.8013     -3257.6907      16.889318      8136.9944      10112.159    
      3600   300.75038     -3239.9401     -3257.3173      17.377142      8652.8101      10112.159    
      3700   319.22601     -3238.2567     -3256.7013      18.44465       8934.7525      10112.159    
      3800   299.90054     -3238.5488     -3255.8768      17.328039      8831.1274      10112.159    
      3900   315.23645     -3239.2144     -3257.4286      18.214137      8818.8154      10112.159    
      4000   294.09759     -3240.2337     -3257.2265      16.992748      8710.4516      10112.159    
      4100   298.11328     -3240.1953     -3257.4201      17.224772      8680.6845      10112.159    
      4200   296.52747     -3239.959      -3257.0921      17.133145      8426.983       10112.159    
      4300   312.29868     -3239.5009     -3257.5453      18.044394      9012.1259      10112.159    
      4400   313.11422     -3238.8185     -3256.91        18.091516      9025.5564      10112.159    
      4500   291.92808     -3238.7231     -3255.5905      16.867395      8972.3693      10112.159    
      4600   307.62322     -3239.5188     -3257.293       17.77425       8941.8015      10112.159    
      4700   294.97974     -3240.5308     -3257.5745      17.043718      8596.5966      10112.159    
      4800   280.05503     -3241.3922     -3257.5736      16.181379      8566.1032      10112.159    
      4900   282.89504     -3242.4264     -3258.7719      16.345473      7769.7427      10112.159    
      5000   276.09028     -3242.2252     -3258.1775      15.952299      8246.0023      10112.159    
      5100   291.15294     -3240.6369     -3257.4595      16.822609      8556.5556      10112.159    
      5200   298.33554     -3239.5985     -3256.8361      17.237614      8814.5845      10112.159    
      5300   314.866       -3238.8914     -3257.0841      18.192732      8624.1141      10112.159    
      5400   306.04886     -3239.3843     -3257.0676      17.683284      9033.5329      10112.159    
      5500   297.0848      -3240.91       -3258.0754      17.165347      8376.0127      10112.159    
      5600   282.57099     -3241.5476     -3257.8743      16.32675       8481.2909      10112.159    
      5700   287.89942     -3240.8682     -3257.5028      16.634622      8162.1616      10112.159    
      5800   299.74732     -3240.2128     -3257.532       17.319186      8702.2346      10112.159    
      5900   312.82516     -3239.5932     -3257.668       18.074814      8650.6689      10112.159    
      6000   315.01477     -3239.0421     -3257.2434      18.201328      8764.4259      10112.159    
      6100   294.68065     -3239.0175     -3256.0439      17.026437      8821.4436      10112.159    
      6200   296.58393     -3240.0935     -3257.2299      17.136408      8888.7838      10112.159    
      6300   289.61689     -3240.9786     -3257.7124      16.733857      8604.3941      10112.159    
      6400   310.62385     -3240.8218     -3258.7694      17.947624      8179.3825      10112.159    
      6500   287.28868     -3240.2307     -3256.8301      16.599334      8764.7089      10112.159    
      6600   315.27149     -3238.461      -3256.6772      18.216161      9136.6239      10112.159    
      6700   305.96432     -3238.9126     -3256.591       17.6784        9017.3324      10112.159    
      6800   327.16751     -3239.3228     -3258.2263      18.903505      8468.7601      10112.159    
      6900   280.03643     -3240.5688     -3256.7491      16.180305      8910.4286      10112.159    
      7000   291.01448     -3240.6497     -3257.4643      16.814609      8836.4501      10112.159    
      7100   308.13837     -3240.3517     -3258.1557      17.804014      8708.5259      10112.159    
      7200   295.59955     -3239.8578     -3256.9373      17.07953       8661.4399      10112.159    
      7300   307.82033     -3239.2406     -3257.0262      17.785638      8675.4399      10112.159    
      7400   300.46429     -3239.4008     -3256.7615      17.360612      8961.3887      10112.159    
      7500   306.24628     -3239.5663     -3257.261       17.694691      8826.5381      10112.159    
      7600   293.2411      -3240.3423     -3257.2855      16.943261      8881.3229      10112.159    
      7700   313.09719     -3240.697      -3258.7875      18.090531      8157.7723      10112.159    
      7800   274.79788     -3241.4846     -3257.3622      15.877625      8742.9941      10112.159    
      7900   285.9295      -3240.9681     -3257.4889      16.520802      8806.541       10112.159    
      8000   307.8872      -3239.7449     -3257.5344      17.789502      8875.4652      10112.159    
      8100   287.83736     -3239.1547     -3255.7857      16.631037      8987.3956      10112.159    
      8200   320.07361     -3238.548      -3257.0417      18.493624      9148.2398      10112.159    
      8300   302.62042     -3239.307      -3256.7922      17.485191      9112.9381      10112.159    
      8400   303.6259      -3239.7009     -3257.2441      17.543288      8638.8011      10112.159    
      8500   288.54397     -3240.2265     -3256.8984      16.671864      8859.6244      10112.159    
      8600   300.7282      -3240.0146     -3257.3905      17.37586       8927.6061      10112.159    
      8700   307.69797     -3238.692      -3256.4705      17.778568      9158.1259      10112.159    
      8800   323.41803     -3237.7202     -3256.407       18.686863      9176.2147      10112.159    
      8900   292.53273     -3238.8842     -3255.7865      16.902332      9114.3091      10112.159    
      9000   318.54053     -3239.7673     -3258.1723      18.405044      8708.3819      10112.159    
      9100   286.81141     -3240.1527     -3256.7245      16.571758      8958.0227      10112.159    
      9200   293.88134     -3240.0212     -3257.0014      16.980254      8938.0596      10112.159    
      9300   307.05213     -3239.8013     -3257.5426      17.741252      8911.3418      10112.159    
      9400   311.86849     -3239.0352     -3257.0547      18.019539      9060.3796      10112.159    
      9500   313.4051      -3238.315      -3256.4233      18.108322      9383.9404      10112.159    
      9600   300.26855     -3238.6888     -3256.0381      17.349302      9352.7223      10112.159    
      9700   301.80574     -3240.0625     -3257.5006      17.43812       9105.1869      10112.159    
      9800   299.88687     -3240.9538     -3258.2811      17.327249      8635.8652      10112.159    
      9900   292.68071     -3240.9324     -3257.8433      16.910882      8456.0211      10112.159    
     10000   300.07396     -3239.8588     -3257.1968      17.338059      8809.1014      10112.159    
     10100   290.93088     -3239.188      -3255.9978      16.809778      9120.0181      10112.159    
     10200   312.2781      -3238.9474     -3256.9906      18.043205      9067.0698      10112.159    
     10300   302.81491     -3239.534      -3257.0304      17.496429      8839.4541      10112.159    
     10400   303.24816     -3240.5856     -3258.1071      17.521462      8386.5532      10112.159    
     10500   278.66403     -3241.2837     -3257.3847      16.101008      8559.4016      10112.159    
     10600   311.2969      -3240.5066     -3258.4931      17.986512      8793.7936      10112.159    
     10700   283.30565     -3240.3569     -3256.7261      16.369198      8941.2123      10112.159    
     10800   304.52725     -3239.75       -3257.3454      17.595367      8768.6792      10112.159    
     10900   312.97554     -3239.1479     -3257.2314      18.083503      9078.4293      10112.159    
     11000   313.59886     -3238.767      -3256.8865      18.119518      9077.1612      10112.159    
     11100   293.59601     -3240.0146     -3256.9784      16.963768      9085.1832      10112.159    
     11200   280.18755     -3241.437      -3257.626       16.189036      8824.8493      10112.159    
     11300   297.70785     -3241.1125     -3258.3138      17.201347      8572.3015      10112.159    
     11400   303.12157     -3240.1464     -3257.6605      17.514148      8779.6409      10112.159    
     11500   298.0761      -3239.4609     -3256.6835      17.222624      8838.4246      10112.159    
     11600   290.37773     -3239.6178     -3256.3956      16.777818      9192.7857      10112.159    
     11700   297.43406     -3239.8053     -3256.9908      17.185527      9105.5935      10112.159    
     11800   312.65915     -3239.9535     -3258.0188      18.065222      8578.901       10112.159    
     11900   298.96625     -3241.1765     -3258.4506      17.274056      8355.2403      10112.159    
     12000   284.68406     -3241.8889     -3258.3377      16.448842      8388.1005      10112.159    
     12100   282.19434     -3240.7316     -3257.0366      16.304987      8919.9174      10112.159    
     12200   306.67548     -3239.5946     -3257.3141      17.71949       9148.733       10112.159    
     12300   297.97548     -3239.6275     -3256.8443      17.21681       8841.3778      10112.159    
     12400   304.62089     -3239.5679     -3257.1687      17.600777      9211.9503      10112.159    
     12500   299.34442     -3239.9499     -3257.2458      17.295906      9126.6264      10112.159    
     12600   287.80137     -3240.9516     -3257.5805      16.628957      8565.9864      10112.159    
     12700   293.75063     -3241.3709     -3258.3436      16.972702      8519.4197      10112.159    
     12800   291.41859     -3240.3389     -3257.1769      16.837958      8762.0512      10112.159    
     12900   313.56544     -3238.9861     -3257.1037      18.117587      9327.2725      10112.159    
     13000   304.65053     -3239.1713     -3256.7738      17.60249       8752.5877      10112.159    
     13100   294.36802     -3239.9693     -3256.9777      17.008374      9142.6686      10112.159    
     13200   287.87071     -3240.7426     -3257.3756      16.632964      8621.052       10112.159    
     13300   281.58843     -3241.1038     -3257.3738      16.269978      8875.2359      10112.159    
     13400   301.60189     -3241.022      -3258.4483      17.426341      8770.7197      10112.159    
     13500   295.22249     -3240.1171     -3257.1748      17.057744      8709.4283      10112.159    
     13600   303.99057     -3239.0383     -3256.6026      17.564357      9245.2712      10112.159    
     13700   301.1516      -3238.8651     -3256.2654      17.400324      9524.6952      10112.159    
     13800   297.88018     -3239.7042     -3256.9155      17.211304      9319.4721      10112.159    
     13900   293.82279     -3241.1442     -3258.1211      16.976871      8509.9813      10112.159    
     14000   290.26528     -3241.0225     -3257.7939      16.77132       8882.4136      10112.159    
     14100   298.5627      -3240.2556     -3257.5064      17.250739      9121.2878      10112.159    
     14200   290.11011     -3239.6796     -3256.442       16.762355      9099.1861      10112.159    
     14300   312.98968     -3239.1666     -3257.2509      18.08432       9131.7669      10112.159    
     14400   288.05431     -3239.3888     -3256.0324      16.643572      9300.0893      10112.159    
     14500   320.03531     -3239.2968     -3257.7883      18.491411      8955.4005      10112.159    
     14600   296.5507      -3240.2532     -3257.3877      17.134487      8955.9641      10112.159    
     14700   287.51347     -3240.9591     -3257.5714      16.612323      8397.4423      10112.159    
     14800   302.99027     -3240.7073     -3258.2138      17.506561      8472.7015      10112.159    
     14900   302.20107     -3239.1852     -3256.6462      17.460962      8868.8305      10112.159    
     15000   311.56942     -3238.483      -3256.4853      18.002258      8742.5078      10112.159    
     15100   322.10535     -3238.855      -3257.466       18.611017      9150.297       10112.159    
     15200   289.42165     -3240.7043     -3257.4269      16.722576      8668.0831      10112.159    
     15300   293.4788      -3240.7995     -3257.7565      16.956995      9022.3413      10112.159    
     15400   300.45918     -3240.2509     -3257.6113      17.360317      8740.8449      10112.159    
     15500   305.67218     -3238.8893     -3256.5508      17.66152       8966.2546      10112.159    
     15600   312.5327      -3238.5538     -3256.6117      18.057916      9294.1595      10112.159    
     15700   299.18519     -3239.2825     -3256.5692      17.286706      8936.0957      10112.159    
     15800   297.67804     -3239.6885     -3256.8881      17.199625      8664.9008      10112.159    
     15900   299.74137     -3240.0796     -3257.3984      17.318842      8720.5008      10112.159    
     16000   283.4843      -3240.8437     -3257.2232      16.37952       8401.1814      10112.159    
     16100   288.96978     -3241.7934     -3258.4899      16.696467      8541.3816      10112.159    
     16200   292.43147     -3241.9904     -3258.8869      16.896481      8173.3719      10112.159    
     16300   293.86939     -3240.5534     -3257.5329      16.979563      8424.5193      10112.159    
     16400   308.42126     -3239.3257     -3257.146       17.82036       8772.1387      10112.159    
     16500   289.3805      -3239.2753     -3255.9955      16.720199      9110.2538      10112.159    
     16600   305.82758     -3239.6182     -3257.2887      17.670499      8950.3902      10112.159    
     16700   308.28282     -3240.4596     -3258.2719      17.812361      8349.4977      10112.159    
     16800   286.7824      -3241.4675     -3258.0375      16.570082      8670.244       10112.159    
     16900   270.57215     -3242.5244     -3258.1578      15.633465      8205.6494      10112.159    
     17000   282.56471     -3241.3047     -3257.6311      16.326387      8700.5138      10112.159    
     17100   294.99882     -3239.8157     -3256.8605      17.044821      8727.9132      10112.159    
     17200   315.74048     -3239.0491     -3257.2924      18.243259      8599.9752      10112.159    
     17300   311.19598     -3239.06       -3257.0407      17.980681      9115.76        10112.159    
     17400   285.81216     -3240.1764     -3256.6904      16.514022      9150.4441      10112.159    
     17500   284.72991     -3241.2585     -3257.71        16.451491      8660.51        10112.159    
     17600   303.29195     -3241.0292     -3258.5532      17.523992      8520.5351      10112.159    
     17700   300.07849     -3240.2029     -3257.5412      17.33832       8880.623       10112.159    
     17800   301.02133     -3239.8593     -3257.2521      17.392797      8702.6479      10112.159    
     17900   279.56497     -3239.9751     -3256.1282      16.153064      8926.324       10112.159    
     18000   307.85343     -3239.4767     -3257.2643      17.787551      8695.2148      10112.159    
     18100   310.83105     -3239.3418     -3257.3014      17.959596      8725.6403      10112.159    
     18200   304.12723     -3239.8905     -3257.4628      17.572254      8557.7435      10112.159    
     18300   279.36555     -3240.9278     -3257.0694      16.141542      8721.4483      10112.159    
     18400   280.79377     -3241.1732     -3257.3973      16.224063      8476.4766      10112.159    
     18500   313.80868     -3239.8431     -3257.9748      18.131641      8630.3912      10112.159    
     18600   308.29483     -3238.8528     -3256.6659      17.813055      9027.7838      10112.159    
     18700   300.90133     -3238.9085     -3256.2943      17.385864      9218.262       10112.159    
     18800   299.97681     -3239.6167     -3256.9492      17.332446      8970.5655      10112.159    
     18900   299.92603     -3240.4111     -3257.7407      17.329512      8620.8029      10112.159    
     19000   283.24877     -3240.3236     -3256.6895      16.365911      8688.2213      10112.159    
     19100   319.64121     -3239.5155     -3257.9841      18.46864       8875.6844      10112.159    
     19200   299.32252     -3239.5888     -3256.8835      17.294641      8953.241       10112.159    
     19300   313.29663     -3239.2327     -3257.3347      18.102055      8839.1987      10112.159    
     19400   295.36044     -3239.6073     -3256.673       17.065715      8775.9713      10112.159    
     19500   286.86282     -3240.6322     -3257.2069      16.574728      9024.0003      10112.159    
     19600   300.77852     -3240.9889     -3258.3676      17.378768      8540.5866      10112.159    
     19700   287.08188     -3240.8436     -3257.431       16.587386      8636.907       10112.159    
     19800   323.50125     -3238.981      -3257.6727      18.691671      9022.2471      10112.159    
     19900   298.44731     -3238.9807     -3256.2248      17.244072      9401.0955      10112.159    
     20000   290.23968     -3239.7152     -3256.485       16.769841      8806.1733      10112.159    
     20100   295.5162      -3240.808      -3257.8827      17.074714      8677.7967      10112.159    
     20200   304.22427     -3241.1428     -3258.7207      17.577861      8386.4462      10112.159    
     20300   294.88974     -3240.5759     -3257.6144      17.038518      8883.9803      10112.159    
     20400   290.82896     -3239.1908     -3255.9947      16.80389       9097.5678      10112.159    
     20500   311.44284     -3239.0496     -3257.0446      17.994944      8853.7863      10112.159    
     20600   314.28436     -3239.6857     -3257.8449      18.159125      8736.8789      10112.159    
     20700   294.94169     -3240.5404     -3257.5819      17.04152       8611.1677      10112.159    
     20800   287.68968     -3240.9508     -3257.5733      16.622504      9116.7432      10112.159    
     20900   286.9389      -3240.4687     -3257.0478      16.579124      8924.0181      10112.159    
     21000   319.43158     -3238.8909     -3257.3474      18.456528      9246.6046      10112.159    
     21100   294.7635      -3239.0113     -3256.0425      17.031224      9057.1859      10112.159    
     21200   315.75117     -3239.1504     -3257.3943      18.243877      9153.0139      10112.159    
     21300   284.9813      -3241.0141     -3257.4801      16.466016      8763.7824      10112.159    
     21400   294.56683     -3241.1301     -3258.1499      17.019861      8533.5322      10112.159    
     21500   296.18697     -3240.2688     -3257.3822      17.113471      8890.8118      10112.159    
     21600   286.33251     -3239.6066     -3256.1507      16.544088      9504.0748      10112.159    
     21700   310.67253     -3239.2262     -3257.1766      17.950436      8854.8641      10112.159    
     21800   307.2396      -3239.3698     -3257.1219      17.752084      9094.5259      10112.159    
     21900   300.28847     -3239.6353     -3256.9858      17.350453      9097.9607      10112.159    
     22000   277.66276     -3240.5605     -3256.6037      16.043156      8879.0682      10112.159    
     22100   289.18091     -3240.8018     -3257.5105      16.708666      8577.4865      10112.159    
     22200   314.90145     -3240.1543     -3258.3491      18.19478       8825.8249      10112.159    
     22300   298.98575     -3239.2945     -3256.5697      17.275183      8935.8622      10112.159    
     22400   314.11844     -3238.3284     -3256.4779      18.149539      9119.8265      10112.159    
     22500   294.94197     -3239.0793     -3256.1209      17.041536      9292.0285      10112.159    
     22600   293.99103     -3240.5497     -3257.5363      16.986591      8769.5382      10112.159    
     22700   295.04769     -3240.9728     -3258.0205      17.047645      8379.3844      10112.159    
     22800   300.46069     -3240.3496     -3257.71        17.360404      8706.036       10112.159    
     22900   300.87566     -3239.4912     -3256.8756      17.384381      9022.6796      10112.159    
     23000   316.05119     -3238.9451     -3257.2063      18.261212      8658.7521      10112.159    
     23100   290.38494     -3239.7792     -3256.5574      16.778234      8844.69        10112.159    
     23200   288.26963     -3241.208      -3257.864       16.656013      8547.0664      10112.159    
     23300   291.19146     -3241.5143     -3258.3392      16.824834      8433.2684      10112.159    
     23400   287.19377     -3240.7272     -3257.3211      16.59385       8654.6963      10112.159    
     23500   311.40654     -3239.9266     -3257.9195      17.992847      8641.0929      10112.159    
     23600   287.56976     -3239.9374     -3256.553       16.615575      9069.7807      10112.159    
     23700   307.17807     -3239.479      -3257.2275      17.748529      8865.4593      10112.159    
     23800   305.8438      -3239.4696     -3257.1411      17.671436      8889.5549      10112.159    
     23900   293.58992     -3239.7654     -3256.7288      16.963416      8660.6181      10112.159    
     24000   292.80455     -3240.7256     -3257.6436      16.918037      8845.0354      10112.159    
     24100   284.78779     -3241.35       -3257.8049      16.454835      8358.3925      10112.159    
     24200   302.1285      -3240.4761     -3257.9329      17.456769      8639.2853      10112.159    
     24300   306.52518     -3238.7516     -3256.4624      17.710806      9427.8027      10112.159    
     24400   306.90752     -3238.6101     -3256.343       17.732897      9110.909       10112.159    
     24500   300.85662     -3239.5437     -3256.927       17.38328       9050.633       10112.159    
     24600   286.86634     -3240.3056     -3256.8805      16.574932      8786.9983      10112.159    
     24700   294.38627     -3240.2289     -3257.2384      17.009428      8892.0694      10112.159    
     24800   295.64442     -3239.9561     -3257.0382      17.082123      8956.1903      10112.159    
     24900   305.96098     -3239.8881     -3257.5663      17.678207      8694.5942      10112.159    
     25000   293.72873     -3239.9768     -3256.9483      16.971436      8766.6096      10112.159    
     25100   318.23718     -3239.3325     -3257.72        18.387516      8900.1974      10112.159    
     25200   292.20012     -3239.6782     -3256.5613      16.883114      8773.8418      10112.159    
     25300   298.6265      -3240.9651     -3258.2195      17.254426      8907.4464      10112.159    
     25400   284.66608     -3241.8271     -3258.2749      16.447803      8576.5238      10112.159    
     25500   289.68214     -3240.905      -3257.6427      16.737627      8615.7772      10112.159    
     25600   301.23732     -3239.9167     -3257.322       17.405277      8832.6986      10112.159    
     25700   303.32112     -3239.5847     -3257.1104      17.525677      8833.4133      10112.159    
     25800   293.62296     -3239.6986     -3256.6639      16.965325      8998.4775      10112.159    
     25900   299.07408     -3239.9586     -3257.2389      17.280286      8680.8489      10112.159    
     26000   295.74564     -3240.0388     -3257.1268      17.087972      8460.9639      10112.159    
     26100   301.23561     -3239.9385     -3257.3437      17.405178      8822.1214      10112.159    
     26200   288.57685     -3239.9794     -3256.6532      16.673764      9035.8657      10112.159    
     26300   315.02314     -3239.0749     -3257.2767      18.201812      8706.1528      10112.159    
     26400   315.4282      -3239.2977     -3257.5229      18.225216      9222.4223      10112.159    
     26500   295.85665     -3240.7496     -3257.8439      17.094386      8547.7934      10112.159    
     26600   277.15955     -3241.2304     -3257.2445      16.014081      8584.3826      10112.159    
     26700   304.01576     -3240.2892     -3257.855       17.565813      8836.548       10112.159    
     26800   300.20785     -3239.6123     -3256.9581      17.345795      8791.5099      10112.159    
     26900   312.15564     -3239.5086     -3257.5447      18.03613       8751.1821      10112.159    
     27000   301.17999     -3239.9591     -3257.361       17.401965      8968.7358      10112.159    
     27100   291.99235     -3240.4508     -3257.3219      16.871109      9174.2391      10112.159    
     27200   295.32847     -3240.6495     -3257.7133      17.063868      8478.18        10112.159    
     27300   305.63035     -3240.0452     -3257.7043      17.659103      8620.9242      10112.159    
     27400   295.18251     -3238.8034     -3255.8588      17.055434      9651.533       10112.159    
     27500   305.62459     -3238.3513     -3256.01        17.65877       9119.7262      10112.159    
     27600   315.17307     -3239.2924     -3257.5029      18.210475      8775.793       10112.159    
     27700   289.97319     -3240.2445     -3256.9989      16.754444      9049.3076      10112.159    
     27800   306.4949      -3239.8983     -3257.6073      17.709056      9060.036       10112.159    
     27900   296.05387     -3239.9354     -3257.0412      17.105781      8834.6165      10112.159    
     28000   299.7349      -3240.0958     -3257.4142      17.318468      8766.3763      10112.159    
     28100   309.42849     -3240.1927     -3258.0712      17.878557      8878.4222      10112.159    
     28200   291.63999     -3240.36       -3257.2108      16.85075       8665.9637      10112.159    
     28300   301.62418     -3239.7746     -3257.2022      17.427629      8929.4946      10112.159    
     28400   309.56914     -3238.7057     -3256.5924      17.886683      9231.2553      10112.159    
     28500   315.75314     -3238.6177     -3256.8617      18.24399       9159.7519      10112.159    
     28600   303.63606     -3239.8386     -3257.3825      17.543875      8941.8126      10112.159    
     28700   305.61477     -3240.1556     -3257.8138      17.658203      8710.956       10112.159    
     28800   301.58468     -3240.2337     -3257.6591      17.425347      9020.4377      10112.159    
     28900   291.69532     -3240.1529     -3257.0068      16.853947      9222.1141      10112.159    
     29000   303.43955     -3239.2404     -3256.7729      17.53252       9026.5737      10112.159    
     29100   330.43334     -3237.623      -3256.7152      19.092202      9195.2634      10112.159    
     29200   306.29679     -3238.2512     -3255.9488      17.69761       9262.3425      10112.159    
     29300   302.45646     -3239.3897     -3256.8654      17.475718      9052.3075      10112.159    
     29400   301.96667     -3239.9729     -3257.4203      17.447419      8890.985       10112.159    
     29500   286.16451     -3240.1367     -3256.6711      16.534381      9005.4234      10112.159    
     29600   319.96857     -3239.2563     -3257.7439      18.487555      8914.3188      10112.159    
     29700   294.77449     -3239.7212     -3256.753       17.031859      8994.9377      10112.159    
     29800   308.0432      -3240.9978     -3258.7963      17.798516      8677.5087      10112.159    
     29900   263.25624     -3241.8905     -3257.1012      15.210757      8525.2994      10112.159    
     30000   287.63252     -3240.7441     -3257.3633      16.619201      9051.7846      10112.159    
     30100   304.51948     -3239.9926     -3257.5875      17.594918      8927.7627      10112.159    
     30200   312.88285     -3239.4281     -3257.5062      18.078148      8779.9348      10112.159    
     30300   298.78496     -3239.4253     -3256.6889      17.263582      9179.3754      10112.159    
     30400   292.86783     -3240.1162     -3257.0379      16.921694      8904.4549      10112.159    
     30500   274.6666      -3241.6557     -3257.5257      15.87004       8637.5072      10112.159    
     30600   295.82866     -3241.587      -3258.6797      17.092768      8377.4718      10112.159    
     30700   295.4786      -3240.2025     -3257.2751      17.072542      8804.9196      10112.159    
     30800   302.3304      -3239.4129     -3256.8814      17.468434      9070.8363      10112.159    
     30900   298.79913     -3239.696      -3256.9604      17.2644        9036.7826      10112.159    
     31000   297.20379     -3240.2843     -3257.4566      17.172222      8736.8222      10112.159    
     31100   275.3339      -3240.8913     -3256.7999      15.908596      8823.0662      10112.159    
     31200   317.20917     -3239.8617     -3258.1899      18.328119      8734.082       10112.159    
     31300   304.09736     -3238.7612     -3256.3317      17.570528      9098.8884      10112.159    
     31400   329.16459     -3238.0102     -3257.0291      19.018895      9230.2511      10112.159    
     31500   288.22852     -3239.6067     -3256.2604      16.653638      9060.7329      10112.159    
     31600   288.28119     -3240.0892     -3256.7459      16.656681      9237.6443      10112.159    
     31700   311.912       -3239.9119     -3257.934       18.022052      8856.4729      10112.159    
     31800   314.78138     -3239.7575     -3257.9454      18.187843      8748.1728      10112.159    
     31900   271.69199     -3240.0523     -3255.7504      15.698169      9332.3896      10112.159    
     32000   306.62739     -3239.596      -3257.3127      17.716711      9435.7708      10112.159    
     32100   296.94382     -3239.9324     -3257.0896      17.157201      8649.1295      10112.159    
     32200   298.48308     -3240.5904     -3257.8366      17.246139      8766.3514      10112.159    
     32300   302.88319     -3240.1609     -3257.6612      17.500374      8651.3535      10112.159    
     32400   298.67468     -3238.9382     -3256.1954      17.257209      9335.2213      10112.159    
     32500   317.2119      -3238.1358     -3256.464       18.328277      9467.7771      10112.159    
     32600   284.1237      -3239.7333     -3256.1498      16.416464      9085.1491      10112.159    
     32700   297.92048     -3240.6413     -3257.855       17.213632      8878.7473      10112.159    
     32800   297.85595     -3240.8034     -3258.0133      17.209904      8865.0533      10112.159    
     32900   291.68024     -3239.9588     -3256.8119      16.853076      8949.7021      10112.159    
     33000   305.5624      -3238.7715     -3256.4267      17.655177      9465.1547      10112.159    
     33100   306.27569     -3239.1358     -3256.8322      17.69639       9094.9767      10112.159    
     33200   304.78241     -3239.847      -3257.4571      17.610109      8950.5504      10112.159    
     33300   293.04506     -3241.0265     -3257.9585      16.931934      8671.2929      10112.159    
     33400   296.9504      -3241.2289     -3258.3865      17.157582      8495.8308      10112.159    
     33500   285.15295     -3240.7787     -3257.2547      16.475934      8724.3412      10112.159    
     33600   307.04672     -3239.6411     -3257.382       17.74094       8749.1395      10112.159    
     33700   302.05177     -3239.2831     -3256.7354      17.452336      9155.2738      10112.159    
     33800   303.22834     -3239.3631     -3256.8834      17.520317      9257.0334      10112.159    
     33900   306.31186     -3240.4395     -3258.138       17.69848       8695.688       10112.159    
     34000   275.41346     -3241.7157     -3257.6289      15.913193      8537.2908      10112.159    
     34100   299.04914     -3240.7        -3257.9789      17.278845      8675.385       10112.159    
     34200   301.49257     -3239.8113     -3257.2313      17.420025      8788.0527      10112.159    
     34300   302.79984     -3239.3767     -3256.8723      17.495558      9431.1804      10112.159    
     34400   298.60362     -3239.5604     -3256.8136      17.253103      9281.8355      10112.159    
     34500   283.5309      -3240.8832     -3257.2654      16.382212      8700.7468      10112.159    
     34600   286.08667     -3242.1994     -3258.7293      16.529883      8677.2613      10112.159    
     34700   285.0334      -3241.7554     -3258.2244      16.469026      8497.3992      10112.159    
     34800   291.74671     -3240.5171     -3257.374       16.856916      8664.5748      10112.159    
     34900   303.25141     -3240.1716     -3257.6932      17.52165       9025.7917      10112.159    
     35000   284.42762     -3240.2885     -3256.7225      16.434024      8912.8793      10112.159    
     35100   316.95033     -3239.2507     -3257.5639      18.313164      8788.6859      10112.159    
     35200   300.05162     -3238.8883     -3256.2251      17.336768      9154.7735      10112.159    
     35300   325.40161     -3238.3452     -3257.1467      18.801472      8953.1531      10112.159    
     35400   304.05608     -3238.8414     -3256.4095      17.568143      9090.4063      10112.159    
     35500   292.08107     -3240.4704     -3257.3466      16.876235      8842.9589      10112.159    
     35600   297.10352     -3240.9425     -3258.1089      17.166429      8507.7576      10112.159    
     35700   293.28985     -3240.5813     -3257.5274      16.946078      8761.532       10112.159    
     35800   304.95756     -3239.0855     -3256.7057      17.620229      9471.268       10112.159    
     35900   295.50419     -3238.6375     -3255.7115      17.074021      9583.9774      10112.159    
     36000   331.61484     -3238.7907     -3257.9511      19.160469      9034.6789      10112.159    
     36100   299.38693     -3239.946      -3257.2444      17.298363      9309.6145      10112.159    
     36200   298.92502     -3240.1098     -3257.3814      17.271674      9093.9029      10112.159    
     36300   292.38432     -3240.2335     -3257.1273      16.893757      8810.5066      10112.159    
     36400   312.90409     -3240.1002     -3258.1796      18.079375      8577.5926      10112.159    
     36500   296.13927     -3239.4649     -3256.5756      17.110715      9251.4364      10112.159    
     36600   310.88158     -3238.6649     -3256.6274      17.962515      9260.5515      10112.159    
     36700   298.68246     -3239.4265     -3256.6841      17.257659      9256.0984      10112.159    
     36800   288.72165     -3240.7029     -3257.3851      16.682131      9076.7875      10112.159    
     36900   292.30344     -3241.1211     -3258.0101      16.889084      8704.0778      10112.159    
     37000   301.56372     -3240.5286     -3257.9527      17.424136      8809.8192      10112.159    
     37100   290.76777     -3240.211      -3257.0114      16.800354      8960.6601      10112.159    
     37200   302.02436     -3239.685      -3257.1357      17.450752      8977.3849      10112.159    
     37300   299.74484     -3239.7937     -3257.1127      17.319042      8967.9383      10112.159    
     37400   302.85018     -3240.2749     -3257.7734      17.498467      8603.1103      10112.159    
     37500   305.37322     -3240.1688     -3257.813       17.644246      8789.5401      10112.159    
     37600   294.30822     -3239.5854     -3256.5903      17.004919      9332.3133      10112.159    
     37700   293.23212     -3239.0112     -3255.9539      16.942742      9149.9138      10112.159    
     37800   319.32504     -3238.6169     -3257.0672      18.450372      8904.2662      10112.159    
     37900   315.11974     -3239.5838     -3257.7912      18.207393      8839.4286      10112.159    
     38000   290.69285     -3241.1923     -3257.9883      16.796025      8794.7187      10112.159    
     38100   284.9335      -3241.0947     -3257.558       16.463254      8637.2783      10112.159    
     38200   300.30906     -3240.0342     -3257.3859      17.351643      8855.4538      10112.159    
     38300   303.6478      -3239.5911     -3257.1356      17.544553      9072.4022      10112.159    
     38400   302.07437     -3239.5082     -3256.9619      17.453641      8448.6477      10112.159    
     38500   307.38372     -3239.5261     -3257.2865      17.760411      8830.8082      10112.159    
     38600   280.39367     -3240.6144     -3256.8153      16.200946      9112.8164      10112.159    
     38700   289.25713     -3242.3686     -3259.0817      16.71307       7960.9021      10112.159    
     38800   277.84776     -3241.9231     -3257.9769      16.053845      8470.0746      10112.159    
     38900   289.51354     -3240.6739     -3257.4018      16.727885      8892.9247      10112.159    
     39000   300.4547      -3239.7176     -3257.0776      17.360058      8792.5439      10112.159    
     39100   306.62799     -3239.2941     -3257.0109      17.716746      8839.536       10112.159    
     39200   295.78226     -3240.171      -3257.261       17.090088      9328.4125      10112.159    
     39300   289.0494      -3241.1631     -3257.8641      16.701068      8491.4272      10112.159    
     39400   294.36746     -3240.6426     -3257.651       17.008341      8851.3767      10112.159    
     39500   307.05835     -3239.4959     -3257.2375      17.741612      8995.0745      10112.159    
     39600   293.89227     -3239.2862     -3256.2671      16.980885      9095.2847      10112.159    
     39700   304.86407     -3239.7091     -3257.324       17.614828      8545.3436      10112.159    
     39800   297.74788     -3240.6858     -3257.8894      17.203659      8742.6674      10112.159    
     39900   298.74648     -3240.4861     -3257.7474      17.261358      8816.4369      10112.159    
     40000   279.58332     -3239.6666     -3255.8208      16.154124      9207.4139      10112.159    
     40100   317.17364     -3238.3368     -3256.6628      18.326066      9217.6335      10112.159    
     40200   320.78576     -3237.9024     -3256.4372      18.534772      9317.693       10112.159    
     40300   298.25233     -3238.6705     -3255.9033      17.232806      9213.3623      10112.159    
     40400   316.1689      -3240.1849     -3258.4529      18.268013      8682.2346      10112.159    
     40500   279.4364      -3241.0466     -3257.1923      16.145635      8603.0029      10112.159    
     40600   315.16742     -3239.8627     -3258.0728      18.210148      8758.352       10112.159    
     40700   296.0624      -3239.5136     -3256.6198      17.106274      8984.0407      10112.159    
     40800   298.0929      -3239.648      -3256.8716      17.223594      9144.3702      10112.159    
     40900   282.23084     -3241.1667     -3257.4738      16.307096      8891.3986      10112.159    
     41000   281.38476     -3241.8366     -3258.0948      16.25821       8361.553       10112.159    
     41100   302.10664     -3240.7499     -3258.2054      17.455505      9000.4983      10112.159    
     41200   293.26301     -3240.1941     -3257.1387      16.944527      8808.9643      10112.159    
     41300   292.88132     -3239.7356     -3256.658       16.922473      8935.6361      10112.159    
     41400   305.52637     -3239.2239     -3256.877       17.653095      9193.8953      10112.159    
     41500   319.61604     -3238.8525     -3257.3197      18.467186      8979.4402      10112.159    
     41600   305.35204     -3238.9991     -3256.6421      17.643023      9052.6041      10112.159    
     41700   288.46507     -3240.3926     -3257.0599      16.667306      8993.498       10112.159    
     41800   288.37012     -3241.0371     -3257.6989      16.661819      8890.3882      10112.159    
     41900   302.16871     -3240.3866     -3257.8457      17.459092      8432.3865      10112.159    
     42000   308.74936     -3239.046      -3256.8853      17.839317      8903.2883      10112.159    
     42100   302.3915      -3239.1584     -3256.6304      17.471965      8841.4936      10112.159    
     42200   299.5885      -3239.383      -3256.693       17.310009      9289.8171      10112.159    
     42300   299.41752     -3239.9987     -3257.2988      17.30013       8812.3239      10112.159    
     42400   279.89556     -3241.2456     -3257.4178      16.172165      8649.4501      10112.159    
     42500   311.43201     -3240.6389     -3258.6332      17.994319      8605.2065      10112.159    
     42600   313.14371     -3238.5297     -3256.6229      18.09322       8855.8022      10112.159    
     42700   315.56156     -3237.8763     -3256.1092      18.232921      9263.1778      10112.159    
     42800   305.03558     -3239.0745     -3256.6993      17.624738      9443.1104      10112.159    
     42900   282.92256     -3240.0581     -3256.4051      16.347063      9202.2087      10112.159    
     43000   301.41515     -3240.3352     -3257.7508      17.415552      8906.0766      10112.159    
     43100   290.78108     -3240.7121     -3257.5132      16.801123      8646.1013      10112.159    
     43200   318.06613     -3239.2111     -3257.5887      18.377634      9019.0275      10112.159    
     43300   317.06597     -3238.4888     -3256.8086      18.319845      9345.2163      10112.159    
     43400   287.56655     -3239.3197     -3255.9351      16.61539       9452.2926      10112.159    
     43500   309.39607     -3239.772      -3257.6487      17.876684      8706.4373      10112.159    
     43600   298.72908     -3239.9958     -3257.2561      17.260353      8900.4701      10112.159    
     43700   295.73693     -3239.8462     -3256.9336      17.087468      9146.4132      10112.159    
     43800   298.20447     -3239.6522     -3256.8822      17.230041      9175.2011      10112.159    
     43900   324.95027     -3239.1439     -3257.9193      18.775394      8823.02        10112.159    
     44000   286.42723     -3239.6392     -3256.1888      16.549561      9230.0304      10112.159    
     44100   304.95761     -3240.1926     -3257.8128      17.620233      8654.4141      10112.159    
     44200   305.8708      -3240.4614     -3258.1344      17.672996      8854.1722      10112.159    
     44300   276.18652     -3240.2987     -3256.2565      15.95786       9243.2395      10112.159    
     44400   315.13465     -3239.0438     -3257.2521      18.208255      9136.0165      10112.159    
     44500   316.06559     -3238.7587     -3257.0208      18.262043      9047.7179      10112.159    
     44600   301.60046     -3239.2715     -3256.6977      17.426259      8978.314       10112.159    
     44700   289.98118     -3241.0304     -3257.7853      16.754905      9081.0478      10112.159    
     44800   287.57267     -3241.1897     -3257.8055      16.615743      8610.4796      10112.159    
     44900   301.71743     -3240.3424     -3257.7754      17.433018      9079.1174      10112.159    
     45000   310.68909     -3239.1975     -3257.1489      17.951393      9228.3862      10112.159    
     45100   290.01301     -3239.0476     -3255.8043      16.756744      9506.1337      10112.159    
     45200   304.28087     -3239.3192     -3256.9003      17.581131      9359.4942      10112.159    
     45300   302.20716     -3240.0811     -3257.5424      17.461314      8711.3089      10112.159    
     45400   298.23391     -3240.9419     -3258.1737      17.231742      9116.2197      10112.159    
     45500   288.49903     -3241.159      -3257.8282      16.669268      8672.5233      10112.159    
     45600   289.67775     -3239.2902     -3256.0276      16.737373      9230.4548      10112.159    
     45700   306.3698      -3238.3487     -3256.0505      17.701828      9684.8121      10112.159    
     45800   313.37627     -3238.8854     -3256.992       18.106657      9123.43        10112.159    
     45900   299.76283     -3239.739      -3257.0591      17.320082      9043.3429      10112.159    
     46000   301.41554     -3240.1193     -3257.5349      17.415574      9029.3358      10112.159    
     46100   292.39492     -3240.411      -3257.3054      16.894369      8788.1708      10112.159    
     46200   300.12448     -3239.8715     -3257.2125      17.340978      8913.1701      10112.159    
     46300   321.94599     -3238.2728     -3256.8746      18.601809      9258.4728      10112.159    
     46400   308.65819     -3238.0488     -3255.8828      17.83405       9556.3712      10112.159    
     46500   307.23429     -3239.2469     -3256.9987      17.751777      8673.2991      10112.159    
     46600   293.26799     -3240.7459     -3257.6907      16.944815      8588.2821      10112.159    
     46700   284.81708     -3240.9884     -3257.4449      16.456527      9092.2971      10112.159    
     46800   294.80946     -3240.5105     -3257.5444      17.03388       8781.5719      10112.159    
     46900   316.83806     -3238.9973     -3257.304       18.306677      9117.1068      10112.159    
     47000   310.90139     -3238.4706     -3256.4342      17.96366       9521.5155      10112.159    
     47100   298.14301     -3239.0071     -3256.2336      17.22649       9343.5928      10112.159    
     47200   302.24062     -3239.8634     -3257.3266      17.463247      9088.3951      10112.159    
     47300   292.34214     -3240.2293     -3257.1206      16.89132       8609.2778      10112.159    
     47400   314.99035     -3239.939      -3258.1389      18.199917      9038.9203      10112.159    
     47500   284.83834     -3240.2921     -3256.7499      16.457755      8991.2445      10112.159    
     47600   308.43897     -3239.8066     -3257.628       17.821383      8497.8379      10112.159    
     47700   314.64139     -3238.6031     -3256.7829      18.179755      9350.93        10112.159    
     47800   298.34833     -3238.4481     -3255.6865      17.238353      9411.7828      10112.159    
     47900   316.50713     -3239.4782     -3257.7657      18.287555      9046.4771      10112.159    
     48000   289.10279     -3240.6493     -3257.3534      16.704152      8766.3555      10112.159    
     48100   297.02163     -3240.622      -3257.7837      17.161698      9039.1018      10112.159    
     48200   302.18909     -3240.0507     -3257.5109      17.46027       8898.8012      10112.159    
     48300   312.83637     -3238.7345     -3256.81        18.075462      9187.9227      10112.159    
     48400   318.63588     -3237.9343     -3256.3449      18.410553      9434.2664      10112.159    
     48500   313.41426     -3238.3506     -3256.4595      18.108852      9474.8715      10112.159    
     48600   300.99429     -3240.1524     -3257.5436      17.391235      9152.7022      10112.159    
     48700   285.28099     -3240.9167     -3257.4         16.483332      8928.7117      10112.159    
     48800   293.6188      -3240.6808     -3257.6459      16.965085      8749.3327      10112.159    
     48900   309.79175     -3239.4902     -3257.3898      17.899546      8735.5268      10112.159    
     49000   313.34603     -3238.677      -3256.7819      18.10491       9190.3909      10112.159    
     49100   291.45191     -3239.3162     -3256.1561      16.839883      9144.7996      10112.159    
     49200   305.72457     -3239.748      -3257.4125      17.664547      9189.3309      10112.159    
     49300   305.43483     -3240.0279     -3257.6757      17.647806      8747.1059      10112.159    
     49400   297.89859     -3240.0861     -3257.2985      17.212367      8567.964       10112.159    
     49500   295.46185     -3239.7762     -3256.8477      17.071574      8970.0068      10112.159    
     49600   307.55628     -3239.0642     -3256.8345      17.770382      9129.7053      10112.159    
     49700   312.13683     -3238.37       -3256.405       18.035043      9440.1905      10112.159    
     49800   308.77443     -3238.3863     -3256.227       17.840766      9088.0592      10112.159    
     49900   300.88819     -3239.9438     -3257.3289      17.385105      8973.507       10112.159    
     50000   291.0266      -3240.6513     -3257.4667      16.815309      8862.6037      10112.159    
     50100   277.90731     -3240.7057     -3256.763       16.057286      8927.9982      10112.159    
     50200   304.35401     -3239.615      -3257.2003      17.585357      8982.7779      10112.159    
     50300   319.34981     -3238.0491     -3256.5009      18.451803      9330.9183      10112.159    
     50400   335.51511     -3237.9911     -3257.3769      19.385823      8988.0019      10112.159    
     50500   291.87868     -3238.9216     -3255.7862      16.864541      9327.1614      10112.159    
     50600   296.11598     -3239.5017     -3256.6111      17.10937       9206.646       10112.159    
     50700   306.56487     -3240.3474     -3258.0605      17.713099      8993.6645      10112.159    
     50800   295.69883     -3241.1052     -3258.1904      17.085267      8500.1881      10112.159    
     50900   289.82503     -3240.7652     -3257.5111      16.745883      8907.6384      10112.159    
     51000   311.93823     -3238.8447     -3256.8683      18.023568      9276.3863      10112.159    
     51100   317.79226     -3238.4469     -3256.8087      18.36181       9489.654       10112.159    
     51200   302.50353     -3239.4197     -3256.8982      17.478438      9234.4654      10112.159    
     51300   294.2872      -3240.2726     -3257.2763      17.003704      8764.9025      10112.159    
     51400   300.449       -3240.1837     -3257.5434      17.359728      8897.0045      10112.159    
     51500   302.95478     -3239.9999     -3257.5045      17.504511      8778.1484      10112.159    
     51600   294.39171     -3239.936      -3256.9457      17.009742      9219.5436      10112.159    
     51700   301.85818     -3239.3057     -3256.7468      17.44115       9222.2533      10112.159    
     51800   311.70423     -3238.8446     -3256.8546      18.010047      9044.4673      10112.159    
     51900   308.94928     -3239.3994     -3257.2503      17.850869      9048.9846      10112.159    
     52000   301.2709      -3240.2111     -3257.6183      17.407217      8635.9509      10112.159    
     52100   277.81257     -3241.4521     -3257.504       16.051812      8819.4499      10112.159    
     52200   288.88429     -3241.5553     -3258.2468      16.691528      8139.6158      10112.159    
     52300   295.71122     -3240.0391     -3257.125       17.085983      9276.7148      10112.159    
     52400   315.26972     -3239.1976     -3257.4137      18.216059      8755.4773      10112.159    
     52500   289.30245     -3239.6219     -3256.3376      16.715688      8947.7311      10112.159    
     52600   308.57771     -3239.5437     -3257.3731      17.829399      8909.2095      10112.159    
     52700   301.0466      -3240.1211     -3257.5153      17.394257      8893.5971      10112.159    
     52800   273.46083     -3241.2677     -3257.0681      15.800371      8851.7208      10112.159    
     52900   311.32208     -3240.9309     -3258.9188      17.987967      8737.7965      10112.159    
     53000   291.99074     -3239.6095     -3256.4805      16.871016      8895.6425      10112.159    
     53100   312.56146     -3238.427      -3256.4866      18.059577      9174.5455      10112.159    
     53200   300.56378     -3239.1043     -3256.4706      17.36636       9130.2575      10112.159    
     53300   320.19049     -3239.9719     -3258.4723      18.500377      8497.8008      10112.159    
     53400   284.82645     -3241.1426     -3257.5997      16.457069      8697.2696      10112.159    
     53500   290.107       -3240.8067     -3257.5689      16.762175      9052.6427      10112.159    
     53600   304.43872     -3240.2226     -3257.8128      17.590252      8731.3915      10112.159    
     53700   296.42811     -3239.896      -3257.0234      17.127404      8733.6551      10112.159    
     53800   299.70553     -3239.5553     -3256.8721      17.316771      9225.2688      10112.159    
     53900   306.15128     -3239.6537     -3257.3429      17.689202      9100.8748      10112.159    
     54000   299.05095     -3239.8354     -3257.1144      17.27895       8560.5804      10112.159    
     54100   308.86426     -3239.8012     -3257.6472      17.845956      8813.0173      10112.159    
     54200   289.37416     -3240.1229     -3256.8427      16.719832      9229.5321      10112.159    
     54300   296.77434     -3240.0795     -3257.2269      17.147409      8881.5968      10112.159    
     54400   308.0505      -3240.0377     -3257.8366      17.798938      8492.8368      10112.159    
     54500   288.36472     -3239.8742     -3256.5357      16.661507      8928.7253      10112.159    
     54600   321.1387      -3239.2402     -3257.7954      18.555164      8765.3949      10112.159    
     54700   275.02824     -3240.1856     -3256.0765      15.890935      8986.0767      10112.159    
     54800   302.30376     -3239.9255     -3257.3924      17.466895      9037.4613      10112.159    
     54900   317.94052     -3238.8976     -3257.268       18.370376      8768.4963      10112.159    
     55000   310.91112     -3238.7107     -3256.6749      17.964222      9281.943       10112.159    
     55100   306.01891     -3239.451      -3257.1325      17.681554      9205.8127      10112.159    
     55200   279.56759     -3240.939      -3257.0923      16.153215      9092.6608      10112.159    
     55300   294.30961     -3241.0906     -3258.0956      17.004999      8544.5052      10112.159    
     55400   299.1944      -3240.4227     -3257.71        17.287238      8748.0121      10112.159    
     55500   299.77385     -3239.69       -3257.0107      17.320719      9063.741       10112.159    
     55600   301.41131     -3239.7605     -3257.1758      17.41533       8933.3296      10112.159    
     55700   293.80404     -3240.0397     -3257.0155      16.975787      9221.0647      10112.159    
     55800   311.89688     -3239.7213     -3257.7425      18.021179      9018.0108      10112.159    
     55900   301.76273     -3239.1557     -3256.5914      17.435635      9004.4204      10112.159    
     56000   301.04106     -3238.2421     -3255.6361      17.393937      9507.2538      10112.159    
     56100   313.23978     -3238.3785     -3256.4772      18.09877       9325.869       10112.159    
     56200   311.19261     -3239.8342     -3257.8147      17.980487      8580.9621      10112.159    
     56300   302.80541     -3240.6042     -3258.1001      17.49588       8568.1252      10112.159    
     56400   284.76654     -3240.8377     -3257.2913      16.453607      8675.849       10112.159    
     56500   296.33057     -3239.8347     -3256.9565      17.121768      9077.4467      10112.159    
     56600   319.30722     -3239.0799     -3257.5292      18.449343      9294.1725      10112.159    
     56700   291.78912     -3239.3538     -3256.2132      16.859367      9339.7232      10112.159    
     56800   304.17505     -3239.6143     -3257.1893      17.575017      9223.9863      10112.159    
     56900   293.80041     -3240.5081     -3257.4837      16.975578      8617.7525      10112.159    
     57000   300.73179     -3240.8643     -3258.2403      17.376068      8449.9882      10112.159    
     57100   298.06568     -3241.2015     -3258.4235      17.222022      8611.5211      10112.159    
     57200   284.74616     -3240.7004     -3257.1528      16.452429      9201.8049      10112.159    
     57300   312.92555     -3239.3558     -3257.4365      18.080615      8698.9216      10112.159    
     57400   303.63777     -3239.1633     -3256.7073      17.543973      9132.3059      10112.159    
     57500   303.53907     -3239.1308     -3256.669       17.538271      9061.439       10112.159    
     57600   296.01136     -3239.9234     -3257.0268      17.103325      9233.7881      10112.159    
     57700   286.43304     -3241.3348     -3257.8847      16.549896      8829.8811      10112.159    
     57800   295.09677     -3241.4161     -3258.4666      17.05048       8672.6038      10112.159    
     57900   303.70627     -3240.1458     -3257.6937      17.547931      8834.0656      10112.159    
     58000   300.42053     -3239.4812     -3256.8393      17.358083      8819.839       10112.159    
     58100   298.6329      -3239.2666     -3256.5214      17.254796      9334.6536      10112.159    
     58200   317.78144     -3239.2642     -3257.6254      18.361184      8948.7394      10112.159    
     58300   290.61213     -3240.7462     -3257.5375      16.791361      8738.5723      10112.159    
     58400   296.78723     -3241.0856     -3258.2337      17.148154      8872.0299      10112.159    
     58500   289.33708     -3240.7428     -3257.4605      16.717689      8595.5698      10112.159    
     58600   295.56594     -3240.1648     -3257.2424      17.077589      9181.3527      10112.159    
     58700   299.70671     -3239.9435     -3257.2604      17.316839      9283.9458      10112.159    
     58800   285.61139     -3239.866      -3256.3685      16.502422      8939.8698      10112.159    
     58900   330.7882      -3238.4844     -3257.5971      19.112706      8906.3183      10112.159    
     59000   315.25382     -3238.3954     -3256.6106      18.21514       9359.1422      10112.159    
     59100   292.88966     -3240.2289     -3257.1519      16.922955      8951.9839      10112.159    
     59200   272.03972     -3241.0339     -3256.7521      15.718261      8814.3591      10112.159    
     59300   306.2252      -3240.3562     -3258.0496      17.693473      8779.3792      10112.159    
     59400   313.9026      -3239.5128     -3257.6499      18.137067      8763.8855      10112.159    
     59500   308.56746     -3238.8477     -3256.6765      17.828807      9251.9177      10112.159    
     59600   292.77406     -3239.3259     -3256.2421      16.916276      9294.7609      10112.159    
     59700   302.06227     -3240.6979     -3258.1508      17.452942      8685.5161      10112.159    
     59800   307.12667     -3241.2577     -3259.0033      17.745559      8430.6845      10112.159    
     59900   265.68591     -3241.3182     -3256.6693      15.351142      8658.2227      10112.159    
     60000   315.82874     -3239.6565     -3257.9048      18.248358      8721.1836      10112.159    
     60100   309.68879     -3239.3942     -3257.2878      17.893597      8966.7559      10112.159    
     60200   305.25653     -3239.3737     -3257.0112      17.637504      9091.2162      10112.159    
     60300   287.59381     -3239.9167     -3256.5337      16.616964      9200.3336      10112.159    
     60400   279.7122      -3241.4193     -3257.5809      16.161571      8767.1568      10112.159    
     60500   303.71985     -3241.3242     -3258.8729      17.548716      8200.4981      10112.159    
     60600   300.35006     -3240.3179     -3257.6719      17.354011      8854.8101      10112.159    
     60700   294.06161     -3239.5481     -3256.5388      16.990669      9101.2492      10112.159    
     60800   298.9491      -3239.5982     -3256.8713      17.273065      9139.0483      10112.159    
     60900   305.02631     -3239.7507     -3257.3749      17.624202      9080.8001      10112.159    
     61000   306.72824     -3239.5743     -3257.2968      17.722538      9098.6563      10112.159    
     61100   313.4649      -3238.8751     -3256.9869      18.111778      9093.8366      10112.159    
     61200   304.83353     -3238.663      -3256.2761      17.613063      9320.2677      10112.159    
     61300   307.50097     -3239.0172     -3256.7844      17.767186      9314.2046      10112.159    
     61400   300.48856     -3240.3831     -3257.7451      17.362014      8923.2301      10112.159    
     61500   302.03482     -3240.7519     -3258.2033      17.451356      8605.6928      10112.159    
     61600   276.74828     -3240.514      -3256.5043      15.990318      8893.3573      10112.159    
     61700   318.83086     -3238.9759     -3257.3977      18.421819      9049.495       10112.159    
     61800   303.29687     -3239.0126     -3256.5369      17.524276      9283.4578      10112.159    
     61900   312.37571     -3239.2972     -3257.3461      18.048845      9092.7436      10112.159    
     62000   290.91209     -3240.0545     -3256.8632      16.808693      8777.2316      10112.159    
     62100   297.79494     -3240.4126     -3257.619       17.206378      8829.225       10112.159    
     62200   294.85073     -3241.1947     -3258.231       17.036264      8459.7449      10112.159    
     62300   277.95315     -3241.8448     -3257.9048      16.059934      8451.3237      10112.159    
     62400   290.68961     -3240.9463     -3257.7422      16.795838      8561.8248      10112.159    
     62500   298.76543     -3239.5163     -3256.7787      17.262453      9277.5852      10112.159    
     62600   310.50904     -3239.006      -3256.947       17.94099       9392.0311      10112.159    
     62700   301.18516     -3239.4296     -3256.8319      17.402263      8810.8348      10112.159    
     62800   300.34587     -3240.5716     -3257.9253      17.35377       8748.3784      10112.159    
     62900   268.50455     -3241.937      -3257.451       15.514001      8757.7805      10112.159    
     63000   292.44392     -3241.3391     -3258.2363      16.897201      8469.8855      10112.159    
     63100   301.56762     -3240.4283     -3257.8526      17.424361      8783.0229      10112.159    
     63200   304.54776     -3239.5997     -3257.1963      17.596552      9002.3351      10112.159    
     63300   294.03712     -3239.3048     -3256.2941      16.989254      8789.2058      10112.159    
     63400   297.32545     -3239.2333     -3256.4125      17.179252      9218.0584      10112.159    
     63500   301.94155     -3240.0743     -3257.5203      17.445967      9068.2171      10112.159    
     63600   289.63792     -3241.1961     -3257.9312      16.735072      8374.1913      10112.159    
     63700   286.06134     -3241.2588     -3257.7872      16.52842       8996.7948      10112.159    
     63800   297.18503     -3240.1278     -3257.299       17.171139      9235.5957      10112.159    
     63900   302.63354     -3238.6922     -3256.1781      17.485949      8954.5315      10112.159    
     64000   313.48589     -3238.4807     -3256.5937      18.11299       9017.7211      10112.159    
     64100   304.81103     -3239.2994     -3256.9112      17.611763      8934.7423      10112.159    
     64200   309.10598     -3240.0037     -3257.8637      17.859922      8742.355       10112.159    
     64300   283.75541     -3240.7933     -3257.1885      16.395184      8469.2234      10112.159    
     64400   303.464       -3240.2721     -3257.8061      17.533933      8736.987       10112.159    
     64500   314.20764     -3238.2393     -3256.394       18.154693      9505.8386      10112.159    
     64600   319.14326     -3237.2469     -3255.6868      18.439869      9425.1323      10112.159    
     64700   304.78262     -3238.4309     -3256.041       17.610122      9545.8978      10112.159    
     64800   308.49003     -3239.5586     -3257.383       17.824333      8759.6373      10112.159    
     64900   297.83688     -3240.3083     -3257.5172      17.208802      8659.5066      10112.159    
     65000   288.21245     -3240.8209     -3257.4737      16.65271       8762.7051      10112.159    
     65100   317.29132     -3240.3505     -3258.6834      18.332865      8707.8461      10112.159    
     65200   304.1024      -3238.643      -3256.2138      17.570819      9399.4033      10112.159    
     65300   308.48339     -3237.9941     -3255.8181      17.82395       9152.5212      10112.159    
     65400   311.57472     -3238.5015     -3256.5041      18.002565      9153.7621      10112.159    
     65500   303.20961     -3240.0035     -3257.5227      17.519235      8885.9318      10112.159    
     65600   300.00802     -3240.258      -3257.5923      17.334249      8418.3709      10112.159    
     65700   294.22248     -3240.0564     -3257.0563      16.999965      8944.1573      10112.159    
     65800   306.48095     -3239.4422     -3257.1505      17.70825       9240.9197      10112.159    
     65900   298.07664     -3239.1549     -3256.3775      17.222655      8855.2508      10112.159    
     66000   303.51399     -3239.1661     -3256.7029      17.536821      8855.5476      10112.159    
     66100   303.55503     -3239.6477     -3257.1869      17.539192      8905.0113      10112.159    
     66200   302.11546     -3240.5625     -3258.0185      17.456015      8623.7993      10112.159    
     66300   280.29343     -3241.5167     -3257.7119      16.195154      8764.1124      10112.159    
     66400   297.64215     -3240.7247     -3257.9223      17.197551      8320.0037      10112.159    
     66500   295.25202     -3239.4081     -3256.4676      17.05945       9253.1637      10112.159    
     66600   306.92033     -3239.0915     -3256.8252      17.733637      8967.3082      10112.159    
     66700   304.72876     -3239.3739     -3256.9809      17.60701       8943.3149      10112.159    
     66800   293.04355     -3240.0975     -3257.0294      16.931847      8934.5901      10112.159    
     66900   293.45805     -3240.9119     -3257.8677      16.955796      8785.8524      10112.159    
     67000   285.79346     -3241.7367     -3258.2496      16.512942      8475.0823      10112.159    
     67100   286.90141     -3241.6436     -3258.2205      16.576958      8430.3164      10112.159    
     67200   304.98468     -3239.9209     -3257.5427      17.621797      8919.2421      10112.159    
     67300   304.86102     -3239.1948     -3256.8094      17.614651      9152.9069      10112.159    
     67400   299.39078     -3239.1337     -3256.4323      17.298585      8671.8578      10112.159    
     67500   300.38492     -3239.6602     -3257.0163      17.356026      8859.4778      10112.159    
     67600   279.55943     -3241.107      -3257.2598      16.152744      8719.5563      10112.159    
     67700   286.96546     -3241.2942     -3257.8748      16.580659      8460.5286      10112.159    
     67800   310.73174     -3240.0766     -3258.0305      17.953858      8595.0403      10112.159    
     67900   310.21383     -3238.5202     -3256.4441      17.923933      9042.735       10112.159    
     68000   310.8771      -3238.969      -3256.9313      17.962256      8950.3528      10112.159    
     68100   301.40553     -3239.7566     -3257.1716      17.414996      8857.5871      10112.159    
     68200   295.98387     -3240.2405     -3257.3422      17.101736      8710.1895      10112.159    
     68300   293.55336     -3240.9527     -3257.914       16.961303      8557.4773      10112.159    
     68400   291.04135     -3241.8291     -3258.6453      16.816161      8185.6827      10112.159    
     68500   288.4767      -3241.5543     -3258.2223      16.667977      8413.6522      10112.159    
     68600   284.50806     -3239.7655     -3256.2041      16.438672      9000.2618      10112.159    
     68700   303.9192      -3239.155      -3256.7152      17.560234      9159.2806      10112.159    
     68800   310.86646     -3239.5183     -3257.4799      17.961642      8788.3775      10112.159    
     68900   303.27024     -3240.4038     -3257.9265      17.522737      8599.4294      10112.159    
     69000   281.75605     -3241.3953     -3257.6749      16.279663      8747.2072      10112.159    
     69100   294.60241     -3241.6586     -3258.6805      17.021917      8167.7528      10112.159    
     69200   290.11447     -3240.599      -3257.3616      16.762607      8847.2         10112.159    
     69300   298.54535     -3239.3732     -3256.623       17.249737      9145.7439      10112.159    
     69400   300.78849     -3239.2516     -3256.6309      17.379344      9262.4811      10112.159    
     69500   317.07164     -3239.6181     -3257.9383      18.320173      8637.7553      10112.159    
     69600   295.39471     -3240.8613     -3257.9289      17.067695      8781.09        10112.159    
     69700   288.27824     -3241.3857     -3258.0422      16.656511      8759.2518      10112.159    
     69800   283.55465     -3240.3165     -3256.7001      16.383585      9132.1971      10112.159    
     69900   319.42011     -3238.7547     -3257.2106      18.455866      8940.0102      10112.159    
     70000   298.56078     -3239.2032     -3256.4538      17.250629      9147.6313      10112.159    
     70100   302.49455     -3239.9086     -3257.3865      17.477919      9126.823       10112.159    
     70200   299.10908     -3240.926      -3258.2083      17.282309      8930.2602      10112.159    
     70300   291.73721     -3241.2598     -3258.1161      16.856367      8706.4988      10112.159    
     70400   305.23916     -3239.6881     -3257.3246      17.6365        8841.0054      10112.159    
     70500   314.99864     -3238.5355     -3256.7359      18.200396      9256.5212      10112.159    
     70600   299.96868     -3239.1023     -3256.4343      17.331976      9213.0979      10112.159    
     70700   292.62593     -3240.2043     -3257.112       16.907717      9132.8886      10112.159    
     70800   281.61119     -3240.9765     -3257.2478      16.271293      8915.5694      10112.159    
     70900   304.65695     -3240.6486     -3258.2515      17.602861      8790.9478      10112.159    
     71000   303.13202     -3240.21       -3257.7248      17.514751      8833.8033      10112.159    
     71100   285.49548     -3240.1318     -3256.6275      16.495725      9208.2498      10112.159    
     71200   301.63371     -3239.8221     -3257.2503      17.42818       8966.9794      10112.159    
     71300   286.72296     -3239.9171     -3256.4838      16.566648      8958.8715      10112.159    
     71400   322.40257     -3238.8139     -3257.4421      18.62819       9191.1205      10112.159    
     71500   313.02744     -3238.5807     -3256.6672      18.086502      9428.5787      10112.159    
     71600   290.30106     -3240.0114     -3256.7848      16.773388      9061.1682      10112.159    
     71700   289.94881     -3241.0557     -3257.8088      16.753035      8883.4095      10112.159    
     71800   277.19199     -3241.1243     -3257.1402      16.015955      8853.2998      10112.159    
     71900   304.76726     -3240.1332     -3257.7425      17.609234      8747.7098      10112.159    
     72000   312.48748     -3239.5891     -3257.6444      18.055303      8766.0177      10112.159    
     72100   297.62766     -3239.7292     -3256.9259      17.196713      8910.589       10112.159    
     72200   282.05794     -3240.4358     -3256.7329      16.297106      9008.7992      10112.159    
     72300   296.90555     -3240.6432     -3257.7981      17.15499       8901.4306      10112.159    
     72400   322.79745     -3239.2219     -3257.8729      18.651006      8786.9057      10112.159    
     72500   306.49178     -3238.5069     -3256.2158      17.708876      9454.3058      10112.159    
     72600   308.8668      -3238.6844     -3256.5305      17.846103      9274.1072      10112.159    
     72700   284.62957     -3240.4436     -3256.8893      16.445693      9168.8683      10112.159    
     72800   294.93963     -3240.97       -3258.0114      17.041401      8587.7851      10112.159    
     72900   302.46874     -3240.5133     -3257.9897      17.476427      8650.9076      10112.159    
     73000   291.72966     -3239.8489     -3256.7048      16.855931      9312.7298      10112.159    
     73100   312.5126      -3238.6859     -3256.7427      18.056754      8974.8302      10112.159    
     73200   329.00942     -3236.6633     -3255.6733      19.009929      9494.9647      10112.159    
     73300   311.04151     -3237.1863     -3255.1581      17.971756      9660.9569      10112.159    
     73400   315.4945      -3238.5516     -3256.7806      18.229047      9420.5102      10112.159    
     73500   300.59336     -3239.6403     -3257.0083      17.368069      8940.6532      10112.159    
     73600   300.49882     -3240.3624     -3257.7251      17.362607      8842.6959      10112.159    
     73700   305.36075     -3240.9298     -3258.5733      17.643526      8852.9244      10112.159    
     73800   265.52073     -3241.5217     -3256.8633      15.341598      8589.5801      10112.159    
     73900   306.07152     -3239.8037     -3257.4883      17.684594      8809.4673      10112.159    
     74000   312.81384     -3238.9679     -3257.0421      18.07416       8840.8235      10112.159    
     74100   307.72123     -3239.1576     -3256.9375      17.779912      9264.9976      10112.159    
     74200   297.35777     -3240.0531     -3257.2342      17.181119      9032.8244      10112.159    
[...]
     81800   310.97629     -3239.8348     -3257.8028      17.967987      8714.2823      10112.159    
     81900   303.08158     -3238.8559     -3256.3678      17.511837      9180.367       10112.159    
     82000   317.48267     -3237.5437     -3255.8876      18.343922      9514.7357      10112.159    
     82100   307.27285     -3238.2072     -3255.9612      17.754006      9481.0376      10112.159    
     82200   317.96137     -3238.8438     -3257.2154      18.37158       8862.0709      10112.159    
     82300   288.65802     -3239.9479     -3256.6263      16.678454      9013.981       10112.159    
     82400   307.12834     -3240.308      -3258.0536      17.745656      8701.2818      10112.159    
     82500   291.24901     -3240.7713     -3257.5995      16.82816       8980.4392      10112.159    
     82600   293.95138     -3240.362      -3257.3463      16.9843        9128.8416      10112.159    
     82700   313.31806     -3238.7445     -3256.8478      18.103294      9342.614       10112.159    
     82800   298.05944     -3238.4988     -3255.7204      17.221661      9424.0859      10112.159    
     82900   322.42031     -3239.1386     -3257.7678      18.629215      8912.4412      10112.159    
     83000   292.23244     -3240.7039     -3257.5888      16.884982      8617.9217      10112.159    
     83100   293.19762     -3240.4897     -3257.4304      16.940749      9009.4939      10112.159    
     83200   296.63743     -3239.7805     -3256.92        17.139498      9183.3118      10112.159    
     83300   314.70021     -3238.9627     -3257.1458      18.183153      9464.6343      10112.159    
     83400   306.04411     -3238.5929     -3256.276       17.68301       9607.2484      10112.159    
     83500   307.8644      -3238.9374     -3256.7256      17.788185      9554.6046      10112.159    
     83600   295.9362      -3240.2993     -3257.3982      17.098982      8574.1386      10112.159    
     83700   298.50616     -3240.7769     -3258.0244      17.247472      8945.9822      10112.159    
     83800   297.35547     -3240.7898     -3257.9708      17.180986      8912.2993      10112.159    
     83900   297.24879     -3239.6233     -3256.7981      17.174822      9023.586       10112.159    
     84000   313.1858      -3238.3831     -3256.4787      18.095652      9805.4663      10112.159    
     84100   296.98839     -3239.2571     -3256.4168      17.159777      9516.7203      10112.159    
     84200   294.97862     -3240.1325     -3257.1761      17.043654      9046.2979      10112.159    
     84300   309.74781     -3240.1921     -3258.0891      17.897007      8659.0288      10112.159    
     84400   302.77347     -3240.0211     -3257.5152      17.494035      8746.9158      10112.159    
     84500   305.30594     -3238.5199     -3256.1602      17.640359      9269.9373      10112.159    
     84600   321.88706     -3237.2914     -3255.8898      18.598404      9916.5099      10112.159    
     84700   309.98311     -3238.4808     -3256.3914      17.910602      8985.9655      10112.159    
     84800   305.24347     -3239.3657     -3257.0025      17.636749      9251.2191      10112.159    
     84900   283.80778     -3240.0702     -3256.4684      16.398211      9067.5942      10112.159    
     85000   305.2525      -3240.3372     -3257.9744      17.637271      9059.0844      10112.159    
     85100   286.17674     -3241.2483     -3257.7834      16.535087      8546.2777      10112.159    
     85200   285.3621      -3241.9337     -3258.4217      16.488018      8289.0307      10112.159    
     85300   285.53067     -3241.3288     -3257.8266      16.497758      8648.0485      10112.159    
     85400   296.42851     -3239.836      -3256.9634      17.127427      8725.0453      10112.159    
     85500   296.26209     -3239.2583     -3256.3762      17.117811      9473.6996      10112.159    
     85600   307.73096     -3238.9552     -3256.7357      17.780475      9313.4757      10112.159    
     85700   313.16421     -3239.8186     -3257.913       18.094404      8573.423       10112.159    
     85800   287.90675     -3241.306      -3257.941       16.635046      8737.3342      10112.159    
     85900   270.62032     -3241.1878     -3256.824       15.636249      9101.119       10112.159    
     86000   303.76812     -3239.831      -3257.3825      17.551504      8872.0693      10112.159    
     86100   309.92622     -3239.3534     -3257.2607      17.907315      8822.1825      10112.159    
     86200   288.98955     -3239.5291     -3256.2267      16.69761       9612.5958      10112.159    
     86300   307.96839     -3240.1319     -3257.9261      17.794194      8815.4879      10112.159    
     86400   288.99868     -3241.2963     -3257.9945      16.698137      8578.09        10112.159    
     86500   293.01478     -3240.7901     -3257.7203      16.930184      8939.5443      10112.159    
     86600   295.3595      -3240.0992     -3257.1648      17.065661      9319.4846      10112.159    
     86700   293.76641     -3239.4777     -3256.4513      16.973613      9006.355       10112.159    
     86800   298.78263     -3239.2735     -3256.537       17.263447      9459.9711      10112.159    
     86900   282.08567     -3240.6423     -3256.9411      16.298708      8887.8224      10112.159    
     87000   298.76576     -3241.8752     -3259.1377      17.262472      8269.265       10112.159    
     87100   287.02274     -3241.4754     -3258.0593      16.583968      8598.276       10112.159    
     87200   298.27462     -3240.0336     -3257.2677      17.234094      8924.414       10112.159    
     87300   298.49609     -3239.4087     -3256.6556      17.246891      9257.0548      10112.159    
     87400   312.90514     -3239.0216     -3257.101       18.079435      9113.2512      10112.159    
     87500   290.172       -3240.1487     -3256.9146      16.76593       9025.3028      10112.159    
     87600   294.16341     -3241.0795     -3258.0761      16.996551      8527.5249      10112.159    
     87700   287.51178     -3240.8759     -3257.4881      16.612225      8698.3162      10112.159    
     87800   287.89719     -3240.403      -3257.0375      16.634494      8813.8861      10112.159    
     87900   303.25076     -3239.8002     -3257.3218      17.521612      9226.6714      10112.159    
     88000   311.38324     -3239.4413     -3257.4328      17.991501      8861.206       10112.159    
     88100   289.6441      -3240.0109     -3256.7463      16.735429      9059.9365      10112.159    
     88200   281.32725     -3241.3952     -3257.6501      16.254887      9173.6183      10112.159    
     88300   278.62833     -3241.943      -3258.042       16.098946      8469.1058      10112.159    
     88400   313.43842     -3240.477      -3258.5873      18.110248      8594.5644      10112.159    
     88500   291.79783     -3240.0602     -3256.9201      16.85987       9133.8928      10112.159    
     88600   303.1758      -3239.3496     -3256.8669      17.517281      9191.2982      10112.159    
     88700   323.68        -3238.826      -3257.528       18.701999      9119.3626      10112.159    
     88800   286.7375      -3240.0202     -3256.5877      16.567488      9102.6186      10112.159    
     88900   310.39128     -3240.6417     -3258.5759      17.934186      8595.1474      10112.159    
     89000   274.88153     -3242.3613     -3258.2438      15.882458      8602.4643      10112.159    
     89100   284.45343     -3241.9917     -3258.4272      16.435516      8598.0844      10112.159    
     89200   285.0065      -3241.0604     -3257.5278      16.467472      8721.7639      10112.159    
     89300   286.48402     -3240.2735     -3256.8263      16.552842      8945.461       10112.159    
     89400   318.89737     -3239.3839     -3257.8095      18.425662      8502.0956      10112.159    
     89500   299.18717     -3239.3922     -3256.679       17.286821      9158.5095      10112.159    
     89600   308.71945     -3239.1022     -3256.9398      17.837589      9096.246       10112.159    
     89700   265.94567     -3240.5124     -3255.8785      15.36615       9039.8939      10112.159    
     89800   305.82535     -3240.4441     -3258.1145      17.67037       8594.4769      10112.159    
     89900   310.47552     -3240.1647     -3258.1037      17.939053      8565.2726      10112.159    
     90000   310.23906     -3239.4629     -3257.3883      17.925391      9115.9741      10112.159    
     90100   298.52943     -3238.6223     -3255.8711      17.248817      9203.6876      10112.159    
     90200   318.41082     -3238.3347     -3256.7323      18.397549      9294.6267      10112.159    
     90300   293.80204     -3239.8419     -3256.8176      16.975672      8884.0187      10112.159    
     90400   294.23767     -3240.8942     -3257.895       17.000842      8373.0162      10112.159    
     90500   308.09593     -3240.5839     -3258.3854      17.801562      8290.9023      10112.159    
     90600   290.21913     -3239.9617     -3256.7304      16.768654      9303.0165      10112.159    
     90700   295.22309     -3238.8301     -3255.8878      17.057779      9298.162       10112.159    
     90800   325.49181     -3237.1372     -3255.9439      18.806684      9558.3391      10112.159    
     90900   338.95179     -3236.8807     -3256.4651      19.584392      9302.9327      10112.159    
     91000   304.82207     -3239.0409     -3256.6533      17.612401      9056.582       10112.159    
     91100   288.3056      -3240.435      -3257.0931      16.658091      9147.1279      10112.159    
     91200   293.66354     -3240.9381     -3257.9058      16.96767       8436.7749      10112.159    
     91300   306.16875     -3240.3877     -3258.0779      17.690211      8473.5115      10112.159    
     91400   308.00195     -3239.1355     -3256.9316      17.796132      8991.8347      10112.159    
     91500   308.61073     -3238.6803     -3256.5116      17.831307      9129.4502      10112.159    
     91600   302.0346      -3239.2646     -3256.7159      17.451343      9178.1939      10112.159    
     91700   294.85548     -3239.8869     -3256.9234      17.036539      9003.8303      10112.159    
     91800   323.68502     -3239.5248     -3258.2271      18.702289      8245.2293      10112.159    
     91900   297.37149     -3239.8465     -3257.0284      17.181912      9001.5462      10112.159    
     92000   295.77651     -3240.2015     -3257.2912      17.089755      9007.6871      10112.159    
     92100   280.7877      -3241.2867     -3257.5104      16.223713      8345.0188      10112.159    
     92200   301.49938     -3241.3972     -3258.8176      17.420419      8433.2418      10112.159    
     92300   290.3553      -3240.0451     -3256.8216      16.776522      8845.1078      10112.159    
     92400   305.01078     -3238.8407     -3256.464       17.623305      9142.2207      10112.159    
     92500   321.79972     -3239.0053     -3257.5986      18.593358      8858.744       10112.159    
     92600   285.2821      -3240.4363     -3256.9197      16.483396      8886.0104      10112.159    
     92700   299.03668     -3240.5049     -3257.783       17.278126      8967.2078      10112.159    
     92800   286.60011     -3240.3275     -3256.887       16.559549      8779.4733      10112.159    
     92900   310.46802     -3238.5692     -3256.5078      17.93862       9051.9478      10112.159    
     93000   317.10539     -3237.999      -3256.3211      18.322123      9295.5497      10112.159    
     93100   303.69089     -3239.0443     -3256.5914      17.547042      9179.8432      10112.159    
     93200   289.07871     -3240.2212     -3256.9239      16.702761      9081.1559      10112.159    
     93300   302.54213     -3240.3823     -3257.8629      17.480668      8661.0052      10112.159    
     93400   301.89823     -3239.8632     -3257.3067      17.443464      8527.6142      10112.159    
     93500   312.23876     -3238.5901     -3256.631       18.040932      9373.8203      10112.159    
     93600   304.03681     -3238.8606     -3256.4276      17.567029      9312.9569      10112.159    
     93700   297.93269     -3240.2091     -3257.4234      17.214338      8803.753       10112.159    
     93800   296.40183     -3240.3904     -3257.5163      17.125886      8748.0243      10112.159    
     93900   309.41191     -3239.792      -3257.6696      17.877599      8836.3402      10112.159    
     94000   311.22307     -3239.2795     -3257.2617      17.982247      8843.4355      10112.159    
     94100   293.95246     -3239.5588     -3256.5432      16.984363      9216.3935      10112.159    
     94200   294.17894     -3240.3345     -3257.332       16.997449      8837.7152      10112.159    
     94300   294.94027     -3241.1825     -3258.2239      17.041438      8623.6046      10112.159    
     94400   302.98868     -3241.1027     -3258.6092      17.506469      8303.7718      10112.159    
     94500   303.97113     -3239.4918     -3257.055       17.563235      9178.2456      10112.159    
     94600   302.62567     -3238.6169     -3256.1024      17.485495      9398.5093      10112.159    
     94700   319.4703      -3238.7269     -3257.1856      18.458766      9219.268       10112.159    
     94800   279.58254     -3240.2402     -3256.3942      16.154079      9077.989       10112.159    
     94900   298.70832     -3240.5292     -3257.7884      17.259153      8981.1313      10112.159    
     95000   313.96593     -3240.2585     -3258.3992      18.140727      8475.7833      10112.159    
     95100   295.96003     -3240.0801     -3257.1805      17.100359      9042.8139      10112.159    
     95200   295.79447     -3239.046      -3256.1368      17.090793      9409.9471      10112.159    
     95300   328.86096     -3237.5506     -3256.552       19.001351      9480.343       10112.159    
     95400   299.49631     -3238.486      -3255.7906      17.304683      9525.1431      10112.159    
     95500   307.2088      -3239.9184     -3257.6687      17.750305      9048.2584      10112.159    
     95600   304.17108     -3240.2757     -3257.8505      17.574788      8997.0371      10112.159    
     95700   288.30636     -3240.1051     -3256.7633      16.658135      8994.1953      10112.159    
     95800   307.68449     -3239.3141     -3257.0919      17.77779       9157.9008      10112.159    
     95900   302.70508     -3239.0187     -3256.5088      17.490083      9188.5424      10112.159    
     96000   309.76779     -3239.1471     -3257.0452      17.898162      9165.6241      10112.159    
     96100   294.00093     -3240.3066     -3257.2937      16.987164      9096.0163      10112.159    
     96200   290.46998     -3241.237      -3258.0201      16.783148      8493.1387      10112.159    
     96300   299.52669     -3240.8725     -3258.1789      17.306438      8989.904       10112.159    
     96400   308.39153     -3239.4204     -3257.2391      17.818642      9205.3385      10112.159    
     96500   287.88793     -3239.1443     -3255.7783      16.633959      9313.7309      10112.159    
     96600   314.24009     -3239.4515     -3257.608       18.156568      9114.2085      10112.159    
     96700   295.86594     -3240.1043     -3257.1992      17.094922      8750.6902      10112.159    
     96800   295.331       -3240.1277     -3257.1917      17.064014      9063.2212      10112.159    
     96900   297.71692     -3240.0625     -3257.2644      17.201871      8886.5221      10112.159    
     97000   303.93917     -3239.1197     -3256.6811      17.561388      9346.8447      10112.159    
     97100   317.93577     -3238.469      -3256.8391      18.370102      9423.5696      10112.159    
     97200   300.20683     -3239.5225     -3256.8683      17.345736      9025.9676      10112.159    
     97300   305.99595     -3240.4809     -3258.1611      17.680227      8948.1548      10112.159    
     97400   274.44185     -3241.0211     -3256.8781      15.857054      9160.881       10112.159    
     97500   303.91974     -3240.3719     -3257.9322      17.560265      8836.0917      10112.159    
     97600   292.62291     -3240.2351     -3257.1426      16.907543      8968.4745      10112.159    
     97700   308.96731     -3239.6626     -3257.5146      17.85191       8867.849       10112.159    
     97800   302.02515     -3239.5663     -3257.0171      17.450797      9137.1164      10112.159    
     97900   300.55901     -3239.9689     -3257.335       17.366085      8715.3655      10112.159    
     98000   288.49279     -3240.8362     -3257.5051      16.668907      8840.4421      10112.159    
     98100   304.47452     -3240.892      -3258.4844      17.59232       8616.4199      10112.159    
     98200   294.17849     -3239.9738     -3256.9712      16.997423      9006.7507      10112.159    
     98300   299.91212     -3239.1905     -3256.5192      17.328708      9190.5012      10112.159    
     98400   312.84386     -3239.2132     -3257.2891      18.075895      9026.6606      10112.159    
     98500   287.82295     -3240.173      -3256.8032      16.630204      8792.0863      10112.159    
     98600   289.6937      -3241.6482     -3258.3865      16.738295      8384.4311      10112.159    
     98700   292.67393     -3241.5917     -3258.5022      16.91049       8598.5354      10112.159    
     98800   289.12047     -3240.9599     -3257.665       16.705174      8626.461       10112.159    
     98900   287.2353      -3240.3287     -3256.925       16.59625       8728.8727      10112.159    
     99000   317.18075     -3239.2175     -3257.544       18.326477      9282.821       10112.159    
     99100   302.13074     -3239.1538     -3256.6107      17.456898      9184.7063      10112.159    
     99200   295.36363     -3240.0807     -3257.1466      17.065899      8823.9539      10112.159    
     99300   292.15251     -3241.4485     -3258.3289      16.880363      8377.2287      10112.159    
     99400   294.92749     -3241.001      -3258.0417      17.0407        8817.2862      10112.159    
     99500   298.84028     -3240.2199     -3257.4867      17.266778      8901.2106      10112.159    
     99600   287.04493     -3239.962      -3256.5473      16.585251      8987.2029      10112.159    
     99700   319.27493     -3239.4565     -3257.904       18.447477      8641.6754      10112.159    
     99800   290.52599     -3239.8405     -3256.6269      16.786384      9100.5074      10112.159    
     99900   308.06918     -3239.7093     -3257.5093      17.800017      9156.9001      10112.159    
    100000   293.78576     -3240.0518     -3257.0265      16.974731      8929.3751      10112.159    
Loop time of 755.985 on 20 procs for 100000 steps with 448 atoms

Performance: 11.429 ns/day, 2.100 hours/ns, 132.278 timesteps/s, 59.260 katom-step/s
99.9% CPU use with 20 MPI tasks x 1 OpenMP threads

MPI task timing breakdown:
Section |  min time  |  avg time  |  max time  |%varavg| %total
---------------------------------------------------------------
Pair    | 573.2      | 665.56     | 723.89     | 230.9 | 88.04
Neigh   | 6.6572     | 9.3821     | 12.231     |  68.1 |  1.24
Comm    | 19.32      | 79.701     | 174.83     | 690.1 | 10.54
Output  | 0.33966    | 0.47959    | 0.55342    |  11.1 |  0.06
Modify  | 0.69152    | 0.76482    | 0.84522    |   5.0 |  0.10
Other   |            | 0.09439    |            |       |  0.01

Nlocal:           22.4 ave          24 max          17 min
Histogram: 1 1 0 0 3 1 0 1 2 11
Nghost:          496.5 ave         523 max         465 min
Histogram: 4 0 0 4 4 0 0 0 1 7
Neighs:              0 ave           0 max           0 min
Histogram: 20 0 0 0 0 0 0 0 0 0
FullNghs:       1282.9 ave        1402 max         977 min
Histogram: 1 1 0 2 1 1 1 2 0 11

Total # of neighbors = 25658
Ave neighs/atom = 57.272321
Neighbor list builds = 100000
Dangerous builds not checked
Total wall time: 0:12:36
