LAMMPS (27 Jun 2024)
OMP_NUM_THREADS environment is not set. Defaulting to 1 thread. (src/comm.cpp:98)
  using 1 OpenMP thread(s) per MPI task
Reading data file ...
  orthogonal box = (0 0 0) to (22.422218 22.19224 20.321894)
  5 by 2 by 2 MPI processor grid
  reading atoms ...
  448 atoms
  read_data CPU = 0.004 seconds
**************** Begin of POD Potentials ****************
species: Hf 
periodic boundary conditions: 1 1 1
number of environment clusters: 8
number of principal compoments: 2
inner cut-off radius: 1
outer cut-off radius: 5
cut-off function type: 1
gaussian_exponents: 
polynomial_degrees: 
bessel polynomial degree: 4
inverse polynomial degree: 10
one-body potential: 1
two-body radial basis functions: 8
three-body radial basis functions: 8
three-body angular degree: 6
four-body radial basis functions: 7
four-body angular degree: 5
five-body radial basis functions: 0
five-body angular degree: 0
six-body radial basis functions: 0
six-body angular degree: 0
seven-body radial basis functions: 0
seven-body angular degree: 0
number of local descriptors per element for one-body potential: 1
number of local descriptors per element for two-body potential: 8
number of local descriptors per element for three-body potential: 56
number of local descriptors per element for four-body potential: 112
number of local descriptors per element for five-body potential: 0
number of local descriptors per element for six-body potential: 0
number of local descriptors per element for seven-body potential: 0
number of local descriptors per element for all potentials: 177
number of global descriptors: 1409
**************** End of POD Potentials ****************

**************** Begin of Model Coefficients ****************
total number of coefficients for POD potential: 1409
total number of elements for PCA projection matrix: 352
total number of elements for PCA centroids: 16
**************** End of Model Coefficients ****************


CITE-CITE-CITE-CITE-CITE-CITE-CITE-CITE-CITE-CITE-CITE-CITE-CITE

Your simulation uses code contributions which should be cited:
- Type Label Framework: https://doi.org/10.1021/acs.jpcb.3c08419
The log file lists these citations in BibTeX format.

CITE-CITE-CITE-CITE-CITE-CITE-CITE-CITE-CITE-CITE-CITE-CITE-CITE

Neighbor list info ...
  update: every = 1 steps, delay = 0 steps, check = no
  max neighbors/atom: 2000, page size: 100000
  master list distance cutoff = 7
  ghost atom cutoff = 7
  binsize = 3.5, bins = 7 7 6
  1 neighbor lists, perpetual/occasional/extra = 1 0 0
  (1) pair pod, perpetual
      attributes: full, newton on
      pair build: full/bin/atomonly
      stencil: full/bin/3d
      bin: standard
Setting up Verlet run ...
  Unit style    : metal
  Current step  : 0
  Time step     : 0.001
Per MPI rank memory allocation (min/avg/max) = 2.586 | 2.586 | 2.586 Mbytes
   Step          Temp          TotEng         PotEng         KinEng         Press          Volume    
         0   300           -3231.7429     -3249.0767      17.333785      27701.818      10112.159    
       100   329.6202      -3235.7492     -3254.7944      19.045219      9075.3296      10112.159    
       200   235.82195     -3236.6723     -3250.2979      13.625624      10850.57       10112.159    
       300   363.99969     -3235.2245     -3256.2561      21.031642      8696.0265      10112.159    
       400   337.08474     -3237.8568     -3257.3333      19.476515      8905.4125      10112.159    
       500   323.98547     -3240.1498     -3258.8695      18.719649      8294.2287      10112.159    
       600   270.82638     -3241.6625     -3257.3106      15.648155      8333.6975      10112.159    
       700   272.83728     -3240.9079     -3256.6722      15.764343      9139.0361      10112.159    
       800   299.4367      -3239.4467     -3256.7479      17.301239      8720.8209      10112.159    
       900   301.76789     -3238.8253     -3256.2612      17.435933      8609.564       10112.159    
      1000   327.16216     -3238.5203     -3257.4235      18.903196      8476.8746      10112.159    
      1100   289.21715     -3239.2021     -3255.9129      16.71076       8928.0126      10112.159    
      1200   289.76545     -3240.2212     -3256.9636      16.742441      8692.0074      10112.159    
      1300   286.61651     -3240.6196     -3257.1801      16.560497      8288.5921      10112.159    
      1400   301.01188     -3240.0799     -3257.4721      17.392251      8332.243       10112.159    
      1500   304.91966     -3239.4126     -3257.0307      17.61804       8847.4916      10112.159    
      1600   326.89334     -3238.0047     -3256.8923      18.887664      8280.7678      10112.159    
      1700   317.15852     -3238.2604     -3256.5856      18.325192      8994.5474      10112.159    
      1800   290.41046     -3240.2715     -3257.0512      16.779709      8713.27        10112.159    
      1900   279.26615     -3240.8167     -3256.9525      16.135799      8751.4185      10112.159    
      2000   300.30578     -3240.2685     -3257.6199      17.351453      8119.0116      10112.159    
      2100   340.19559     -3239.0819     -3258.7382      19.656258      8639.995       10112.159    
      2200   276.96214     -3239.448      -3255.4507      16.002674      8479.1357      10112.159    
      2300   297.37638     -3239.287      -3256.4692      17.182195      8997.0432      10112.159    
      2400   283.73837     -3240.6722     -3257.0664      16.3942        8751.5475      10112.159    
      2500   302.38914     -3241.3279     -3258.7997      17.471828      8293.6386      10112.159    
      2600   293.49389     -3240.8575     -3257.8154      16.957867      8305.916       10112.159    
      2700   296.06346     -3239.4838     -3256.5902      17.106335      8401.9545      10112.159    
      2800   305.64135     -3238.9446     -3256.6043      17.659739      8734.0006      10112.159    
      2900   292.74915     -3239.6352     -3256.5501      16.914836      8784.4491      10112.159    
      3000   324.97025     -3239.733      -3258.5095      18.776549      8552.5831      10112.159    
      3100   280.91521     -3240.453      -3256.6841      16.23108       8722.4213      10112.159    
      3200   296.59902     -3240.1973     -3257.3346      17.137279      8743.3364      10112.159    
      3300   300.04859     -3239.1597     -3256.4963      17.336593      8773.5691      10112.159    
      3400   318.83884     -3238.1605     -3256.5828      18.42228       8784.2808      10112.159    
      3500   320.00613     -3238.9323     -3257.422       18.489725      8541.1073      10112.159    
      3600   287.50753     -3240.2653     -3256.8773      16.61198       8486.4424      10112.159    
      3700   307.11498     -3240.1177     -3257.8626      17.744884      8486.4372      10112.159    
      3800   295.75612     -3240.1666     -3257.2552      17.088577      8426.2027      10112.159    
      3900   291.1682      -3239.8533     -3256.6768      16.823491      8893.3025      10112.159    
      4000   317.8735      -3238.6812     -3257.0477      18.366503      9130.2024      10112.159    
      4100   304.89896     -3238.594      -3256.2108      17.616844      9105.6482      10112.159    
      4200   309.88342     -3239.6499     -3257.5547      17.904842      8685.4585      10112.159    
      4300   278.89804     -3241.0234     -3257.1379      16.114529      8769.4524      10112.159    
      4400   303.09331     -3240.3418     -3257.8543      17.512515      8673.5181      10112.159    
      4500   299.65692     -3239.7709     -3257.0848      17.313962      8441.0207      10112.159    
      4600   306.12327     -3239.187      -3256.8746      17.687584      8805.2919      10112.159    
      4700   329.71509     -3237.7234     -3256.7741      19.050702      9242.2784      10112.159    
      4800   307.85687     -3237.9083     -3255.696       17.78775       9115.3521      10112.159    
      4900   300.52732     -3239.4461     -3256.8104      17.364253      8787.7891      10112.159    
      5000   302.27481     -3239.9636     -3257.4289      17.465222      8782.7169      10112.159    
      5100   290.29857     -3240.3063     -3257.0795      16.773244      8568.9296      10112.159    
      5200   312.23958     -3239.8335     -3257.8744      18.04098       8431.5208      10112.159    
      5300   299.4927      -3238.9474     -3256.2518      17.304474      9039.4272      10112.159    
      5400   326.0683      -3237.6901     -3256.5301      18.839993      8512.7726      10112.159    
      5500   308.97554     -3238.6704     -3256.5228      17.852386      8926.9165      10112.159    
      5600   304.44472     -3239.7987     -3257.3893      17.590598      8877.4554      10112.159    
      5700   298.53617     -3240.345      -3257.5943      17.249206      8670.7193      10112.159    
      5800   298.57725     -3240.2285     -3257.4801      17.25158       8455.6134      10112.159    
      5900   293.64092     -3239.542      -3256.5084      16.966362      8729.4886      10112.159    
      6000   322.94553     -3238.2872     -3256.9467      18.659562      9010.5037      10112.159    
      6100   308.35883     -3237.8963     -3255.7131      17.816752      8838.5278      10112.159    
      6200   309.87283     -3238.4112     -3256.3154      17.90423       9194.0623      10112.159    
      6300   293.8267      -3239.9345     -3256.9116      16.977097      8801.976       10112.159    
      6400   305.04489     -3240.5142     -3258.1395      17.625276      8325.818       10112.159    
      6500   278.25602     -3240.9201     -3256.9975      16.077434      8946.7032      10112.159    
      6600   311.37411     -3239.5026     -3257.4936      17.990973      8973.5395      10112.159    
      6700   301.3853      -3239.0873     -3256.5011      17.413827      9194.7223      10112.159    
      6800   297.87878     -3239.2693     -3256.4805      17.211223      8532.1476      10112.159    
      6900   306.09793     -3240.4866     -3258.1727      17.686119      8346.1466      10112.159    
      7000   277.38977     -3241.9584     -3257.9858      16.027383      8393.9836      10112.159    
      7100   293.53334     -3240.9811     -3257.9413      16.960146      8267.7017      10112.159    
      7200   298.675       -3239.7592     -3257.0164      17.257228      8612.612       10112.159    
      7300   296.39823     -3239.2616     -3256.3873      17.125678      9056.0232      10112.159    
      7400   306.79697     -3239.428      -3257.1545      17.72651       8810.4071      10112.159    
      7500   293.4186      -3240.3469     -3257.3004      16.953517      8492.2929      10112.159    
      7600   283.37934     -3241.2729     -3257.6463      16.373456      8929.9072      10112.159    
      7700   273.46413     -3242.169      -3257.9695      15.800562      8392.6936      10112.159    
      7800   306.45721     -3240.854      -3258.5608      17.706879      8484.5548      10112.159    
      7900   285.89257     -3240.141      -3256.6597      16.518668      8981.3815      10112.159    
      8000   308.1489      -3239.6725     -3257.4771      17.804623      8939.9876      10112.159    
      8100   312.78317     -3239.48       -3257.5524      18.072388      8647.9269      10112.159    
      8200   302.5362      -3239.3877     -3256.8681      17.480325      9349.1747      10112.159    
      8300   276.10486     -3240.3938     -3256.347       15.953142      9228.1828      10112.159    
      8400   302.99464     -3240.8153     -3258.3221      17.506813      8303.1864      10112.159    
      8500   308.83281     -3240.9878     -3258.8319      17.844139      8534.828       10112.159    
      8600   287.90789     -3240.4226     -3257.0577      16.635112      8606.5631      10112.159    
      8700   304.12743     -3238.8124     -3256.3847      17.572266      9370.8768      10112.159    
      8800   306.42873     -3238.8702     -3256.5754      17.705233      8672.2804      10112.159    
      8900   305.72374     -3239.7144     -3257.3789      17.664499      8980.8268      10112.159    
      9000   282.98807     -3240.8118     -3257.1627      16.350849      8847.4148      10112.159    
      9100   314.5694      -3240.5106     -3258.6862      18.175595      8433.2895      10112.159    
      9200   287.85996     -3240.4409     -3257.0733      16.632343      8581.858       10112.159    
      9300   297.19015     -3239.839      -3257.0104      17.171434      8965.441       10112.159    
      9400   295.53395     -3239.535      -3256.6107      17.07574       8952.3258      10112.159    
      9500   313.88277     -3239.4436     -3257.5795      18.135922      8690.7448      10112.159    
      9600   306.18858     -3239.5886     -3257.2799      17.691357      8585.1407      10112.159    
      9700   284.37875     -3240.1137     -3256.5449      16.431201      9050.4283      10112.159    
      9800   300.43545     -3240.4394     -3257.7983      17.358945      8420.0354      10112.159    
      9900   283.95334     -3240.9282     -3257.3348      16.406621      8566.2582      10112.159    
     10000   302.58344     -3240.541      -3258.024       17.483055      8402.4452      10112.159    
     10100   298.73092     -3239.2664     -3256.5268      17.260459      8813.0286      10112.159    
     10200   320.51731     -3238.1092     -3256.6284      18.519261      8831.1736      10112.159    
     10300   300.01965     -3238.7924     -3256.1273      17.334921      9118.9113      10112.159    
     10400   307.60094     -3239.3478     -3257.1208      17.772962      9030.4235      10112.159    
     10500   286.28717     -3240.114      -3256.6555      16.541468      8702.3198      10112.159    
     10600   315.80988     -3240.1967     -3258.444       18.247269      8195.6607      10112.159    
     10700   277.55784     -3241.0528     -3257.0899      16.037094      8681.7807      10112.159    
     10800   288.50247     -3240.9917     -3257.6612      16.669467      8466.9386      10112.159    
     10900   292.86394     -3240.2787     -3257.2001      16.921469      8657.4865      10112.159    
     11000   308.92231     -3238.8976     -3256.7469      17.84931       8814.3581      10112.159    
     11100   330.44395     -3238.3425     -3257.4353      19.092815      8593.9626      10112.159    
     11200   293.71128     -3239.4895     -3256.4599      16.970428      9247.7041      10112.159    
     11300   292.66621     -3240.0624     -3256.9725      16.910044      8954.5944      10112.159    
     11400   294.69913     -3240.0361     -3257.0636      17.027505      8646.3656      10112.159    
     11500   316.11934     -3239.534      -3257.7991      18.26515       8871.3061      10112.159    
     11600   282.5526      -3240.0273     -3256.353       16.325687      8944.9358      10112.159    
     11700   281.77439     -3241.1844     -3257.4651      16.280723      8761.3647      10112.159    
     11800   292.66208     -3242.0803     -3258.9901      16.909806      8579.1659      10112.159    
     11900   276.8288      -3241.613      -3257.608       15.99497       8422.9241      10112.159    
     12000   307.6971      -3240.1325     -3257.911       17.778518      8640.6756      10112.159    
     12100   294.02391     -3239.5967     -3256.5852      16.988492      8771.5997      10112.159    
     12200   303.90935     -3239.0147     -3256.5744      17.559665      8879.2775      10112.159    
     12300   284.62493     -3239.5911     -3256.0365      16.445425      9144.258       10112.159    
     12400   297.04705     -3240.8766     -3258.0398      17.163166      8416.4722      10112.159    
     12500   295.39188     -3241.9243     -3258.9918      17.067532      8241.1946      10112.159    
     12600   285.47857     -3241.2657     -3257.7604      16.494748      8852.192       10112.159    
     12700   291.69468     -3240.2154     -3257.0693      16.85391       8627.2605      10112.159    
     12800   294.77071     -3239.7157     -3256.7473      17.031641      9001.916       10112.159    
     12900   306.97266     -3239.3903     -3257.1269      17.736661      8856.698       10112.159    
     13000   306.4201      -3239.7787     -3257.4835      17.704734      8850.6318      10112.159    
     13100   288.94303     -3240.9616     -3257.6565      16.694922      8422.5464      10112.159    
     13200   294.79372     -3241.1088     -3258.1418      17.03297       8818.728       10112.159    
     13300   287.36235     -3240.2092     -3256.8128      16.603591      9051.4758      10112.159    
     13400   311.09232     -3238.5475     -3256.5222      17.974692      8707.3066      10112.159    
     13500   322.40939     -3238.4716     -3257.1002      18.628584      9058.3519      10112.159    
     13600   304.87701     -3239.5563     -3257.1718      17.615575      9077.5066      10112.159    
     13700   289.06862     -3240.2256     -3256.9277      16.702178      9073.9333      10112.159    
     13800   295.66579     -3240.1841     -3257.2675      17.083358      8935.3744      10112.159    
     13900   311.69549     -3239.7813     -3257.7908      18.009543      8781.8542      10112.159    
     14000   299.26844     -3239.9193     -3257.2108      17.291516      8772.3105      10112.159    
     14100   301.91934     -3240.6241     -3258.0687      17.444684      8587.6686      10112.159    
     14200   265.78408     -3241.5289     -3256.8857      15.356814      8789.7805      10112.159    
     14300   295.3148      -3241.03       -3258.0931      17.063078      8522.3295      10112.159    
     14400   314.08613     -3239.5574     -3257.7051      18.147672      8817.0314      10112.159    
     14500   299.54697     -3239.3606     -3256.6682      17.30761       8895.1046      10112.159    
     14600   302.80472     -3239.2671     -3256.763       17.49584       8827.4266      10112.159    
     14700   299.75052     -3239.8436     -3257.163       17.319371      9114.4507      10112.159    
     14800   282.15097     -3241.4        -3257.7025      16.302481      8589.0653      10112.159    
     14900   301.10419     -3241.2669     -3258.6645      17.397585      8200.9684      10112.159    
     15000   293.31772     -3240.6605     -3257.6082      16.947688      8693.6735      10112.159    
     15100   296.04202     -3239.795      -3256.9001      17.105096      9041.0941      10112.159    
     15200   292.63902     -3239.6424     -3256.5508      16.908473      9101.414       10112.159    
     15300   301.86755     -3239.8873     -3257.329       17.441691      9075.7636      10112.159    
     15400   303.14667     -3240.4511     -3257.9667      17.515597      8487.1442      10112.159    
     15500   292.54811     -3240.8984     -3257.8016      16.90322       8710.5657      10112.159    
     15600   287.3228      -3241.0976     -3257.699       16.601306      8651.6302      10112.159    
     15700   304.35157     -3240.0069     -3257.5921      17.585216      8739.7963      10112.159    
     15800   304.50775     -3239.0751     -3256.6694      17.59424       8788.6612      10112.159    
     15900   309.57428     -3238.5281     -3256.4151      17.886981      9289.5419      10112.159    
     16000   290.82281     -3239.3292     -3256.1327      16.803534      9219.7374      10112.159    
     16100   297.06954     -3240.6629     -3257.8273      17.164466      8705.0538      10112.159    
     16200   301.7745      -3241.044      -3258.4803      17.436315      8509.3435      10112.159    
     16300   271.04458     -3241.1784     -3256.8392      15.660762      8778.8229      10112.159    
     16400   313.66566     -3239.2288     -3257.3522      18.123378      9132.273       10112.159    
     16500   300.80424     -3239.092      -3256.4723      17.380254      9140.2232      10112.159    
     16600   307.71807     -3239.5467     -3257.3264      17.77973       8662.2069      10112.159    
     16700   290.55061     -3240.6276     -3257.4154      16.787806      8977.6413      10112.159    
     16800   295.09505     -3240.8037     -3257.8541      17.050381      8842.327       10112.159    
     16900   298.406       -3239.8092     -3257.0509      17.241685      8845.6902      10112.159    
     17000   304.41568     -3238.7226     -3256.3115      17.58892       9054.4333      10112.159    
     17100   322.7124      -3238.6041     -3257.2502      18.646092      8927.5815      10112.159    
     17200   301.64596     -3239.7039     -3257.1328      17.428888      8730.2443      10112.159    
     17300   276.2119      -3241.0138     -3256.9732      15.959326      8900.4144      10112.159    
     17400   295.05993     -3240.7066     -3257.755       17.048352      8966.4607      10112.159    
     17500   298.99638     -3240.1758     -3257.4516      17.275797      8845.1496      10112.159    
     17600   297.41958     -3239.6496     -3256.8343      17.184691      8592.3948      10112.159    
     17700   310.72755     -3239.1513     -3257.1049      17.953616      9176.074       10112.159    
     17800   290.51908     -3239.8536     -3256.6396      16.785985      9296.1269      10112.159    
     17900   283.56486     -3241.3247     -3257.7089      16.384175      8571.4708      10112.159    
     18000   292.0056      -3241.2133     -3258.0852      16.871875      8544.8286      10112.159    
     18100   298.57593     -3239.9975     -3257.249       17.251503      8933.8965      10112.159    
     18200   310.19906     -3239.2344     -3257.1575      17.92308       8976.3248      10112.159    
     18300   296.27407     -3239.1269     -3256.2454      17.118504      9091.8983      10112.159    
     18400   307.61388     -3239.2297     -3257.0034      17.77371       9038.7033      10112.159    
     18500   300.57707     -3240.9758     -3258.3429      17.367128      8797.3244      10112.159    
     18600   278.33628     -3241.5613     -3257.6433      16.082071      8467.3507      10112.159    
     18700   298.67478     -3240.4083     -3257.6655      17.257215      8630.2592      10112.159    
     18800   304.49535     -3239.6584     -3257.252       17.593523      9001.0206      10112.159    
     18900   300.53452     -3239.7478     -3257.1124      17.36467       8963.3232      10112.159    
     19000   290.79182     -3240.1722     -3256.974       16.801744      8946.0154      10112.159    
     19100   300.42033     -3240.4422     -3257.8003      17.358072      8558.0913      10112.159    
     19200   288.72428     -3240.6056     -3257.2879      16.682282      8903.9876      10112.159    
     19300   312.87933     -3239.626      -3257.7039      18.077944      8891.3041      10112.159    
     19400   312.46518     -3238.8288     -3256.8828      18.054015      9006.9728      10112.159    
     19500   292.4414      -3238.7108     -3255.6079      16.897055      9339.6279      10112.159    
     19600   307.8189      -3239.9364     -3257.722       17.785556      8916.9169      10112.159    
     19700   289.74827     -3241.2855     -3258.0269      16.741448      8926.7189      10112.159    
     19800   297.8748      -3240.7233     -3257.9343      17.210993      8826.8348      10112.159    
     19900   293.04606     -3239.759      -3256.691       16.931992      8961.4356      10112.159    
     20000   301.50558     -3239.0177     -3256.4385      17.420777      9412.7806      10112.159    
     20100   324.75076     -3238.6844     -3257.4483      18.763867      9153.5512      10112.159    
     20200   306.40966     -3240.7238     -3258.4279      17.704131      8334.2135      10112.159    
     20300   270.35123     -3241.5473     -3257.168       15.620701      8983.3013      10112.159    
     20400   292.5517      -3240.4708     -3257.3743      16.903428      8818.6563      10112.159    
     20500   311.96919     -3239.4806     -3257.5059      18.025357      9050.2515      10112.159    
     20600   299.9317      -3239.0786     -3256.4084      17.329839      9381.0645      10112.159    
     20700   296.5286      -3238.9351     -3256.0683      17.13321       9047.4801      10112.159    
     20800   299.93826     -3240.5629     -3257.8931      17.330218      8704.8441      10112.159    
     20900   292.62179     -3241.422      -3258.3295      16.907478      8541.6152      10112.159    
     21000   293.81197     -3240.9933     -3257.9696      16.976246      8689.8488      10112.159    
     21100   299.52029     -3239.5477     -3256.8538      17.306068      9131.1266      10112.159    
     21200   303.70421     -3239.1924     -3256.7402      17.547812      9039.3196      10112.159    
     21300   308.44213     -3239.1628     -3256.9844      17.821566      9242.8566      10112.159    
     21400   305.19813     -3239.872      -3257.5061      17.63413       8942.9703      10112.159    
     21500   285.10498     -3240.8457     -3257.3188      16.473162      8936.2292      10112.159    
     21600   291.97069     -3240.6913     -3257.5611      16.869858      8745.0575      10112.159    
     21700   297.48439     -3240.2648     -3257.4532      17.188435      8625.3098      10112.159    
     21800   295.5491      -3240.0461     -3257.1227      17.076616      8839.7394      10112.159    
     21900   294.24448     -3239.8088     -3256.8101      17.001235      8944.9246      10112.159    
     22000   318.06785     -3238.2696     -3256.6473      18.377733      8878.6737      10112.159    
     22100   320.71664     -3237.4162     -3255.9469      18.530778      9531.2694      10112.159    
     22200   309.13205     -3238.2145     -3256.076       17.861429      9338.1313      10112.159    
     22300   297.2404      -3239.2894     -3256.4638      17.174338      9081.0692      10112.159    
     22400   303.88439     -3239.9969     -3257.5551      17.558223      8892.9419      10112.159    
     22500   303.14682     -3240.6276     -3258.1432      17.515606      8649.8476      10112.159    
     22600   287.29523     -3240.5626     -3257.1623      16.599713      8750.1423      10112.159    
     22700   294.89243     -3239.0978     -3256.1364      17.038674      9054.7595      10112.159    
     22800   316.90517     -3238.5422     -3256.8528      18.310554      9333.8003      10112.159    
     22900   300.03369     -3239.025      -3256.3607      17.335732      9215.8576      10112.159    
     23000   307.97444     -3239.5667     -3257.3613      17.794543      8695.0704      10112.159    
     23100   295.87407     -3240.414      -3257.5094      17.095392      9026.1122      10112.159    
     23200   283.19291     -3240.9685     -3257.3312      16.362684      8835.6179      10112.159    
     23300   301.83052     -3240.2927     -3257.7322      17.439551      8787.9972      10112.159    
     23400   301.97801     -3238.9854     -3256.4334      17.448074      9039.3848      10112.159    
     23500   317.74502     -3238.5874     -3256.9464      18.35908       9249.9261      10112.159    
     23600   292.14421     -3239.82       -3256.6999      16.879884      8770.0424      10112.159    
     23700   294.32587     -3241.1509     -3258.1569      17.005938      8644.0651      10112.159    
     23800   299.60698     -3240.8772     -3258.1882      17.311077      8425.6417      10112.159    
     23900   297.02184     -3239.9882     -3257.1499      17.16171       8778.4136      10112.159    
     24000   304.64501     -3239.0841     -3256.6863      17.602171      9017.7004      10112.159    
     24100   296.40894     -3239.3438     -3256.4701      17.126297      9130.7366      10112.159    
     24200   302.63264     -3239.7773     -3257.2632      17.485898      8638.0102      10112.159    
     24300   301.15964     -3240.0588     -3257.4595      17.400789      8974.0996      10112.159    
     24400   298.0612      -3240.0109     -3257.2327      17.221763      8679.5486      10112.159    
     24500   299.32994     -3239.6141     -3256.9092      17.29507       8957.9538      10112.159    
     24600   313.73974     -3239.0723     -3257.2         18.127658      9019.9675      10112.159    
     24700   289.35206     -3239.8196     -3256.5381      16.718555      8980.5999      10112.159    
     24800   297.53083     -3240.9557     -3258.1468      17.191119      8296.8402      10112.159    
     24900   280.02363     -3241.645      -3257.8246      16.179565      8436.2246      10112.159    
     25000   305.02745     -3240.2257     -3257.85        17.624268      8736.4037      10112.159    
     25100   305.71021     -3239.4628     -3257.1265      17.663718      9251.4803      10112.159    
     25200   297.89563     -3239.4017     -3256.6139      17.212196      9073.2468      10112.159    
     25300   303.19345     -3239.5491     -3257.0674      17.518301      8947.5085      10112.159    
     25400   287.54467     -3240.7309     -3257.345       16.614125      8847.4887      10112.159    
     25500   304.38407     -3241.3671     -3258.9542      17.587094      8233.805       10112.159    
     25600   270.6031      -3242.1894     -3257.8246      15.635253      8955.4229      10112.159    
     25700   306.16645     -3240.8526     -3258.5427      17.690078      8816.5839      10112.159    
     25800   295.28723     -3239.6216     -3256.6831      17.061485      9076.0616      10112.159    
     25900   298.41963     -3239.0916     -3256.3341      17.242473      8947.0051      10112.159    
     26000   313.9905      -3239.2328     -3257.3749      18.142147      9331.315       10112.159    
     26100   279.12056     -3240.7009     -3256.8283      16.127387      9008.4593      10112.159    
     26200   304.24171     -3240.7135     -3258.2923      17.578869      8543.3424      10112.159    
     26300   297.73948     -3240.5627     -3257.7658      17.203174      8968.2412      10112.159    
     26400   297.00343     -3240.1466     -3257.3073      17.160646      8894.4898      10112.159    
     26500   312.12461     -3239.4628     -3257.4972      18.034337      9079.1308      10112.159    
     26600   296.37763     -3239.4182     -3256.5427      17.124488      9033.6138      10112.159    
     26700   305.41448     -3239.8737     -3257.5204      17.64663       8923.8477      10112.159    
     26800   303.37792     -3240.5238     -3258.0528      17.528959      8856.1266      10112.159    
     26900   289.24431     -3241.0147     -3257.727       16.712329      8741.2271      10112.159    
     27000   295.95979     -3240.6297     -3257.7301      17.100345      8733.773       10112.159    
     27100   290.03938     -3239.2945     -3256.0528      16.758268      9309.9154      10112.159    
     27200   323.55926     -3238.816      -3257.511       18.695023      9011.8866      10112.159    
     27300   308.10877     -3239.2755     -3257.0778      17.802305      9123.0369      10112.159    
     27400   300.75786     -3239.6868     -3257.0643      17.377574      9168.877       10112.159    
     27500   285.87117     -3240.3767     -3256.8942      16.517432      9014.8501      10112.159    
     27600   312.70375     -3240.2007     -3258.2685      18.067799      8853.1496      10112.159    
     27700   294.72548     -3240.0371     -3257.0661      17.029028      8889.4276      10112.159    
     27800   299.32761     -3239.9818     -3257.2768      17.294935      8928.2496      10112.159    
     27900   291.52382     -3240.2292     -3257.0732      16.844038      8900.7129      10112.159    
     28000   309.89823     -3239.7447     -3257.6504      17.905698      8881.8428      10112.159    
     28100   320.48805     -3238.4057     -3256.9233      18.51757       9290.4794      10112.159    
     28200   290.38115     -3238.033      -3254.811       16.778015      9648.6967      10112.159    
     28300   312.05317     -3239.2981     -3257.3283      18.030209      8956.9786      10112.159    
     28400   306.65421     -3240.396      -3258.1142      17.718261      8817.6321      10112.159    
     28500   290.96155     -3240.6098     -3257.4213      16.81155       8859.612       10112.159    
     28600   291.96932     -3240.1873     -3257.0571      16.869779      9056.8096      10112.159    
     28700   320.62791     -3238.7724     -3257.298       18.525651      9294.0294      10112.159    
     28800   303.21922     -3238.7164     -3256.2362      17.51979       9391.0712      10112.159    
     28900   290.92411     -3239.7127     -3256.5221      16.809387      8989.4126      10112.159    
     29000   303.35629     -3240.3588     -3257.8865      17.527709      8919.2808      10112.159    
     29100   292.98877     -3240.5307     -3257.4594      16.928681      8918.3341      10112.159    
     29200   306.24701     -3239.8305     -3257.5253      17.694733      8846.3567      10112.159    
     29300   307.54787     -3239.4232     -3257.1931      17.769896      9194.8864      10112.159    
     29400   284.72336     -3240.0938     -3256.5449      16.451112      8914.5926      10112.159    
     29500   301.55973     -3240.8146     -3258.2385      17.423906      8852.6677      10112.159    
     29600   280.00805     -3241.8363     -3258.015       16.178665      8619.6801      10112.159    
     29700   294.83245     -3240.8462     -3257.8814      17.035208      8826.6193      10112.159    
     29800   302.22346     -3239.545      -3257.0073      17.462255      8847.4797      10112.159    
     29900   304.25143     -3239.0441     -3256.6235      17.57943       8709.5448      10112.159    
     30000   309.79018     -3239.3696     -3257.2691      17.899455      9095.2728      10112.159    
     30100   292.20083     -3240.5204     -3257.4036      16.883155      9038.5123      10112.159    
     30200   298.56832     -3240.3318     -3257.5829      17.251064      8895.6576      10112.159    
     30300   283.7059      -3240.2834     -3256.6757      16.392324      8827.9061      10112.159    
     30400   307.36137     -3239.8178     -3257.5769      17.75912       8869.8208      10112.159    
     30500   301.83412     -3239.5185     -3256.9582      17.439759      9054.4752      10112.159    
     30600   325.72578     -3237.8924     -3256.7126      18.820203      9645.3086      10112.159    
     30700   301.43454     -3238.1851     -3255.6017      17.416672      9551.1407      10112.159    
     30800   294.7828      -3239.4776     -3256.51        17.032339      9274.4969      10112.159    
     30900   309.36455     -3240.3182     -3258.193       17.874862      8589.7976      10112.159    
     31000   283.44305     -3240.4268     -3256.8039      16.377136      8806.7984      10112.159    
     31100   311.52903     -3239.8471     -3257.847       17.999925      9004.5748      10112.159    
     31200   284.55085     -3239.9592     -3256.4003      16.441145      9266.0951      10112.159    
     31300   319.89642     -3238.9209     -3257.4042      18.483386      9407.8563      10112.159    
     31400   309.87461     -3238.3164     -3256.2207      17.904333      9266.4743      10112.159    
     31500   319.57677     -3238.1315     -3256.5965      18.464917      9323.46        10112.159    
     31600   303.70687     -3239.6277     -3257.1756      17.547966      8898.726       10112.159    
     31700   288.87743     -3240.4199     -3257.111       16.691131      9009.0039      10112.159    
     31800   298.83568     -3240.5371     -3257.8036      17.266512      8823.8383      10112.159    
     31900   290.96745     -3240.4963     -3257.3082      16.811891      8757.7275      10112.159    
     32000   311.6978      -3238.7568     -3256.7665      18.009676      9218.6358      10112.159    
     32100   314.68834     -3238.3065     -3256.489       18.182467      9418.3756      10112.159    
     32200   306.68046     -3239.2354     -3256.9552      17.719777      9227.2463      10112.159    
     32300   288.43293     -3240.3507     -3257.0162      16.665449      9115.8477      10112.159    
     32400   292.48914     -3240.7454     -3257.6452      16.899813      8878.6207      10112.159    
     32500   301.17143     -3240.452      -3257.8535      17.40147       8863.2262      10112.159    
     32600   302.77544     -3239.8617     -3257.3558      17.494149      9145.2282      10112.159    
     32700   300.75876     -3239.4355     -3256.8131      17.377626      9300.94        10112.159    
     32800   299.98839     -3239.224      -3256.5571      17.333115      9414.8181      10112.159    
     32900   303.03614     -3238.9937     -3256.5029      17.509211      9454.9687      10112.159    
     33000   310.61544     -3239.4962     -3257.4433      17.947138      8847.1005      10112.159    
     33100   304.49821     -3240.5212     -3258.1149      17.593689      8675.9903      10112.159    
     33200   280.0564      -3241.1403     -3257.3218      16.181459      8982.6287      10112.159    
     33300   292.2624      -3240.2251     -3257.1118      16.886712      9161.9339      10112.159    
     33400   305.87544     -3238.8752     -3256.5484      17.673264      9191.0252      10112.159    
     33500   319.06355     -3238.8278     -3257.2631      18.435264      8884.1748      10112.159    
     33600   304.48859     -3239.6017     -3257.1948      17.593133      9301.2157      10112.159    
     33700   285.14633     -3240.3256     -3256.8011      16.475551      9185.5287      10112.159    
     33800   292.62483     -3240.2575     -3257.1651      16.907653      9068.0269      10112.159    
     33900   316.76158     -3239.8454     -3258.1476      18.302258      8661.47        10112.159    
     34000   279.14651     -3240.2048     -3256.3337      16.128886      9112.9237      10112.159    
     34100   321.9868      -3239.6573     -3258.2615      18.604167      8990.7789      10112.159    
     34200   286.27965     -3240.0295     -3256.5706      16.541034      8869.4226      10112.159    
     34300   309.10966     -3239.1215     -3256.9816      17.860135      9126.7475      10112.159    
     34400   305.20668     -3238.4626     -3256.0972      17.634624      9105.9741      10112.159    
     34500   317.95506     -3238.5429     -3256.9141      18.371216      9030.6625      10112.159    
     34600   290.63054     -3240.1906     -3256.983       16.792425      9339.4365      10112.159    
     34700   291.71144     -3240.4889     -3257.3438      16.854878      8796.0519      10112.159    
     34800   299.49132     -3240.2087     -3257.5131      17.304394      8880.9352      10112.159    
     34900   315.36825     -3239.1554     -3257.3771      18.221752      9005.2013      10112.159    
     35000   307.45113     -3238.0082     -3255.7725      17.764306      9705.8205      10112.159    
     35100   312.70288     -3238.5647     -3256.6324      18.067749      9048.4969      10112.159    
     35200   301.03381     -3240.0126     -3257.4061      17.393518      9103.9593      10112.159    
     35300   294.72419     -3240.4347     -3257.4636      17.028953      8649.2953      10112.159    
     35400   283.81213     -3240.4731     -3256.8716      16.398462      8917.0239      10112.159    
     35500   314.48669     -3239.4088     -3257.5796      18.170816      8936.3769      10112.159    
     35600   313.68963     -3238.8362     -3256.961       18.124763      9253.1387      10112.159    
     35700   301.20856     -3238.915      -3256.3186      17.403615      9336.7907      10112.159    
     35800   286.75334     -3240.2725     -3256.8409      16.568403      9291.4169      10112.159    
     35900   298.91111     -3240.8617     -3258.1326      17.27087       8713.6108      10112.159    
     36000   285.54479     -3241.1389     -3257.6374      16.498573      9008.2597      10112.159    
     36100   301.82757     -3239.9309     -3257.3703      17.439381      8760.8294      10112.159    
     36200   323.44399     -3238.4389     -3257.1273      18.688362      9059.822       10112.159    
     36300   305.77818     -3238.7921     -3256.4598      17.667644      9245.0755      10112.159    
     36400   286.71133     -3239.7694     -3256.3354      16.565976      9275.4426      10112.159    
     36500   301.1418      -3240.2733     -3257.673       17.399758      8851.4321      10112.159    
     36600   307.65331     -3240.534      -3258.31        17.775988      8618.6452      10112.159    
     36700   293.39431     -3240.4129     -3257.365       16.952114      8935.8201      10112.159    
     36800   298.46509     -3240.2633     -3257.5084      17.245099      8884.9564      10112.159    
     36900   287.97431     -3240.0327     -3256.6717      16.63895       9420.7898      10112.159    
     37000   318.8455      -3238.9016     -3257.3243      18.422665      9109.1389      10112.159    
     37100   307.9817      -3239.1123     -3256.9073      17.794962      9166.6411      10112.159    
     37200   289.36558     -3240.668      -3257.3873      16.719336      8908.7033      10112.159    
     37300   287.60378     -3241.5161     -3258.1336      16.617541      8738.3019      10112.159    
     37400   267.53862     -3241.1774     -3256.6355      15.45819       8881.3371      10112.159    
     37500   301.02215     -3240.3816     -3257.7744      17.392845      8399.8607      10112.159    
     37600   300.4574      -3239.8373     -3257.1975      17.360214      9067.3974      10112.159    
     37700   313.64955     -3239.1884     -3257.3108      18.122447      8890.3531      10112.159    
     37800   294.60856     -3239.8594     -3256.8816      17.022272      9220.1025      10112.159    
     37900   296.26179     -3240.9837     -3258.1015      17.117795      8816.533       10112.159    
     38000   280.06622     -3241.8806     -3258.0626      16.182026      8876.5738      10112.159    
     38100   286.89139     -3241.3709     -3257.9472      16.576379      8944.3452      10112.159    
     38200   318.84827     -3239.6434     -3258.0662      18.422825      9186.4165      10112.159    
     38300   288.38788     -3239.6857     -3256.3486      16.662846      9263.6171      10112.159    
     38400   291.28148     -3239.428      -3256.2581      16.830036      9436.9375      10112.159    
     38500   312.26767     -3239.1826     -3257.2252      18.042602      9245.3338      10112.159    
     38600   317.50356     -3239.3906     -3257.7357      18.345129      8646.1176      10112.159    
     38700   298.66598     -3240.7387     -3257.9954      17.256707      9045.9355      10112.159    
     38800   270.10176     -3241.3963     -3257.0026      15.606287      8676.5866      10112.159    
     38900   298.91244     -3240.4056     -3257.6765      17.270947      9032.7205      10112.159    
     39000   306.25868     -3239.6581     -3257.3535      17.695407      8718.4879      10112.159    
     39100   314.00026     -3239.3122     -3257.4549      18.14271       9192.3959      10112.159    
     39200   301.55675     -3239.6639     -3257.0876      17.423733      9203.271       10112.159    
     39300   295.57581     -3239.9195     -3256.9976      17.078159      8772.9588      10112.159    
     39400   295.01453     -3240.3268     -3257.3725      17.045728      9058.0526      10112.159    
     39500   292.22005     -3241.7028     -3258.587       16.884265      8551.7758      10112.159    
     39600   284.74436     -3242.0439     -3258.4962      16.452325      8664.3299      10112.159    
     39700   301.134       -3240.3126     -3257.7119      17.399307      8874.69        10112.159    
     39800   295.46911     -3239.6839     -3256.7559      17.071994      9294.1044      10112.159    
     39900   300.01562     -3239.3443     -3256.679       17.334688      9275.6753      10112.159    
     40000   301.40269     -3239.2429     -3256.6577      17.414832      8847.052       10112.159    
     40100   325.59895     -3239.4939     -3258.3068      18.812874      8786.8139      10112.159    
     40200   274.6888      -3241          -3256.8713      15.871323      8962.1993      10112.159    
     40300   298.95122     -3240.7258     -3257.999       17.273187      8813.0197      10112.159    
     40400   298.41559     -3239.8258     -3257.0681      17.24224       8784.2638      10112.159    
     40500   312.52842     -3238.5434     -3256.6011      18.057668      8939.3763      10112.159    
     40600   318.48711     -3238.799      -3257.2009      18.401957      8931.1649      10112.159    
     40700   302.68067     -3239.7626     -3257.2513      17.488672      9314.0056      10112.159    
     40800   280.83903     -3240.6689     -3256.8956      16.226678      8760.6523      10112.159    
     40900   283.80595     -3240.3373     -3256.7354      16.398105      9063.8465      10112.159    
     41000   317.06325     -3239.5509     -3257.8705      18.319688      8930.4346      10112.159    
     41100   293.35695     -3239.9036     -3256.8535      16.949955      8870.5285      10112.159    
     41200   318.00979     -3239.4344     -3257.8088      18.374379      9123.2775      10112.159    
     41300   290.69107     -3239.9607     -3256.7566      16.795922      8945.1134      10112.159    
     41400   281.71681     -3240.8767     -3257.1541      16.277396      8915.2507      10112.159    
     41500   282.7795      -3242.1835     -3258.5223      16.338798      8331.044       10112.159    
     41600   290.678       -3242.2834     -3259.0785      16.795167      8255.6394      10112.159    
     41700   288.00752     -3240.6709     -3257.3117      16.640868      8723.5548      10112.159    
     41800   300.08347     -3239.9205     -3257.2591      17.338609      9030.6214      10112.159    
     41900   299.27145     -3239.6952     -3256.9869      17.29169       9225.1476      10112.159    
     42000   287.28299     -3240.1463     -3256.7453      16.599006      9093.9747      10112.159    
     42100   302.30767     -3240.1844     -3257.6515      17.467121      8857.908       10112.159    
     42200   307.54183     -3239.248      -3257.0176      17.769547      8958.101       10112.159    
     42300   301.09907     -3238.2849     -3255.6822      17.397289      9583.0215      10112.159    
     42400   333.96861     -3237.4867     -3256.7831      19.296467      9224.9231      10112.159    
     42500   304.23689     -3239.4702     -3257.0487      17.57859       8775.3009      10112.159    
     42600   308.79988     -3240.0682     -3257.9104      17.842236      8659.0796      10112.159    
     42700   276.34507     -3240.6047     -3256.5717      15.96702       8836.6676      10112.159    
     42800   315.43895     -3239.5397     -3257.7655      18.225837      8671.1887      10112.159    
     42900   304.42423     -3239.1149     -3256.7043      17.589414      8966.6727      10112.159    
     43000   284.88417     -3239.6573     -3256.1177      16.460404      9236.4956      10112.159    
     43100   300.90433     -3241.3455     -3258.7315      17.386037      8620.786       10112.159    
     43200   282.56006     -3241.8786     -3258.2047      16.326118      8433.3353      10112.159    
     43300   288.21545     -3240.7482     -3257.4011      16.652883      8524.2495      10112.159    
     43400   296.78501     -3239.6128     -3256.7608      17.148025      9139.2294      10112.159    
     43500   318.97145     -3239.1455     -3257.5755      18.429942      9136.4525      10112.159    
     43600   298.99121     -3239.7941     -3257.0696      17.275498      8943.6108      10112.159    
     43700   285.96102     -3240.9863     -3257.5089      16.522623      9138.0443      10112.159    
     43800   282.37989     -3241.6534     -3257.9691      16.315708      8598.0865      10112.159    
     43900   304.52778     -3240.2655     -3257.8609      17.595397      8783.5418      10112.159    
     44000   323.9713      -3238.7039     -3257.4227      18.71883       9179.2353      10112.159    
     44100   302.77863     -3239.1008     -3256.5951      17.494332      9067.9236      10112.159    
     44200   286.06545     -3240.1525     -3256.6812      16.528657      8959.0606      10112.159    
     44300   288.64745     -3241.0534     -3257.7312      16.677843      8913.2627      10112.159    
     44400   310.99891     -3240.7574     -3258.7267      17.969295      8190.019       10112.159    
     44500   314.71452     -3239.3667     -3257.5507      18.18398       8738.9175      10112.159    
     44600   294.49872     -3239.1219     -3256.1379      17.015926      9382.5597      10112.159    
     44700   289.54333     -3239.2868     -3256.0164      16.729606      9184.3146      10112.159    
     44800   319.10739     -3239.6134     -3258.0512      18.437797      8868.7233      10112.159    
     44900   300.03698     -3241.0004     -3258.3363      17.335922      8467.4774      10112.159    
     45000   283.15464     -3241.0161     -3257.3766      16.360472      9068.7634      10112.159    
     45100   288.74417     -3240.2668     -3256.9502      16.683432      9018.4423      10112.159    
     45200   303.09189     -3239.807      -3257.3194      17.512433      9012.3609      10112.159    
     45300   306.51956     -3239.6215     -3257.332       17.710481      9011.1552      10112.159    
     45400   296.54994     -3239.7047     -3256.8392      17.134443      9169.8208      10112.159    
     45500   305.43835     -3240.0301     -3257.6781      17.648009      8704.169       10112.159    
     45600   271.31221     -3241.116      -3256.7922      15.676226      8768.9814      10112.159    
     45700   298.76461     -3240.672      -3257.9344      17.262405      8532.5493      10112.159    
     45800   303.6192      -3239.3864     -3256.9293      17.5429        9221.7385      10112.159    
     45900   308.38314     -3238.9341     -3256.7522      17.818157      8925.1252      10112.159    
     46000   312.22507     -3239.2459     -3257.2861      18.040141      9108.6872      10112.159    
     46100   301.13593     -3240.0932     -3257.4926      17.399419      8794.8495      10112.159    
     46200   292.61238     -3240.2936     -3257.2005      16.906934      9028.8824      10112.159    
     46300   297.21558     -3240.3278     -3257.5007      17.172904      8727.5767      10112.159    
     46400   302.74843     -3239.9088     -3257.4014      17.492588      8773.2614      10112.159    
     46500   295.68178     -3239.6247     -3256.709       17.084282      9447.7927      10112.159    
     46600   301.08032     -3239.6526     -3257.0489      17.396206      9113.2035      10112.159    
     46700   294.90354     -3239.7739     -3256.8132      17.039316      8972.3642      10112.159    
     46800   301.60931     -3240.0346     -3257.4614      17.42677       9294.9166      10112.159    
     46900   296.33844     -3240.4013     -3257.5236      17.122223      8794.4112      10112.159    
     47000   304.39934     -3240.5599     -3258.1479      17.587976      8912.4053      10112.159    
     47100   302.26835     -3239.6775     -3257.1423      17.464849      9275.1828      10112.159    
     47200   312.79031     -3238.5314     -3256.6042      18.0728        9132.6854      10112.159    
     47300   313.40596     -3238.3844     -3256.4927      18.108372      8971.3127      10112.159    
     47400   295.88553     -3239.9059     -3257.002       17.096054      9065.3546      10112.159    
     47500   294.98505     -3240.9058     -3257.9498      17.044025      8544.5299      10112.159    
     47600   292.84319     -3240.848      -3257.7683      16.92027       8872.9305      10112.159    
     47700   294.76126     -3239.7675     -3256.7986      17.031095      9396.0581      10112.159    
     47800   325.66944     -3238.3766     -3257.1935      18.816947      9271.3105      10112.159    
     47900   302.7107      -3238.672      -3256.1624      17.490408      9396.5275      10112.159    
     48000   306.47055     -3239.459      -3257.1667      17.707649      9254.0783      10112.159    
     48100   297.16331     -3240.1763     -3257.3462      17.169883      8920.9893      10112.159    
     48200   313.90543     -3239.9759     -3258.1131      18.137231      8791.6595      10112.159    
     48300   273.57715     -3240.4055     -3256.2126      15.807092      9158.5353      10112.159    
     48400   317.58641     -3239.0706     -3257.4205      18.349915      9079.3137      10112.159    
     48500   307.1714      -3238.0422     -3255.7904      17.748144      9555.8064      10112.159    
     48600   323.02609     -3238.3573     -3257.0215      18.664216      9407.0922      10112.159    
     48700   285.03207     -3240.2109     -3256.6799      16.468949      8959.2472      10112.159    
     48800   310.1869      -3240.2294     -3258.1518      17.922377      9085.9556      10112.159    
     48900   290.33449     -3240.6059     -3257.3812      16.775319      9011.24        10112.159    
     49000   304.57521     -3240.1687     -3257.7668      17.598138      8713.0663      10112.159    
     49100   310.94502     -3238.8551     -3256.8213      17.966181      9131.604       10112.159    
     49200   302.05039     -3238.1573     -3255.6095      17.452256      9661.4644      10112.159    
     49300   291.2082      -3239.3956     -3256.2214      16.825802      9402.6089      10112.159    
     49400   313.36963     -3240.1133     -3258.2196      18.106273      8745.6316      10112.159    
     49500   289.11664     -3240.628      -3257.333       16.704953      9216.5776      10112.159    
     49600   320.00619     -3240.2097     -3258.6994      18.489729      8306.8041      10112.159    
     49700   266.4485      -3240.1991     -3255.5943      15.395204      9349.9688      10112.159    
     49800   318.76573     -3238.6125     -3257.0306      18.418056      9500.4727      10112.159    
     49900   314.81498     -3238.8823     -3257.0721      18.189785      9003.5689      10112.159    
     50000   290.07521     -3239.7376     -3256.4979      16.760338      9258.9707      10112.159    
     50100   305.77541     -3239.9368     -3257.6043      17.667484      9306.6315      10112.159    
     50200   301.28964     -3240.1684     -3257.5767      17.4083        8990.2373      10112.159    
     50300   291.30904     -3240.0266     -3256.8582      16.831628      8970.6336      10112.159    
     50400   305.46608     -3239.5721     -3257.2217      17.649612      9112.2622      10112.159    
     50500   294.34603     -3239.9313     -3256.9384      17.007103      9248.5963      10112.159    
     50600   296.83885     -3241.1694     -3258.3205      17.151136      8605.8803      10112.159    
     50700   282.32257     -3241.4759     -3257.7883      16.312396      8965.1709      10112.159    
     50800   296.55433     -3240.2622     -3257.3969      17.134697      9032.7228      10112.159    
     50900   298.82843     -3239.7317     -3256.9978      17.266093      8702.8653      10112.159    
     51000   312.25281     -3239.3252     -3257.3669      18.041744      8900.013       10112.159    
     51100   299.01127     -3239.6765     -3256.9532      17.276657      9101.5667      10112.159    
     51200   296.32518     -3239.8814     -3257.0029      17.121457      9065.7747      10112.159    
     51300   294.79356     -3239.7538     -3256.7867      17.032961      9392.1942      10112.159    
     51400   298.10405     -3239.8159     -3257.0401      17.224239      8890.1597      10112.159    
     51500   311.08675     -3240.0685     -3258.0429      17.97437       8812.7136      10112.159    
     51600   292.3075      -3240.7263     -3257.6157      16.889318      8767.9405      10112.159    
     51700   278.52758     -3241.5055     -3257.5986      16.093124      8888.8949      10112.159    
     51800   280.13783     -3241.2372     -3257.4234      16.186163      8737.298       10112.159    
     51900   307.73149     -3239.5708     -3257.3513      17.780506      8774.3737      10112.159    
     52000   320.60329     -3238.838      -3257.3623      18.524229      8937.7225      10112.159    
     52100   301.09764     -3239.3136     -3256.7108      17.397206      8871.2091      10112.159    
     52200   286.37852     -3240.4067     -3256.9534      16.546746      9037.3771      10112.159    
     52300   299.92299     -3240.6715     -3258.0008      17.329336      8802.2985      10112.159    
     52400   298.56081     -3240.3426     -3257.5933      17.25063       9128.0415      10112.159    
     52500   292.52919     -3239.5764     -3256.4785      16.902127      8942.0348      10112.159    
     52600   329.6308      -3236.977      -3256.0228      19.045832      9174.6335      10112.159    
     52700   314.71256     -3237.9181     -3256.1019      18.183866      9387.8793      10112.159    
     52800   294.82607     -3239.5135     -3256.5484      17.03484       8682.2201      10112.159    
     52900   303.76039     -3240.5898     -3258.1409      17.551058      8567.006       10112.159    
     53000   293.95437     -3241.0466     -3258.0311      16.984473      8640.056       10112.159    
     53100   295.64258     -3240.24       -3257.322       17.082017      8874.05        10112.159    
     53200   312.85447     -3238.974      -3257.0505      18.076508      8905.346       10112.159    
     53300   303.81567     -3238.7642     -3256.3184      17.554252      9507.4287      10112.159    
     53400   297.37613     -3239.2882     -3256.4704      17.18218       9065.6281      10112.159    
     53500   307.52105     -3239.8318     -3257.6002      17.768347      8445.5696      10112.159    
     53600   309.13211     -3240.1616     -3258.0231      17.861432      8684.4348      10112.159    
     53700   280.08886     -3240.7467     -3256.9301      16.183334      9026.0091      10112.159    
     53800   282.50878     -3241.1103     -3257.4335      16.323155      8654.918       10112.159    
     53900   302.15846     -3239.9329     -3257.3914      17.4585        8948.7373      10112.159    
     54000   301.79085     -3238.9452     -3256.3825      17.43726       9071.0096      10112.159    
     54100   325.12168     -3238.402      -3257.1873      18.785298      9167.8341      10112.159    
     54200   285.75108     -3240.1135     -3256.624       16.510493      8882.49        10112.159    
     54300   293.35453     -3240.4099     -3257.3598      16.949815      8659.3544      10112.159    
     54400   294.67503     -3240.2501     -3257.2762      17.026112      8837.6435      10112.159    
     54500   297.7666      -3240.0074     -3257.2121      17.204741      8796.0296      10112.159    
     54600   319.85577     -3239.1535     -3257.6346      18.481038      8835.0645      10112.159    
     54700   302.28223     -3238.698      -3256.1636      17.465651      9300.8883      10112.159    
     54800   314.5259      -3238.1366     -3256.3097      18.173082      9065.3108      10112.159    
     54900   297.94932     -3239.2341     -3256.4494      17.215298      9150.7349      10112.159    
     55000   308.77735     -3240.2699     -3258.1108      17.840935      8805.4555      10112.159    
     55100   297.15872     -3240.7015     -3257.8711      17.169618      8852.4854      10112.159    
     55200   283.37427     -3240.7887     -3257.1619      16.373163      8788.1086      10112.159    
     55300   305.50613     -3239.4332     -3257.0852      17.651926      8941.3282      10112.159    
     55400   323.04509     -3238.1446     -3256.81        18.665314      9096.9076      10112.159    
     55500   306.76674     -3238.7145     -3256.4393      17.724763      9082.3254      10112.159    
     55600   301.51393     -3239.7083     -3257.1295      17.421259      8992.2221      10112.159    
     55700   300.09762     -3240.6017     -3257.9411      17.339426      8695.2672      10112.159    
     55800   293.10595     -3240.7945     -3257.73        16.935452      8645.65        10112.159    
     55900   309.07534     -3240.373      -3258.2311      17.858152      8609.7713      10112.159    
     56000   289.98717     -3239.7268     -3256.482       16.755251      9265.6069      10112.159    
     56100   302.5343      -3238.9984     -3256.4786      17.480216      9128.1973      10112.159    
     56200   316.36012     -3239.0772     -3257.3563      18.279062      9061.5311      10112.159    
     56300   312.15252     -3239.6609     -3257.6969      18.035949      9190.2681      10112.159    
     56400   292.69741     -3240.1142     -3257.026       16.911847      8886.2519      10112.159    
     56500   298.10993     -3240.113      -3257.3375      17.224579      8767.5328      10112.159    
     56600   288.22157     -3240.0305     -3256.6838      16.653236      9133.2482      10112.159    
     56700   310.72513     -3238.833      -3256.7865      17.953476      8976.5225      10112.159    
     56800   335.38105     -3238.0554     -3257.4334      19.378077      9051.204       10112.159    
     56900   284.26967     -3239.89       -3256.3149      16.424898      8979.2598      10112.159    
     57000   302.28432     -3240.4454     -3257.9112      17.465772      8980.7028      10112.159    
     57100   285.61848     -3240.7037     -3257.2065      16.502832      8429.1814      10112.159    
     57200   315.45405     -3239.4653     -3257.692       18.226709      8743.7305      10112.159    
     57300   298.78768     -3239.0712     -3256.335       17.263738      9494.9251      10112.159    
     57400   307.25928     -3239.3832     -3257.1364      17.753222      8688.3237      10112.159    
     57500   298.55335     -3240.0486     -3257.2987      17.250199      8770.6256      10112.159    
     57600   305.90041     -3239.9689     -3257.6436      17.674707      8619.281       10112.159    
     57700   299.53012     -3239.9445     -3257.2511      17.306636      8847.9101      10112.159    
     57800   293.51956     -3239.6729     -3256.6323      16.95935       9348.4428      10112.159    
     57900   334.39232     -3238.0461     -3257.367       19.320949      8871.5377      10112.159    
     58000   302.72162     -3238.4042     -3255.8952      17.491039      9205.7983      10112.159    
     58100   301.49272     -3240.1862     -3257.6063      17.420034      8723.7854      10112.159    
     58200   291.1385      -3240.6561     -3257.4779      16.821774      8919.0491      10112.159    
     58300   298.09653     -3240.1795     -3257.4033      17.223804      8877.4364      10112.159    
     58400   306.36428     -3239.4522     -3257.1537      17.701509      8942.481       10112.159    
     58500   305.08928     -3238.6595     -3256.2874      17.627841      9295.778       10112.159    
     58600   322.124       -3237.5991     -3256.2112      18.612094      9412.5194      10112.159    
     58700   302.96977     -3239.1676     -3256.673       17.505377      9060.5618      10112.159    
     58800   294.92104     -3240.264      -3257.3043      17.040327      8916.7751      10112.159    
     58900   317.23207     -3240.107      -3258.4364      18.329442      8742.3038      10112.159    
     59000   270.45865     -3240.2747     -3255.9016      15.626907      9135.7618      10112.159    
     59100   312.62252     -3239.1391     -3257.2022      18.063106      8949.0166      10112.159    
     59200   308.59083     -3239.3326     -3257.1628      17.830158      8733.5938      10112.159    
     59300   301.84922     -3240.681      -3258.1216      17.440632      8697.9252      10112.159    
     59400   281.50676     -3241.6527     -3257.9179      16.265259      8538.9821      10112.159    
     59500   280.27555     -3241.0764     -3257.2706      16.194121      8825.0558      10112.159    
     59600   299.64893     -3239.7012     -3257.0147      17.313501      8935.1987      10112.159    
     59700   322.52112     -3239.1244     -3257.7595      18.63504       8878.2843      10112.159    
     59800   303.58519     -3239.6648     -3257.2058      17.540935      9209.2278      10112.159    
     59900   287.42655     -3240.5381     -3257.1454      16.607301      8936.8477      10112.159    
     60000   296.27077     -3240.8294     -3257.9478      17.118313      8710.8615      10112.159    
     60100   278.30433     -3240.9309     -3257.0111      16.080225      8672.4602      10112.159    
     60200   318.73165     -3239.4874     -3257.9035      18.416087      8806.9641      10112.159    
     60300   310.46323     -3238.9309     -3256.8693      17.938343      9082.9186      10112.159    
     60400   300.28086     -3239.4422     -3256.7922      17.350014      9195.5613      10112.159    
     60500   298.58166     -3240.4258     -3257.6777      17.251835      9091.3503      10112.159    
     60600   291.68707     -3241.078      -3257.9314      16.85347       8700.8025      10112.159    
     60700   275.67466     -3242.0424     -3257.9707      15.928285      8310.285       10112.159    
     60800   289.32436     -3241.5733     -3258.2903      16.716955      8856.7445      10112.159    
     60900   295.65624     -3239.9883     -3257.0711      17.082806      9307.4994      10112.159    
     61000   308.20149     -3239.1371     -3256.9447      17.807662      9318.6028      10112.159    
     61100   298.34727     -3239.3993     -3256.6376      17.238292      9118.4628      10112.159    
     61200   306.96155     -3240.0818     -3257.8178      17.736019      8820.5173      10112.159    
     61300   277.89763     -3241.6611     -3257.7178      16.056726      8576.6852      10112.159    
     61400   285.4882      -3241.7625     -3258.2578      16.495304      8745.3482      10112.159    
     61500   295.63211     -3240.2544     -3257.3358      17.081412      9251.3166      10112.159    
     61600   302.36685     -3239.8033     -3257.2738      17.470541      8979.292       10112.159    
     61700   315.33381     -3239.5916     -3257.8113      18.219762      8928.8809      10112.159    
     61800   286.79099     -3239.8433     -3256.4139      16.570578      9341.0043      10112.159    
     61900   290.33596     -3240.0472     -3256.8226      16.775404      9073.8097      10112.159    
     62000   301.37185     -3240.832      -3258.2451      17.41305       8522.6104      10112.159    
     62100   291.74066     -3241.3637     -3258.2203      16.856567      8422.6945      10112.159    
     62200   290.23164     -3240.1935     -3256.9629      16.769377      9166.6072      10112.159    
     62300   298.90661     -3238.9481     -3256.2187      17.27061       9198.9525      10112.159    
     62400   303.67397     -3239.0408     -3256.5868      17.546065      9311.236       10112.159    
     62500   304.37412     -3239.615      -3257.2015      17.586519      9099.3931      10112.159    
     62600   303.2276      -3240.314      -3257.8343      17.520274      8634.361       10112.159    
     62700   291.70771     -3241.8058     -3258.6604      16.854663      8221.1588      10112.159    
     62800   274.67839     -3242.3461     -3258.2169      15.870721      8538.719       10112.159    
     62900   282.25041     -3241.5473     -3257.8555      16.308227      8940.2771      10112.159    
     63000   286.12648     -3240.4174     -3256.9496      16.532183      9018.5061      10112.159    
     63100   330.20632     -3239.3947     -3258.4738      19.079085      8662.2134      10112.159    
     63200   297.42167     -3239.9503     -3257.1351      17.184811      8740.1923      10112.159    
     63300   299.63225     -3239.9304     -3257.243       17.312537      8907.9929      10112.159    
     63400   294.49154     -3239.6668     -3256.6823      17.015511      9098.8051      10112.159    
     63500   308.99806     -3239.0704     -3256.924       17.853687      8962.034       10112.159    
     63600   308.24401     -3238.5409     -3256.351       17.810119      9046.4228      10112.159    
     63700   306.47766     -3239.3623     -3257.0704      17.70806       9018.3669      10112.159    
     63800   292.4607      -3240.5318     -3257.43        16.89817       8999.2786      10112.159    
     63900   283.80356     -3240.7056     -3257.1035      16.397966      8365.5624      10112.159    
     64000   298.61012     -3240.0453     -3257.2988      17.253479      8975.0022      10112.159    
     64100   317.63532     -3238.3194     -3256.6721      18.352742      9042.6821      10112.159    
     64200   316.6134      -3237.797      -3256.0907      18.293696      9239.322       10112.159    
     64300   310.20561     -3238.5262     -3256.4497      17.923458      9049.1813      10112.159    
     64400   304.82744     -3239.466      -3257.0788      17.612712      8902.5129      10112.159    
     64500   292.62045     -3240.3743     -3257.2817      16.9074        8673.1481      10112.159    
     64600   306.81719     -3240.326      -3258.0537      17.727678      8740.3147      10112.159    
     64700   303.18237     -3239.7992     -3257.3169      17.51766       8887.8559      10112.159    
     64800   307.93106     -3238.2736     -3256.0657      17.792036      9352.4274      10112.159    
     64900   317.29733     -3237.8273     -3256.1605      18.333213      9169.4576      10112.159    
     65000   306.26942     -3239.4938     -3257.1898      17.696028      9030.1174      10112.159    
     65100   307.96518     -3240.211      -3258.005       17.794008      8296.4239      10112.159    
     65200   295.92563     -3240.3443     -3257.4427      17.098371      8905.6305      10112.159    
     65300   298.42665     -3240.0828     -3257.3257      17.242878      8726.5403      10112.159    
     65400   295.49968     -3239.4351     -3256.5088      17.07376       8884.2313      10112.159    
     65500   309.04978     -3238.1733     -3256.0299      17.856675      9309.8242      10112.159    
     65600   313.97217     -3238.4463     -3256.5874      18.141087      9085.2754      10112.159    
     65700   307.46263     -3240.0722     -3257.8372      17.764971      8752.7138      10112.159    
     65800   301.12235     -3240.4748     -3257.8734      17.398634      8776.7202      10112.159    
     65900   282.6435      -3240.463      -3256.7939      16.33094       9170.6882      10112.159    
     66000   308.21799     -3239.3371     -3257.1457      17.808615      9124.4289      10112.159    
     66100   307.33081     -3238.8666     -3256.624       17.757354      8948.9919      10112.159    
     66200   297.66655     -3239.7562     -3256.9552      17.19896       8943.1541      10112.159    
     66300   292.42686     -3241.3418     -3258.2381      16.896215      8755.1204      10112.159    
     66400   276.62941     -3241.8364     -3257.8198      15.98345       8568.6681      10112.159    
     66500   303.98034     -3240.4975     -3258.0613      17.563766      8734.4256      10112.159    
     66600   303.01975     -3239.7986     -3257.3069      17.508264      8951.4003      10112.159    
     66700   311.61712     -3239.2982     -3257.3032      18.005014      9124.5999      10112.159    
     66800   292.88891     -3239.4782     -3256.4011      16.922912      9494.5344      10112.159    
     66900   281.23886     -3240.917      -3257.1668      16.24978       9035.0334      10112.159    
     67000   303.28752     -3241.5528     -3259.0766      17.523736      7963.687       10112.159    
     67100   281.30123     -3241.0295     -3257.2829      16.253384      9130.6423      10112.159    
     67200   297.66971     -3240.128      -3257.3272      17.199143      9083.9854      10112.159    
     67300   307.53968     -3239.8274     -3257.5968      17.769423      9034.6093      10112.159    
     67400   306.53369     -3239.516      -3257.2273      17.711297      8912.677       10112.159    
     67500   302.21874     -3239.0899     -3256.5519      17.461983      9259.1486      10112.159    
     67600   309.16282     -3239.0428     -3256.906       17.863206      8982.6687      10112.159    
     67700   302.826       -3240.0398     -3257.5369      17.49707       8518.3683      10112.159    
     67800   284.4456      -3241.0524     -3257.4874      16.435063      8843.7857      10112.159    
     67900   279.05031     -3241.3331     -3257.4564      16.123327      8547.6696      10112.159    
     68000   300.06396     -3239.6735     -3257.011       17.337481      8785.2119      10112.159    
     68100   320.60352     -3238.5289     -3257.0531      18.524242      8717.8845      10112.159    
     68200   320.13704     -3238.6192     -3257.1165      18.497289      9243.0866      10112.159    
     68300   292.79622     -3239.841      -3256.7586      16.917556      9313.0946      10112.159    
     68400   298.15199     -3240.6134     -3257.8404      17.227009      8662.4799      10112.159    
     68500   291.89956     -3240.5402     -3257.406       16.865748      8624.9798      10112.159    
     68600   297.3164      -3240.0159     -3257.1947      17.178729      8829.4114      10112.159    
     68700   317.46946     -3239.2558     -3257.599       18.343158      8877.3618      10112.159    
     68800   295.50977     -3239.1733     -3256.2477      17.074343      9077.8095      10112.159    
     68900   296.14177     -3239.3888     -3256.4996      17.110859      9639.223       10112.159    
     69000   301.22972     -3240.214      -3257.6189      17.404838      8922.7489      10112.159    
     69100   292.76292     -3241.0976     -3258.0132      16.915632      8786.0261      10112.159    
     69200   289.64118     -3241.0688     -3257.8041      16.73526       8869.3195      10112.159    
     69300   305.63166     -3239.6693     -3257.3285      17.659179      9163.2745      10112.159    
     69400   308.03342     -3239.0272     -3256.8251      17.797951      9024.986       10112.159    
     69500   314.28991     -3239.2308     -3257.3902      18.159446      9180.4957      10112.159    
     69600   293.37861     -3239.8733     -3256.8245      16.951206      8942.9104      10112.159    
     69700   290.4621      -3240.0988     -3256.8815      16.782693      9298.768       10112.159    
     69800   306.94786     -3239.8578     -3257.5931      17.735228      8978.6769      10112.159    
     69900   313.37335     -3239.6513     -3257.7578      18.106488      8955.214       10112.159    
     70000   312.63906     -3239.4686     -3257.5327      18.064061      8501.8264      10112.159    
     70100   294.26542     -3239.334      -3256.3364      17.002446      9386.2622      10112.159    
     70200   289.82526     -3239.7206     -3256.4665      16.745896      9255.5845      10112.159    
     70300   296.29087     -3240.6042     -3257.7237      17.119474      8523.415       10112.159    
     70400   307.30096     -3240.7051     -3258.4607      17.755629      8611.0186      10112.159    
     70500   301.67314     -3239.6063     -3257.0368      17.430458      9022.9735      10112.159    
     70600   316.31374     -3238.2684     -3256.5448      18.276382      9496.984       10112.159    
     70700   311.37327     -3238.7091     -3256.7         17.990925      9003.2941      10112.159    
     70800   303.12129     -3239.667      -3257.1811      17.514131      9120.9119      10112.159    
     70900   300.24982     -3240.2165     -3257.5647      17.34822       8966.6182      10112.159    
     71000   296.62466     -3240.2622     -3257.401       17.13876       8634.5907      10112.159    
     71100   295.98679     -3240.0366     -3257.1385      17.101905      9046.3805      10112.159    
     71200   310.42124     -3238.901      -3256.8369      17.935917      8970.7244      10112.159    
     71300   310.10349     -3237.6604     -3255.578       17.917558      9613.8096      10112.159    
     71400   325.28814     -3238.3235     -3257.1184      18.794916      8814.4017      10112.159    
     71500   300.59674     -3239.2936     -3256.6619      17.368265      8671.65        10112.159    
     71600   305.71356     -3239.5655     -3257.2294      17.663911      9017.2344      10112.159    
     71700   294.72624     -3240.2931     -3257.3222      17.029072      9097.9912      10112.159    
     71800   280.02683     -3241.1975     -3257.3772      16.17975       8797.8035      10112.159    
     71900   316.75541     -3240.4905     -3258.7924      18.301901      8407.8865      10112.159    
     72000   300.70765     -3238.9623     -3256.337       17.374673      9257.4726      10112.159    
     72100   315.21055     -3238.214      -3256.4266      18.21264       9198.8288      10112.159    
     72200   296.44896     -3239.0001     -3256.1287      17.128609      9374.0631      10112.159    
     72300   313.86029     -3239.6435     -3257.7782      18.134623      8661.7042      10112.159    
     72400   299.00263     -3240.0184     -3257.2945      17.276158      8760.5234      10112.159    
     72500   302.83655     -3239.7368     -3257.2344      17.497679      9052.4126      10112.159    
     72600   288.85544     -3240.0774     -3256.7672      16.689861      9203.3729      10112.159    
     72700   288.26403     -3241.0854     -3257.7411      16.655689      8694.7429      10112.159    
     72800   288.33665     -3241.4065     -3258.0664      16.659885      8425.9728      10112.159    
     72900   284.03363     -3240.8695     -3257.2808      16.41126       8751.1526      10112.159    
     73000   312.68488     -3239.3299     -3257.3966      18.066709      9131.5905      10112.159    
     73100   298.74546     -3239.0146     -3256.2759      17.261299      9295.6482      10112.159    
     73200   316.05954     -3238.7046     -3256.9663      18.261694      8853.908       10112.159    
     73300   286.75941     -3239.9991     -3256.5679      16.568753      9219.5283      10112.159    
     73400   289.61751     -3241.1105     -3257.8444      16.733893      8703.9041      10112.159    
     73500   300.20782     -3241.0858     -3258.4316      17.345793      8371.4234      10112.159    
     73600   288.0406      -3240.3584     -3257.0011      16.64278       9049.2026      10112.159    
     73700   296.1763      -3240.0967     -3257.2096      17.112855      9001.7481      10112.159    
     73800   289.9852      -3239.9415     -3256.6966      16.755138      8721.5538      10112.159    
     73900   315.9407      -3238.9798     -3257.2347      18.254828      9123.1118      10112.159    
     74000   307.92625     -3238.8719     -3256.6637      17.791758      9448.6901      10112.159    
     74100   300.66423     -3240.1125     -3257.4847      17.372164      8902.0008      10112.159    
     74200   280.28124     -3241.4689     -3257.6633      16.19445       8494.0301      10112.159    
     74300   305.0834      -3240.9058     -3258.5333      17.627501      8621.2124      10112.159    
     74400   281.0093      -3240.3411     -3256.5776      16.236516      8952.947       10112.159    
     74500   313.31455     -3239.4923     -3257.5954      18.10309       8715.4547      10112.159    
     74600   308.89972     -3239.369      -3257.217       17.848005      9105.349       10112.159    
     74700   290.88169     -3239.779      -3256.5859      16.806936      9066.0574      10112.159    
     74800   299.58171     -3240.0088     -3257.3184      17.309617      8574.7054      10112.159    
     74900   313.87086     -3239.7501     -3257.8853      18.135234      8798.7023      10112.159    
     75000   306.08261     -3239.0833     -3256.7685      17.685234      9101.2918      10112.159    
     75100   293.22038     -3238.8918     -3255.8339      16.942064      9245.3526      10112.159    
     75200   319.6557      -3238.7023     -3257.1718      18.469478      9250.2451      10112.159    
     75300   297.3294      -3240.0619     -3257.2413      17.17948       8829.1017      10112.159    
     75400   283.27415     -3241.0169     -3257.3843      16.367378      8848.8639      10112.159    
[...]
    281800   303.32909     -3239.0685     -3256.5947      17.526138      8926.6372      10112.159    
    281900   322.76417     -3238.1335     -3256.7826      18.649083      8962.6186      10112.159    
    282000   309.96378     -3238.8915     -3256.801       17.909486      9179.8865      10112.159    
    282100   289.00573     -3240.2242     -3256.9227      16.698544      9096.6461      10112.159    
    282200   280.96018     -3240.6688     -3256.9024      16.233678      8913.3758      10112.159    
    282300   306.21257     -3240.1854     -3257.8781      17.692743      8644.2491      10112.159    
    282400   320.72847     -3239.561      -3258.0924      18.531462      8603.1676      10112.159    
    282500   292.72184     -3239.5106     -3256.4239      16.913259      9101.6835      10112.159    
    282600   303.8184      -3238.7353     -3256.2897      17.55441       9231.6945      10112.159    
    282700   305.91039     -3238.3134     -3255.9887      17.675283      9438.7034      10112.159    
    282800   313.16324     -3239.1616     -3257.256       18.094348      8923.824       10112.159    
    282900   295.15456     -3240.551      -3257.6048      17.053819      8715.5613      10112.159    
    283000   295.53816     -3240.8763     -3257.9523      17.075983      8626.4657      10112.159    
    283100   298.3253      -3240.3664     -3257.6035      17.237023      8788.6378      10112.159    
    283200   298.94705     -3238.7921     -3256.065       17.272947      9404.2721      10112.159    
    283300   316.43786     -3238.3624     -3256.646       18.283553      9042.34        10112.159    
    283400   312.5288      -3239.0959     -3257.1536      18.05769       8934.4026      10112.159    
    283500   289.88731     -3239.973      -3256.7225      16.749482      9131.1164      10112.159    
    283600   306.48872     -3240.3482     -3258.0569      17.708699      8817.5833      10112.159    
    283700   283.14329     -3241.2768     -3257.6366      16.359817      8598.5737      10112.159    
    283800   299.98749     -3240.8519     -3258.185       17.333063      8613.1631      10112.159    
    283900   289.72878     -3239.3541     -3256.0945      16.740322      9350.7174      10112.159    
    284000   313.37244     -3238.4329     -3256.5394      18.106435      9261.6189      10112.159    
    284100   317.44124     -3238.8372     -3257.1788      18.341528      9096.3482      10112.159    
    284200   297.74524     -3240.3214     -3257.5249      17.203507      8831.6266      10112.159    
    284300   286.16448     -3240.789      -3257.3233      16.534379      8950.4584      10112.159    
    284400   290.23501     -3240.5662     -3257.3358      16.769571      8552.8701      10112.159    
    284500   309.20392     -3239.4731     -3257.3387      17.865581      8934.1953      10112.159    
    284600   307.61488     -3239.2098     -3256.9836      17.773768      9008.3652      10112.159    
    284700   295.46667     -3239.5493     -3256.6212      17.071853      9013.5101      10112.159    
    284800   302.95225     -3239.8283     -3257.3326      17.504364      9104.879       10112.159    
    284900   287.50088     -3240.8997     -3257.5113      16.611595      8739.6988      10112.159    
    285000   283.91555     -3242.3324     -3258.7368      16.404438      8324.9614      10112.159    
    285100   278.38867     -3242.2856     -3258.3707      16.085098      8183.6416      10112.159    
    285200   296.45441     -3240.1505     -3257.2794      17.128924      9073.905       10112.159    
    285300   304.32518     -3239.4251     -3257.0088      17.583691      8983.2036      10112.159    
    285400   297.68809     -3239.3523     -3256.5526      17.200205      9353.9301      10112.159    
    285500   310.21224     -3239.6336     -3257.5575      17.923842      8857.6883      10112.159    
    285600   296.00652     -3240.7463     -3257.8493      17.103045      8748.0931      10112.159    
    285700   291.71355     -3241.3382     -3258.1932      16.855         8718.3249      10112.159    
    285800   305.49015     -3240.0371     -3257.6881      17.651003      9002.8726      10112.159    
    285900   301.77173     -3238.9844     -3256.4206      17.436155      9334.6926      10112.159    
    286000   303.8799      -3239.1813     -3256.7393      17.557963      9072.6699      10112.159    
    286100   297.55342     -3239.836      -3257.0285      17.192424      8952.3063      10112.159    
    286200   292.86908     -3240.7303     -3257.6521      16.921766      8876.4806      10112.159    
    286300   277.9783      -3242.1393     -3258.2007      16.061387      8598.1956      10112.159    
    286400   286.81831     -3242.1402     -3258.7123      16.572157      8293.7403      10112.159    
    286500   291.99762     -3240.0292     -3256.9006      16.871414      8987.7748      10112.159    
    286600   295.971       -3239.2473     -3256.3482      17.100993      9409.6177      10112.159    
    286700   320.23634     -3239.1299     -3257.6329      18.503026      8953.9311      10112.159    
    286800   294.32496     -3240.1157     -3257.1216      17.005885      9115.0715      10112.159    
    286900   292.22622     -3240.5321     -3257.4167      16.884622      8629.654       10112.159    
    287000   287.6002      -3240.8091     -3257.4264      16.617334      8890.6696      10112.159    
    287100   314.52973     -3239.9163     -3258.0896      18.173303      9005.9067      10112.159    
    287200   309.9141      -3239.0503     -3256.9569      17.906615      9251.8178      10112.159    
    287300   299.59372     -3238.7195     -3256.0298      17.310311      9217.1176      10112.159    
    287400   285.41998     -3239.442      -3255.9334      16.491362      9472.2036      10112.159    
    287500   311.84136     -3240.6037     -3258.6217      18.01797       8728.7177      10112.159    
    287600   286.79429     -3241.2331     -3257.8038      16.570769      8596.7263      10112.159    
    287700   293.96282     -3240.4087     -3257.3936      16.984962      8695.1226      10112.159    
    287800   297.90041     -3239.9314     -3257.1439      17.212473      8976.398       10112.159    
    287900   301.50582     -3239.8996     -3257.3204      17.42079       8707.325       10112.159    
    288000   302.68247     -3239.8789     -3257.3677      17.488777      8806.0404      10112.159    
    288100   302.72309     -3239.5183     -3257.0094      17.491123      9001.6313      10112.159    
    288200   313.16801     -3238.5256     -3256.6202      18.094624      9115.5824      10112.159    
    288300   305.70282     -3238.5959     -3256.2592      17.66329       9373.5641      10112.159    
    288400   299.85274     -3239.9842     -3257.3094      17.325277      9250.7683      10112.159    
    288500   292.33528     -3240.9189     -3257.8098      16.890923      8543.3651      10112.159    
    288600   282.79318     -3240.844      -3257.1836      16.339587      8871.4935      10112.159    
    288700   295.86616     -3240.0992     -3257.1941      17.094935      8699.856       10112.159    
    288800   299.52002     -3239.7486     -3257.0547      17.306052      8829.5438      10112.159    
    288900   300.14818     -3239.6156     -3256.958       17.342347      8956.8236      10112.159    
    289000   309.72908     -3239.545      -3257.4409      17.895925      8929.8396      10112.159    
    289100   304.8281      -3239.9499     -3257.5627      17.61275       8907.4547      10112.159    
    289200   283.75714     -3241.2408     -3257.636       16.395285      8506.5731      10112.159    
    289300   276.35942     -3242.6795     -3258.6474      15.967849      8218.4123      10112.159    
    289400   295.58221     -3241.4944     -3258.5729      17.078529      8824.2618      10112.159    
    289500   282.41708     -3240.4818     -3256.7997      16.317857      8857.9369      10112.159    
    289600   305.00685     -3239.5848     -3257.2079      17.623078      9227.3723      10112.159    
    289700   294.76253     -3239.5016     -3256.5328      17.031168      9084.0274      10112.159    
    289800   317.09863     -3238.8728     -3257.1945      18.321732      8998.5563      10112.159    
    289900   300.45458     -3238.525      -3255.8851      17.360051      9487.0966      10112.159    
    290000   305.70963     -3239.2131     -3256.8768      17.663684      9082.9927      10112.159    
    290100   294.25672     -3240.5797     -3257.5817      17.001943      8768.7555      10112.159    
    290200   283.11989     -3241.251      -3257.6095      16.358465      9010.3821      10112.159    
    290300   297.84546     -3240.9421     -3258.1514      17.209298      8573.7249      10112.159    
    290400   307.1423      -3239.1255     -3256.872       17.746463      9222.0425      10112.159    
    290500   317.37345     -3238.4624     -3256.8         18.337611      9255.3396      10112.159    
    290600   295.07103     -3239.3317     -3256.3807      17.048993      9456.2482      10112.159    
    290700   296.81576     -3240.3735     -3257.5233      17.149802      8962.9304      10112.159    
    290800   280.5045      -3241.239      -3257.4464      16.207349      8984.1806      10112.159    
    290900   312.19356     -3240.5599     -3258.5982      18.03832       8708.5705      10112.159    
    291000   295.05049     -3240.0558     -3257.1036      17.047806      8761.0992      10112.159    
    291100   300.6303      -3239.8084     -3257.1786      17.370204      9281.1714      10112.159    
    291200   294.45158     -3239.9079     -3256.9211      17.013202      9245.0688      10112.159    
    291300   297.22439     -3239.8148     -3256.9882      17.173413      8752.5918      10112.159    
    291400   313.58021     -3238.872      -3256.9905      18.11844       9368.4692      10112.159    
    291500   321.86829     -3238.0603     -3256.6576      18.597319      9354.6052      10112.159    
    291600   292.98611     -3239.5397     -3256.4683      16.928528      9207.5859      10112.159    
    291700   292.74654     -3240.3088     -3257.2234      16.914686      8925.4647      10112.159    
    291800   297.13701     -3240.3977     -3257.5661      17.168364      8965.6227      10112.159    
    291900   314.8403      -3239.9674     -3258.1587      18.191247      8478.3954      10112.159    
    292000   308.78191     -3238.9369     -3256.7781      17.841198      9489.5346      10112.159    
    292100   297.41089     -3237.7439     -3254.9281      17.184189      9467.6805      10112.159    
    292200   319.88219     -3237.7015     -3256.184       18.482564      9475.8229      10112.159    
    292300   308.34578     -3239.8631     -3257.6791      17.815998      8692.4222      10112.159    
    292400   292.01188     -3240.3744     -3257.2467      16.872237      9154.9675      10112.159    
    292500   302.10361     -3239.98       -3257.4353      17.455331      9580.7282      10112.159    
    292600   297.49344     -3239.6157     -3256.8047      17.188958      9113.9462      10112.159    
    292700   311.24126     -3239.1883     -3257.1716      17.983298      8986.3378      10112.159    
    292800   301.79787     -3239.1411     -3256.5787      17.437665      9240.2505      10112.159    
    292900   296.83909     -3239.8179     -3256.9691      17.15115       8769.4534      10112.159    
    293000   297.33853     -3240.6945     -3257.8745      17.180008      8733.8204      10112.159    
    293100   291.05263     -3241.1498     -3257.9666      16.816813      8948.5936      10112.159    
    293200   287.56455     -3241.0444     -3257.6596      16.615274      8652.3937      10112.159    
    293300   312.08049     -3239.4729     -3257.5047      18.031787      8995.6652      10112.159    
    293400   328.92242     -3238.7041     -3257.709       19.004902      9125.1808      10112.159    
    293500   292.0059      -3239.6688     -3256.5407      16.871892      9653.6303      10112.159    
    293600   289.09066     -3240.3182     -3257.0217      16.703452      9048.5052      10112.159    
    293700   292.1348      -3240.6294     -3257.5087      16.87934       8921.5068      10112.159    
    293800   307.20488     -3241.0806     -3258.8307      17.750078      8346.0855      10112.159    
    293900   287.20499     -3241.2457     -3257.8402      16.594499      8967.6377      10112.159    
    294000   292.03577     -3239.9226     -3256.7962      16.873618      9305.4153      10112.159    
    294100   311.23888     -3239.1072     -3257.0903      17.98316       9109.1541      10112.159    
    294200   293.41093     -3239.4239     -3256.377       16.953074      9628.415       10112.159    
    294300   321.03487     -3239.573      -3258.1222      18.549165      8816.1032      10112.159    
    294400   282.96108     -3241.3471     -3257.6964      16.349289      8668.3531      10112.159    
    294500   294.05564     -3241.1797     -3258.17        16.990324      8722.6375      10112.159    
    294600   297.57309     -3240.1816     -3257.3751      17.193561      9118.4078      10112.159    
    294700   303.74499     -3239.2796     -3256.8297      17.550168      8997.549       10112.159    
    294800   306.94291     -3239.073      -3256.8079      17.734942      9180.3729      10112.159    
    294900   309.19013     -3239.2886     -3257.1534      17.864784      9254.6141      10112.159    
    295000   304.50826     -3239.596      -3257.1903      17.59427       9396.1408      10112.159    
    295100   289.20003     -3240.3355     -3257.0453      16.709771      9341.7915      10112.159    
    295200   287.39169     -3240.9008     -3257.5061      16.605286      9290.2718      10112.159    
    295300   300.4943      -3240.3954     -3257.7577      17.362346      9195.6747      10112.159    
    295400   309.9326      -3239.1134     -3257.0211      17.907684      9585.024       10112.159    
    295500   319.90198     -3238.4971     -3256.9808      18.483708      9496.2888      10112.159    
    295600   291.64335     -3239.4202     -3256.2712      16.850944      9734.1598      10112.159    
    295700   298.21731     -3240.5496     -3257.7803      17.230783      8847.1575      10112.159    
    295800   292.41835     -3241.0004     -3257.8961      16.895723      8629.2982      10112.159    
    295900   287.54594     -3240.4976     -3257.1118      16.614199      9230.0154      10112.159    
    296000   293.03082     -3239.9959     -3256.927       16.931111      9442.9729      10112.159    
    296100   311.57241     -3239.491      -3257.4934      18.002431      9056.3072      10112.159    
    296200   298.72513     -3239.1733     -3256.4334      17.260124      9384.5769      10112.159    
    296300   300.27923     -3238.2922     -3255.6421      17.349919      9849.7586      10112.159    
    296400   328.61604     -3238.0032     -3256.9904      18.9872        9690.5157      10112.159    
    296500   311.63335     -3239.5359     -3257.5418      18.005952      9268.826       10112.159    
    296600   296.11096     -3240.3613     -3257.4704      17.109079      9175.7579      10112.159    
    296700   287.39578     -3240.5965     -3257.202       16.605523      9009.9693      10112.159    
    296800   298.95089     -3240.0503     -3257.3234      17.273168      9412.1345      10112.159    
    296900   321.08962     -3238.2749     -3256.8272      18.552329      9429.4818      10112.159    
    297000   299.74053     -3238.4484     -3255.7672      17.318794      9648.0495      10112.159    
    297100   313.07927     -3238.9382     -3257.0277      18.089496      9442.5798      10112.159    
    297200   296.82806     -3239.8209     -3256.9714      17.150513      9082.9256      10112.159    
    297300   289.95173     -3240.144      -3256.8972      16.753203      9230.6346      10112.159    
    297400   311.61494     -3240.1814     -3258.1863      18.004888      9050.9064      10112.159    
    297500   289.09221     -3240.0867     -3256.7902      16.703541      9032.599       10112.159    
    297600   316.83353     -3239.3701     -3257.6765      18.306415      9237.1873      10112.159    
    297700   278.31787     -3239.9065     -3255.9876      16.081007      9225.485       10112.159    
    297800   307.47828     -3239.6441     -3257.41        17.765875      9289.6548      10112.159    
    297900   307.21656     -3239.6935     -3257.4443      17.750753      8784.9085      10112.159    
    298000   291.73696     -3240.25       -3257.1064      16.856353      8692.9576      10112.159    
    298100   307.05732     -3240.5572     -3258.2988      17.741552      8653.5725      10112.159    
    298200   289.33098     -3240.887      -3257.6043      16.717337      8761.2334      10112.159    
    298300   307.30451     -3240.0322     -3257.788       17.755835      8773.6472      10112.159    
    298400   287.93012     -3239.1392     -3255.7756      16.636396      9375.5763      10112.159    
    298500   335.26178     -3237.6554     -3257.0266      19.371186      9142.4018      10112.159    
    298600   317.78236     -3238.4592     -3256.8204      18.361238      8994.3931      10112.159    
    298700   287.00159     -3239.7207     -3256.3034      16.582747      9346.603       10112.159    
    298800   293.56931     -3240.2279     -3257.1902      16.962225      9270.8935      10112.159    
    298900   308.85675     -3240.4354     -3258.281       17.845522      8497.6012      10112.159    
    299000   315.40392     -3240.1833     -3258.4071      18.223813      8785.8887      10112.159    
    299100   287.99962     -3238.8682     -3255.5086      16.640412      9576.5531      10112.159    
    299200   303.93763     -3238.1436     -3255.7049      17.561299      9790.7032      10112.159    
    299300   322.71566     -3238.8763     -3257.5226      18.64628       8795.8451      10112.159    
    299400   301.88566     -3240.0488     -3257.4916      17.442737      9007.4678      10112.159    
    299500   299.91839     -3240.4178     -3257.7469      17.32907       9011.76        10112.159    
    299600   280.76137     -3240.4672     -3256.6894      16.222191      9060.4463      10112.159    
    299700   316.67286     -3239          -3257.2971      18.297131      8951.5648      10112.159    
    299800   297.16438     -3238.9175     -3256.0874      17.169945      9494.638       10112.159    
    299900   314.44578     -3239.1913     -3257.3598      18.168452      9311.913       10112.159    
    300000   290.62077     -3239.8788     -3256.6707      16.79186       9010.9417      10112.159    
Loop time of 2285.69 on 20 procs for 300000 steps with 448 atoms

Performance: 11.340 ns/day, 2.116 hours/ns, 131.252 timesteps/s, 58.801 katom-step/s
99.9% CPU use with 20 MPI tasks x 1 OpenMP threads

MPI task timing breakdown:
Section |  min time  |  avg time  |  max time  |%varavg| %total
---------------------------------------------------------------
Pair    | 1729.5     | 1998.7     | 2190.1     | 398.4 | 87.45
Neigh   | 20.098     | 27.854     | 35.975     | 114.9 |  1.22
Comm    | 56.886     | 255.88     | 533.16     |1150.4 | 11.20
Output  | 0.35657    | 0.58063    | 0.64541    |   7.7 |  0.03
Modify  | 2.0889     | 2.3445     | 2.5663     |   8.6 |  0.10
Other   |            | 0.2881     |            |       |  0.01

Nlocal:           22.4 ave          25 max          19 min
Histogram: 3 2 0 3 0 0 1 0 10 1
Nghost:            496 ave         522 max         465 min
Histogram: 4 0 0 4 4 0 0 0 0 8
Neighs:              0 ave           0 max           0 min
Histogram: 20 0 0 0 0 0 0 0 0 0
FullNghs:       1283.9 ave        1467 max        1082 min
Histogram: 3 1 2 2 0 1 0 8 2 1

Total # of neighbors = 25678
Ave neighs/atom = 57.316964
Neighbor list builds = 300000
Dangerous builds not checked
Total wall time: 0:38:05
