LAMMPS (27 Jun 2024)
OMP_NUM_THREADS environment is not set. Defaulting to 1 thread. (src/comm.cpp:98)
  using 1 OpenMP thread(s) per MPI task
Reading data file ...
  orthogonal box = (0 0 0) to (22.422218 22.19224 20.321894)
  5 by 2 by 2 MPI processor grid
  reading atoms ...
  448 atoms
  read_data CPU = 0.004 seconds
**************** Begin of POD Potentials ****************
species: Hf 
periodic boundary conditions: 1 1 1
number of environment clusters: 8
number of principal compoments: 2
inner cut-off radius: 1
outer cut-off radius: 5
cut-off function type: 1
gaussian_exponents: 
polynomial_degrees: 
bessel polynomial degree: 4
inverse polynomial degree: 10
one-body potential: 1
two-body radial basis functions: 8
three-body radial basis functions: 8
three-body angular degree: 6
four-body radial basis functions: 7
four-body angular degree: 5
five-body radial basis functions: 0
five-body angular degree: 0
six-body radial basis functions: 0
six-body angular degree: 0
seven-body radial basis functions: 0
seven-body angular degree: 0
number of local descriptors per element for one-body potential: 1
number of local descriptors per element for two-body potential: 8
number of local descriptors per element for three-body potential: 56
number of local descriptors per element for four-body potential: 112
number of local descriptors per element for five-body potential: 0
number of local descriptors per element for six-body potential: 0
number of local descriptors per element for seven-body potential: 0
number of local descriptors per element for all potentials: 177
number of global descriptors: 1409
**************** End of POD Potentials ****************

**************** Begin of Model Coefficients ****************
total number of coefficients for POD potential: 1409
total number of elements for PCA projection matrix: 352
total number of elements for PCA centroids: 16
**************** End of Model Coefficients ****************


CITE-CITE-CITE-CITE-CITE-CITE-CITE-CITE-CITE-CITE-CITE-CITE-CITE

Your simulation uses code contributions which should be cited:
- Type Label Framework: https://doi.org/10.1021/acs.jpcb.3c08419
The log file lists these citations in BibTeX format.

CITE-CITE-CITE-CITE-CITE-CITE-CITE-CITE-CITE-CITE-CITE-CITE-CITE

Neighbor list info ...
  update: every = 1 steps, delay = 0 steps, check = no
  max neighbors/atom: 2000, page size: 100000
  master list distance cutoff = 7
  ghost atom cutoff = 7
  binsize = 3.5, bins = 7 7 6
  1 neighbor lists, perpetual/occasional/extra = 1 0 0
  (1) pair pod, perpetual
      attributes: full, newton on
      pair build: full/bin/atomonly
      stencil: full/bin/3d
      bin: standard
Setting up Verlet run ...
  Unit style    : metal
  Current step  : 0
  Time step     : 0.001
Per MPI rank memory allocation (min/avg/max) = 2.586 | 2.586 | 2.586 Mbytes
   Step          Temp          TotEng         PotEng         KinEng         Press          Volume    
         0   300           -3263.9145     -3281.2483      17.333785      1830.9177      10112.159    
       100   93.261778     -3263.0287     -3268.4173      5.3885989      3759.142       10112.159    
       200   164.28034     -3259.7771     -3269.2691      9.4920007      4635.3237      10112.159    
       300   199.618       -3255.8611     -3267.3949      11.533785      5153.7349      10112.159    
       400   278.06321     -3251.8128     -3267.8791      16.066293      5157.9398      10112.159    
       500   325.77085     -3247.9068     -3266.7296      18.822807      5869.3358      10112.159    
       600   317.18323     -3245.0375     -3263.3641      18.32662       7020.4269      10112.159    
       700   285.26697     -3244.1039     -3260.5864      16.482521      8250.6703      10112.159    
       800   282.95383     -3245.6194     -3261.9683      16.34887       7417.117       10112.159    
       900   316.56726     -3246.8388     -3265.1298      18.29103       6331.105       10112.159    
      1000   300.09813     -3248.0957     -3265.4351      17.339455      6167.309       10112.159    
      1100   298.17909     -3247.8013     -3265.0298      17.228575      6417.3899      10112.159    
      1200   289.69773     -3246.3895     -3263.128       16.738527      7194.8523      10112.159    
      1300   283.06225     -3245.5964     -3261.9516      16.355134      7465.9418      10112.159    
      1400   302.71866     -3245.4363     -3262.9271      17.490868      7063.75        10112.159    
      1500   319.04878     -3246.1585     -3264.5929      18.434411      6493.9675      10112.159    
      1600   316.07219     -3246.8548     -3265.1173      18.262425      6383.7404      10112.159    
      1700   274.6559      -3247.1353     -3263.0047      15.869421      7106.356       10112.159    
      1800   262.53031     -3246.8868     -3262.0556      15.168814      7171.2468      10112.159    
      1900   320.22585     -3245.9453     -3264.4477      18.50242       6575.4897      10112.159    
      2000   315.06878     -3246.2646     -3264.4691      18.204449      6174.0216      10112.159    
      2100   304.39671     -3246.5191     -3264.1069      17.587824      6707.238       10112.159    
      2200   292.84019     -3246.5071     -3263.4272      16.920097      6994.3671      10112.159    
      2300   261.00261     -3246.7853     -3261.8659      15.080544      7460.6265      10112.159    
      2400   330.10977     -3246.0407     -3265.1142      19.073507      6651.6907      10112.159    
      2500   280.85004     -3246.8876     -3263.1149      16.227315      6737.6121      10112.159    
      2600   325.12764     -3245.9817     -3264.7673      18.785642      6590.8131      10112.159    
      2700   296.93633     -3246.3019     -3263.4587      17.156769      6901.5195      10112.159    
      2800   279.91909     -3247.1085     -3263.282       16.173525      6750.2956      10112.159    
      2900   286.56038     -3247.7907     -3264.348       16.557254      6561.4378      10112.159    
      3000   297.75867     -3248.1122     -3265.3165      17.204283      6068.2029      10112.159    
      3100   313.49746     -3246.7058     -3264.8194      18.113659      6470.4989      10112.159    
      3200   298.89099     -3245.9114     -3263.1811      17.269708      6780.2542      10112.159    
      3300   297.83258     -3245.6229     -3262.8314      17.208554      7299.5196      10112.159    
      3400   278.01094     -3246.5564     -3262.6197      16.063273      6993.3571      10112.159    
      3500   327.26499     -3247.0213     -3265.9304      18.909137      6371.5146      10112.159    
      3600   297.82496     -3247.3296     -3264.5377      17.208113      6568.2035      10112.159    
      3700   291.63197     -3246.8843     -3263.7346      16.850287      6873.7646      10112.159    
      3800   291.14168     -3246.448      -3263.27        16.821958      6743.3141      10112.159    
      3900   302.0284      -3246.0856     -3263.5366      17.450985      6972.996       10112.159    
      4000   319.86414     -3245.1805     -3263.662       18.481521      7006.8721      10112.159    
      4100   303.01969     -3244.8592     -3262.3674      17.508261      7178.2775      10112.159    
      4200   307.43222     -3245.9741     -3263.7373      17.763214      6781.8996      10112.159    
      4300   280.71134     -3247.5586     -3263.7779      16.2193        7022.7801      10112.159    
      4400   293.5886      -3247.2995     -3264.2628      16.96334       6750.1602      10112.159    
      4500   303.34921     -3246.4333     -3263.9606      17.5273        6894.6643      10112.159    
      4600   307.24113     -3245.9408     -3263.693       17.752173      6716.6403      10112.159    
      4700   322.44753     -3245.8401     -3264.4709      18.630788      6830.5594      10112.159    
      4800   283.85618     -3245.9409     -3262.3419      16.401007      7298.3379      10112.159    
      4900   286.94346     -3246.1788     -3262.7582      16.579388      7235.999       10112.159    
      5000   333.8304      -3246.21       -3265.4985      19.288482      6318.6784      10112.159    
      5100   290.80213     -3247.3169     -3264.1192      16.802339      6485.3885      10112.159    
      5200   294.92533     -3247.666      -3264.7066      17.040575      6638.1567      10112.159    
      5300   298.28344     -3246.4567     -3263.6913      17.234604      7124.1653      10112.159    
      5400   297.09421     -3245.2769     -3262.4428      17.165891      7477.7243      10112.159    
      5500   308.91517     -3245.1967     -3263.0456      17.848897      7150.667       10112.159    
      5600   298.71371     -3246.3177     -3263.5771      17.259464      6803.2816      10112.159    
      5700   289.85311     -3247.4964     -3264.2439      16.747506      6709.6691      10112.159    
      5800   301.2708      -3247.2897     -3264.6969      17.407211      6389.0965      10112.159    
      5900   305.42155     -3246.7128     -3264.3599      17.647039      6764.2762      10112.159    
      6000   299.63414     -3246.3954     -3263.7081      17.312646      6971.1802      10112.159    
      6100   301.35792     -3245.9457     -3263.358       17.412245      6847.5004      10112.159    
      6200   317.83857     -3243.9032     -3262.2676      18.364485      7486.9048      10112.159    
      6300   332.6234      -3243.8112     -3263.03        19.218742      7246.0596      10112.159    
      6400   312.50138     -3245.4929     -3263.549       18.056106      7052.8696      10112.159    
      6500   288.09283     -3246.5555     -3263.2012      16.645798      6980.8522      10112.159    
      6600   287.04201     -3247.0253     -3263.6104      16.585082      6794.0682      10112.159    
      6700   296.63127     -3246.8166     -3263.9557      17.139143      6602.8306      10112.159    
      6800   324.98025     -3245.4459     -3264.2231      18.777126      6980.2156      10112.159    
      6900   296.43278     -3245.1321     -3262.2598      17.127674      7405.546       10112.159    
      7000   297.41074     -3245.79       -3262.9742      17.18418       7013.7424      10112.159    
      7100   297.06533     -3247.4361     -3264.6004      17.164223      6676.1207      10112.159    
      7200   296.00879     -3247.6261     -3264.7293      17.103176      6379.9075      10112.159    
      7300   294.12596     -3246.7816     -3263.776       16.994387      6717.0432      10112.159    
      7400   310.93553     -3245.4363     -3263.4019      17.965632      6998.8845      10112.159    
      7500   299.01984     -3245.5376     -3262.8148      17.277152      7342.8132      10112.159    
      7600   292.51804     -3246.383      -3263.2845      16.901483      6896.3305      10112.159    
      7700   320.95948     -3246.4743     -3265.0192      18.544809      6395.7903      10112.159    
      7800   286.80716     -3247.0795     -3263.651       16.571513      6957.7728      10112.159    
      7900   302.71626     -3246.6889     -3264.1797      17.490729      6503.2474      10112.159    
      8000   300.20575     -3246.5788     -3263.9245      17.345674      6938.0594      10112.159    
      8100   294.60618     -3246.1919     -3263.214       17.022134      6917.5863      10112.159    
      8200   308.36134     -3245.9191     -3263.736       17.816897      6915.9807      10112.159    
      8300   298.98179     -3246.5861     -3263.8611      17.274954      6789.0325      10112.159    
      8400   285.22243     -3248.3801     -3264.8601      16.479948      6402.3899      10112.159    
      8500   283.22315     -3248.8544     -3265.2188      16.364431      6112.8213      10112.159    
      8600   286.02423     -3247.4351     -3263.9614      16.526275      6516.9554      10112.159    
      8700   301.8003      -3246.3601     -3263.7979      17.437805      6844.2799      10112.159    
      8800   293.52017     -3245.9503     -3262.9097      16.959386      7018.9643      10112.159    
      8900   312.96924     -3245.522      -3263.6052      18.083139      7027.7974      10112.159    
      9000   301.31552     -3246.4548     -3263.8646      17.409795      7023.6036      10112.159    
      9100   283.14528     -3247.9249     -3264.2848      16.359932      6378.1266      10112.159    
      9200   291.30986     -3247.9858     -3264.8175      16.831675      6680.1361      10112.159    
      9300   282.83058     -3246.9595     -3263.3012      16.341749      6770.5892      10112.159    
      9400   305.35375     -3246.0067     -3263.6498      17.643121      7019.7395      10112.159    
      9500   296.59482     -3246.2462     -3263.3832      17.137037      6941.3787      10112.159    
      9600   311.34036     -3246.7399     -3264.7289      17.989023      6732.5487      10112.159    
      9700   289.2402      -3247.5022     -3264.2143      16.712092      6618.4533      10112.159    
      9800   282.22528     -3246.9709     -3263.2776      16.306775      7061.5318      10112.159    
      9900   306.43332     -3245.1717     -3262.8772      17.705498      7273.3403      10112.159    
     10000   310.65032     -3245.1924     -3263.1416      17.949153      7173.0235      10112.159    
     10100   302.926       -3246.1948     -3263.6977      17.502847      6841.5027      10112.159    
     10200   305.63347     -3246.753      -3264.4123      17.659283      6676.4565      10112.159    
     10300   294.04127     -3246.9473     -3263.9368      16.989494      6738.4509      10112.159    
     10400   294.34341     -3246.7337     -3263.7406      17.006952      6983.0897      10112.159    
     10500   300.14487     -3246.348      -3263.6902      17.342156      6769.8399      10112.159    
     10600   299.50676     -3246.3305     -3263.6358      17.305287      6922.398       10112.159    
     10700   301.47126     -3246.428      -3263.8468      17.418794      6910.0894      10112.159    
     10800   299.43686     -3246.6441     -3263.9454      17.301248      6745.7234      10112.159    
     10900   292.78348     -3247.0544     -3263.9712      16.91682       6767.1322      10112.159    
     11000   291.64483     -3247.6024     -3264.4534      16.85103       6456.6785      10112.159    
     11100   283.86178     -3247.4814     -3263.8828      16.401331      6575.7157      10112.159    
     11200   318.70615     -3246.1026     -3264.5172      18.414614      6697.6793      10112.159    
     11300   296.70375     -3245.9992     -3263.1425      17.14333       6705.7019      10112.159    
     11400   297.68757     -3245.8693     -3263.0695      17.200175      7199.8079      10112.159    
     11500   292.70668     -3246.6477     -3263.5601      16.912383      6986.1121      10112.159    
     11600   286.49204     -3247.977      -3264.5303      16.553305      6547.6548      10112.159    
     11700   295.55095     -3247.6131     -3264.6898      17.076723      6570.7426      10112.159    
     11800   296.15413     -3246.7063     -3263.8179      17.111574      6755.1482      10112.159    
     11900   306.07601     -3245.9879     -3263.6728      17.684853      6755.2143      10112.159    
     12000   302.34901     -3246.1205     -3263.59        17.469509      7224.8129      10112.159    
     12100   293.02683     -3246.4523     -3263.3831      16.930881      6805.0386      10112.159    
     12200   297.24651     -3246.5254     -3263.7001      17.174691      7074.9844      10112.159    
     12300   303.57042     -3246.7054     -3264.2455      17.540082      6794.9188      10112.159    
     12400   297.77216     -3247.1368     -3264.3418      17.205062      6709.3913      10112.159    
     12500   286.78213     -3247.3215     -3263.8915      16.570067      6646.4038      10112.159    
     12600   302.878       -3246.358      -3263.8581      17.500074      6870.248       10112.159    
     12700   304.33258     -3245.3274     -3262.9115      17.584119      6987.7032      10112.159    
     12800   303.65971     -3245.2502     -3262.7954      17.545241      7035.1855      10112.159    
     12900   289.66344     -3246.965      -3263.7016      16.736547      6796.308       10112.159    
     13000   302.9562      -3247.5646     -3265.0692      17.504593      6425.614       10112.159    
     13100   279.9327      -3247.5021     -3263.6764      16.174311      6873.9039      10112.159    
     13200   308.62442     -3246.4418     -3264.2739      17.832098      6552.9197      10112.159    
     13300   302.80447     -3245.8154     -3263.3112      17.495826      7156.4102      10112.159    
     13400   299.44446     -3245.6796     -3262.9813      17.301687      7100.9583      10112.159    
     13500   290.43626     -3247.0697     -3263.8509      16.781199      6815.4436      10112.159    
     13600   288.43747     -3248.2548     -3264.9205      16.665711      6340.7634      10112.159    
     13700   292.66138     -3247.5303     -3264.44        16.909765      6460.2543      10112.159    
     13800   293.09211     -3246.4446     -3263.3793      16.934652      6675.7256      10112.159    
     13900   304.57468     -3245.7291     -3263.3272      17.598107      7138.2213      10112.159    
     14000   285.50166     -3245.9888     -3262.4849      16.496082      7421.9827      10112.159    
     14100   307.85195     -3246.3177     -3264.1052      17.787465      6817.3104      10112.159    
     14200   308.79889     -3246.6793     -3264.5215      17.842179      6636.1367      10112.159    
     14300   286.89301     -3246.6942     -3263.2707      16.576473      6914.7627      10112.159    
     14400   308.99505     -3246.2772     -3264.1307      17.853513      6639.637       10112.159    
     14500   298.99526     -3246.5766     -3263.8523      17.275732      6623.6953      10112.159    
     14600   301.79127     -3246.8558     -3264.293       17.437284      6570.5818      10112.159    
     14700   281.20124     -3247.2533     -3263.5009      16.247606      6690.3167      10112.159    
     14800   302.03813     -3246.8564     -3264.308       17.451547      6611.948       10112.159    
     14900   301.16399     -3245.8435     -3263.2445      17.40104       6968.0592      10112.159    
     15000   297.79026     -3245.114      -3262.3201      17.206108      7247.7812      10112.159    
     15100   312.15354     -3245.3521     -3263.3881      18.036009      6938.0185      10112.159    
     15200   304.33926     -3247.1732     -3264.7577      17.584505      6474.1093      10112.159    
     15300   283.37873     -3247.8183     -3264.1918      16.37342       6657.9988      10112.159    
     15400   297.30023     -3246.9822     -3264.16        17.177795      6457.6239      10112.159    
     15500   294.00466     -3246.1168     -3263.1042      16.987379      7091.0242      10112.159    
     15600   295.28619     -3245.9656     -3263.027       17.061425      6996.205       10112.159    
     15700   299.95937     -3246.3528     -3263.6842      17.331438      6962.2226      10112.159    
     15800   303.41009     -3246.5079     -3264.0387      17.530818      6704.0198      10112.159    
     15900   303.96115     -3246.4349     -3263.9976      17.562658      6995.3565      10112.159    
     16000   295.51815     -3246.5949     -3263.6697      17.074827      6913.6344      10112.159    
     16100   276.31756     -3246.6874     -3262.6528      15.965431      6947.3206      10112.159    
     16200   329.31619     -3245.7551     -3264.7827      19.027654      6670.4504      10112.159    
     16300   298.93334     -3246.1161     -3263.3882      17.272154      6860.5604      10112.159    
     16400   289.90366     -3246.8458     -3263.5963      16.750426      6796.0823      10112.159    
     16500   280.66296     -3248.4959     -3264.7124      16.216505      6491.0582      10112.159    
     16600   278.97186     -3248.4528     -3264.5716      16.118795      6346.3058      10112.159    
     16700   291.86694     -3246.9366     -3263.8005      16.863863      6685.1682      10112.159    
     16800   317.0094      -3246.3044     -3264.6209      18.316576      6632.3259      10112.159    
     16900   300.90715     -3246.2749     -3263.6611      17.3862        7073.9146      10112.159    
     17000   293.07114     -3246.1239     -3263.0574      16.933441      6870.628       10112.159    
     17100   298.48377     -3246.5665     -3263.8127      17.246179      6718.5632      10112.159    
     17200   304.01403     -3247.4548     -3265.0205      17.565713      6530.6774      10112.159    
     17300   287.42115     -3248.3066     -3264.9136      16.606989      6298.0253      10112.159    
     17400   294.70503     -3247.224      -3264.2518      17.027846      6777.5549      10112.159    
     17500   281.61195     -3246.4307     -3262.702       16.271337      7305.4385      10112.159    
     17600   317.19846     -3245.7303     -3264.0578      18.3275        6738.627       10112.159    
     17700   299.72865     -3246.0932     -3263.4113      17.318107      6918.8391      10112.159    
     17800   318.51462     -3246.6517     -3265.0553      18.403547      6543.8842      10112.159    
     17900   271.90315     -3248.4216     -3264.132       15.71037       6750.8118      10112.159    
     18000   284.93144     -3247.7347     -3264.1979      16.463135      6764.5604      10112.159    
     18100   309.73578     -3246.7943     -3264.6906      17.896312      6487.0112      10112.159    
     18200   295.55076     -3246.3205     -3263.3972      17.076712      6696.8709      10112.159    
     18300   308.96032     -3245.5909     -3263.4424      17.851506      7120.369       10112.159    
     18400   313.46128     -3245.9949     -3264.1064      18.111569      6887.5608      10112.159    
     18500   279.20064     -3247.8898     -3264.0218      16.132013      6657.1919      10112.159    
     18600   284.93438     -3248.0709     -3264.5342      16.463305      6450.7855      10112.159    
     18700   283.23308     -3247.2727     -3263.6377      16.365005      6896.1409      10112.159    
     18800   307.47476     -3246.318      -3264.0837      17.765672      6547.8948      10112.159    
     18900   298.50203     -3246.2154     -3263.4626      17.247234      6880.093       10112.159    
     19000   312.53914     -3245.9927     -3264.051       18.058288      6681.192       10112.159    
     19100   278.95376     -3247.1631     -3263.2808      16.117749      6751.0588      10112.159    
     19200   296.43063     -3247.9994     -3265.127       17.12755       6344.6687      10112.159    
     19300   282.5053      -3247.7914     -3264.1143      16.322954      6731.5119      10112.159    
     19400   303.39774     -3245.8662     -3263.3963      17.530104      6932.9883      10112.159    
     19500   316.9093      -3245.6162     -3263.9269      18.310793      6961.2808      10112.159    
     19600   300.79948     -3246.3041     -3263.6841      17.379979      6842.8599      10112.159    
     19700   292.86        -3247.328      -3264.2492      16.921241      6676.5623      10112.159    
     19800   291.73643     -3247.8134     -3264.6698      16.856322      6442.5474      10112.159    
     19900   304.42096     -3246.2146     -3263.8038      17.589225      6464.9538      10112.159    
     20000   309.89282     -3245.0298     -3262.9352      17.905385      7125.7178      10112.159    
     20100   305.25506     -3245.4657     -3263.1031      17.637419      7176.7928      10112.159    
     20200   294.37482     -3246.7607     -3263.7694      17.008766      6768.5586      10112.159    
     20300   299.20211     -3247.1046     -3264.3923      17.287684      6538.933       10112.159    
     20400   287.8953      -3247.0207     -3263.6551      16.634384      6811.0137      10112.159    
     20500   299.17408     -3246.4811     -3263.7671      17.286064      7019.1753      10112.159    
     20600   301.91555     -3246.1648     -3263.6092      17.444465      6822.7418      10112.159    
     20700   305.98586     -3246.139      -3263.8186      17.679644      6964.5284      10112.159    
     20800   288.88756     -3246.8057     -3263.4974      16.691717      6701.3226      10112.159    
     20900   309.39486     -3246.4829     -3264.3595      17.876614      6766.4982      10112.159    
     21000   301.26084     -3246.1842     -3263.5909      17.406636      6851.722       10112.159    
     21100   309.23231     -3246.1532     -3264.0204      17.867222      6930.6283      10112.159    
     21200   299.93544     -3246.0232     -3263.3532      17.330055      6916.9503      10112.159    
     21300   292.34144     -3246.6034     -3263.4947      16.891279      6972.6049      10112.159    
     21400   297.0975      -3247.1246     -3264.2907      17.166081      6482.5522      10112.159    
     21500   293.49461     -3247.6322     -3264.5901      16.957909      6529.8483      10112.159    
     21600   297.90914     -3247.0495     -3264.2625      17.212977      6612.8575      10112.159    
     21700   302.74033     -3245.5828     -3263.0749      17.49212       7034.6568      10112.159    
     21800   299.14877     -3245.3306     -3262.6152      17.284602      7134.3802      10112.159    
     21900   319.78348     -3245.9719     -3264.4487      18.476861      6986.3382      10112.159    
     22000   291.67776     -3247.4244     -3264.2773      16.852933      6420.5803      10112.159    
     22100   297.86089     -3247.2305     -3264.4407      17.210189      6501.7862      10112.159    
     22200   300.42846     -3246.5392     -3263.8977      17.358541      6832.7037      10112.159    
     22300   299.20793     -3245.636      -3262.9241      17.28802       7103.6156      10112.159    
     22400   307.31429     -3245.1143     -3262.8707      17.7564        7187.9301      10112.159    
     22500   312.22029     -3246.1967     -3264.2365      18.039865      6776.3996      10112.159    
     22600   293.77612     -3247.651      -3264.6252      16.974174      6543.0883      10112.159    
     22700   281.71473     -3247.6877     -3263.965       16.277276      6523.3197      10112.159    
     22800   292.32763     -3246.6327     -3263.5232      16.890481      6778.2314      10112.159    
     22900   309.45034     -3245.4169     -3263.2967      17.879819      6886.7058      10112.159    
     23000   324.17642     -3245.2902     -3264.0208      18.730682      6953.6534      10112.159    
     23100   304.40698     -3245.8531     -3263.4415      17.588417      7074.3107      10112.159    
     23200   274.15289     -3246.7127     -3262.5531      15.840358      7164.5014      10112.159    
     23300   311.72653     -3246.5889     -3264.6002      18.011336      6715.5237      10112.159    
     23400   301.17182     -3246.7583     -3264.1598      17.401493      6711.5465      10112.159    
     23500   290.47592     -3246.6219     -3263.4054      16.783491      6716.5824      10112.159    
     23600   323.16045     -3245.3512     -3264.0232      18.67198       6779.8804      10112.159    
     23700   290.4548      -3245.4711     -3262.2534      16.782271      7389.2687      10112.159    
     23800   316.69565     -3245.7549     -3264.0533      18.298448      6805.9176      10112.159    
     23900   287.13571     -3247.263      -3263.8535      16.590496      6632.9325      10112.159    
     24000   290.36719     -3247.4072     -3264.1844      16.777209      6351.5676      10112.159    
     24100   303.49404     -3246.7161     -3264.2518      17.535669      6745.6012      10112.159    
     24200   303.65849     -3245.2526     -3262.7978      17.54517       7317.4053      10112.159    
     24300   321.63033     -3244.3228     -3262.9063      18.58357       7537.6209      10112.159    
     24400   301.12477     -3245.0888     -3262.4876      17.398774      7132.9933      10112.159    
     24500   313.36727     -3246.0322     -3264.1383      18.106137      6968.1275      10112.159    
     24600   288.60804     -3247.2251     -3263.9007      16.675566      6613.4871      10112.159    
     24700   295.88475     -3247.196      -3264.292       17.096009      6543.1311      10112.159    
     24800   288.16891     -3246.7861     -3263.4363      16.650193      6943.818       10112.159    
     24900   326.25974     -3244.8585     -3263.7096      18.851055      7100.4634      10112.159    
     25000   303.23547     -3245.214      -3262.7347      17.520729      7111.4073      10112.159    
     25100   320.24096     -3245.6028     -3264.1061      18.503294      6790.9384      10112.159    
     25200   289.08844     -3246.9325     -3263.6358      16.703323      6851.5955      10112.159    
     25300   292.43307     -3247.242      -3264.1385      16.896573      6875.9006      10112.159    
     25400   311.28265     -3246.9805     -3264.9662      17.985689      6684.5312      10112.159    
     25500   291.25426     -3246.5729     -3263.4014      16.828463      6855.7359      10112.159    
     25600   304.09613     -3246.1072     -3263.6777      17.570457      6896.5846      10112.159    
     25700   306.69992     -3245.9771     -3263.698       17.720902      7046.0605      10112.159    
     25800   299.85083     -3246.2491     -3263.5742      17.325167      6855.7126      10112.159    
     25900   305.36493     -3246.9875     -3264.6313      17.643767      6689.7056      10112.159    
     26000   277.51482     -3248.4462     -3264.4808      16.034608      6534.9314      10112.159    
     26100   284.83472     -3247.9776     -3264.4352      16.457547      6628.2003      10112.159    
     26200   293.94748     -3246.6798     -3263.6638      16.984075      6708.4664      10112.159    
     26300   298.81945     -3246.2604     -3263.526       17.265574      6874.8772      10112.159    
     26400   309.00455     -3245.9308     -3263.7849      17.854062      6902.1507      10112.159    
     26500   298.55718     -3246.4145     -3263.6649      17.25042       7017.1873      10112.159    
     26600   281.77166     -3247.4575     -3263.7381      16.280565      6771.0403      10112.159    
     26700   288.60796     -3248.1595     -3264.8351      16.675562      6528.9152      10112.159    
     26800   279.23889     -3248.1623     -3264.2965      16.134224      6623.5955      10112.159    
     26900   305.85062     -3246.5161     -3264.1879      17.67183       6843.7346      10112.159    
     27000   310.29338     -3246          -3263.9285      17.92853       7060.3784      10112.159    
     27100   315.86085     -3245.5639     -3263.8141      18.250214      7134.6686      10112.159    
     27200   274.7179      -3246.3434     -3262.2164      15.873004      7445.0146      10112.159    
     27300   297.60657     -3247.4299     -3264.6254      17.195495      6711.2917      10112.159    
     27400   287.13505     -3248.5212     -3265.1116      16.590458      6333.2038      10112.159    
     27500   301.07435     -3247.7415     -3265.1373      17.395861      6482.6116      10112.159    
     27600   293.34933     -3246.1486     -3263.0981      16.949515      7042.0086      10112.159    
     27700   310.35801     -3245.5628     -3263.4951      17.932264      7084.1528      10112.159    
     27800   310.03384     -3245.697      -3263.6105      17.913533      7257.8009      10112.159    
     27900   285.38645     -3247.0211     -3263.5105      16.489425      6886.9214      10112.159    
     28000   306.43545     -3247.4129     -3265.1185      17.705621      6612.082       10112.159    
     28100   293.78737     -3247.3387     -3264.3135      16.974824      6648.2652      10112.159    
     28200   299.9161      -3245.36       -3262.6889      17.328938      7514.2316      10112.159    
     28300   307.92293     -3244.9631     -3262.7546      17.791567      7123.6666      10112.159    
     28400   307.72651     -3245.8532     -3263.6334      17.780218      6974.0834      10112.159    
     28500   298.33482     -3246.9345     -3264.1721      17.237573      6718.3639      10112.159    
     28600   283.88475     -3247.2297     -3263.6324      16.402658      6872.7786      10112.159    
     28700   292.48074     -3246.9978     -3263.8971      16.899328      6814.3728      10112.159    
     28800   299.7352      -3246.6194     -3263.9379      17.318485      6801.1343      10112.159    
     28900   307.25679     -3246.3035     -3264.0566      17.753078      6802.538       10112.159    
     29000   297.55156     -3246.4049     -3263.5972      17.192316      7095.9571      10112.159    
     29100   295.95398     -3246.4147     -3263.5147      17.100009      6896.2958      10112.159    
     29200   299.39796     -3246.0419     -3263.3409      17.299         6959.2739      10112.159    
     29300   316.16976     -3245.861      -3264.129       18.268063      6811.1402      10112.159    
     29400   300.222       -3246.6108     -3263.9574      17.346612      7059.9518      10112.159    
     29500   288.66554     -3247.3273     -3264.0062      16.678888      6716.8185      10112.159    
     29600   290.73702     -3247.6569     -3264.4555      16.798577      6583.2431      10112.159    
     29700   299.01132     -3246.3031     -3263.5797      17.27666       6885.2217      10112.159    
     29800   316.24999     -3245.4517     -3263.7244      18.272698      7087.0121      10112.159    
     29900   286.21316     -3246.0023     -3262.5395      16.537192      7039.3415      10112.159    
     30000   301.4285      -3246.6891     -3264.1055      17.416323      6862.4453      10112.159    
     30100   286.55491     -3247.5996     -3264.1566      16.556938      6605.0909      10112.159    
     30200   295.454       -3247.0906     -3264.1617      17.071121      6836.555       10112.159    
     30300   286.98853     -3246.7336     -3263.3156      16.581992      7173.8225      10112.159    
     30400   287.70653     -3246.5236     -3263.1471      16.623478      6999.4904      10112.159    
     30500   301.74437     -3246.3718     -3263.8063      17.434574      6915.9279      10112.159    
     30600   314.8777      -3246.0381     -3264.2315      18.193408      6770.235       10112.159    
     30700   318.80446     -3244.4282     -3262.8485      18.420294      7325.8152      10112.159    
     30800   298.80341     -3244.2457     -3261.5103      17.264648      7754.1324      10112.159    
     30900   318.89502     -3245.4643     -3263.8898      18.425526      7042.8023      10112.159    
     31000   289.49948     -3246.9177     -3263.6448      16.727073      6903.949       10112.159    
     31100   303.24803     -3246.9625     -3264.484       17.521454      6893.0388      10112.159    
     31200   294.97661     -3246.8472     -3263.8907      17.043537      6927.2189      10112.159    
     31300   305.82487     -3245.542      -3263.2124      17.670342      7146.9939      10112.159    
     31400   312.03845     -3245.0327     -3263.062       18.029358      7415.5424      10112.159    
     31500   305.46511     -3245.762      -3263.4115      17.649555      6767.7471      10112.159    
     31600   308.90755     -3246.3425     -3264.191       17.848457      6795.9836      10112.159    
     31700   302.98173     -3246.7266     -3264.2327      17.506068      6926.1122      10112.159    
     31800   279.43683     -3246.7523     -3262.898       16.14566       7037.0301      10112.159    
     31900   312.96667     -3245.8056     -3263.8886      18.08299       6718.4594      10112.159    
     32000   303.93219     -3245.7958     -3263.3568      17.560985      7001.775       10112.159    
     32100   302.78393     -3246.3029     -3263.7975      17.494639      6796.4162      10112.159    
     32200   287.51497     -3247.5141     -3264.1265      16.612409      6511.1938      10112.159    
     32300   294.13942     -3247.665      -3264.6602      16.995165      6664.8457      10112.159    
     32400   293.1775      -3246.6455     -3263.5851      16.939587      6867.7091      10112.159    
     32500   295.08431     -3245.6407     -3262.6905      17.049761      7150.3714      10112.159    
     32600   328.07679     -3245.3439     -3264.3         18.956042      7012.776       10112.159    
     32700   303.60182     -3246.4054     -3263.9473      17.541896      6740.8081      10112.159    
     32800   297.91844     -3246.8551     -3264.0686      17.213515      6573.6723      10112.159    
     32900   289.53828     -3246.8936     -3263.623       16.729315      6947.7623      10112.159    
     33000   319.28039     -3246.2935     -3264.7413      18.447793      6514.3393      10112.159    
     33100   289.68685     -3246.4462     -3263.1841      16.737899      7038.9091      10112.159    
     33200   313.85997     -3245.7554     -3263.89        18.134605      6876.996       10112.159    
     33300   311.20258     -3244.8253     -3262.8064      17.981062      7205.109       10112.159    
     33400   312.82384     -3245.0473     -3263.1221      18.074738      7120.4365      10112.159    
     33500   291.4742      -3246.795      -3263.6362      16.841171      6846.9749      10112.159    
     33600   298.61323     -3247.0198     -3264.2735      17.253659      6847.2622      10112.159    
     33700   301.90327     -3246.6923     -3264.1361      17.443755      6716.1563      10112.159    
     33800   312.55243     -3245.5301     -3263.5891      18.059056      7115.0364      10112.159    
     33900   308.59327     -3244.7562     -3262.5865      17.830298      7267.5233      10112.159    
     34000   294.38357     -3245.8855     -3262.8947      17.009272      7074.2375      10112.159    
     34100   302.7969      -3247.1118     -3264.6072      17.495388      6426.7631      10112.159    
     34200   292.6226      -3246.8491     -3263.7566      16.907524      6941.6439      10112.159    
     34300   302.361       -3246.2119     -3263.6821      17.470202      6904.2392      10112.159    
     34400   306.98193     -3245.8801     -3263.6173      17.737196      7096.3241      10112.159    
     34500   308.2017      -3245.5613     -3263.369       17.807674      7126.1522      10112.159    
     34600   296.57756     -3246.3265     -3263.4625      17.13604       6929.9437      10112.159    
     34700   296.16718     -3247.4869     -3264.5992      17.112328      6761.131       10112.159    
     34800   293.18076     -3247.6851     -3264.6249      16.939775      6622.8149      10112.159    
     34900   303.70381     -3246.36       -3263.9078      17.547789      6880.7355      10112.159    
     35000   309.71747     -3245.0691     -3262.9644      17.895254      7314.2825      10112.159    
     35100   296.9336      -3245.4286     -3262.5852      17.156611      7119.8044      10112.159    
     35200   299.51531     -3246.3558     -3263.6616      17.30578       6856.2669      10112.159    
     35300   296.84718     -3247.2111     -3264.3627      17.151618      6778.258       10112.159    
     35400   301.97161     -3246.9585     -3264.4062      17.447703      6763.9051      10112.159    
     35500   295.57577     -3246.6433     -3263.7214      17.078157      6907.7882      10112.159    
     35600   292.86232     -3246.4584     -3263.3798      16.921376      6875.4723      10112.159    
     35700   303.70224     -3246.3587     -3263.9064      17.547698      6904.3447      10112.159    
     35800   296.60353     -3246.6555     -3263.793       17.13754       6827.1368      10112.159    
     35900   310.07967     -3246.222      -3264.1382      17.916182      6832.7492      10112.159    
     36000   308.72545     -3244.112      -3261.9499      17.837936      7565.5993      10112.159    
     36100   298.87364     -3244.4056     -3261.6743      17.268705      7685.5784      10112.159    
     36200   310.55371     -3245.9816     -3263.9252      17.943571      6877.8032      10112.159    
     36300   313.89964     -3246.5273     -3264.6642      18.136897      6432.5256      10112.159    
     36400   289.21509     -3246.9472     -3263.6578      16.710641      6867.1012      10112.159    
     36500   298.0094      -3246.8041     -3264.0228      17.21877       6779.1204      10112.159    
     36600   303.43474     -3246.2088     -3263.7411      17.532242      6909.8524      10112.159    
     36700   316.0258      -3244.981      -3263.2408      18.259744      7171.551       10112.159    
     36800   313.72553     -3245.1548     -3263.2816      18.126837      7179.9029      10112.159    
     36900   290.74993     -3246.811      -3263.6103      16.799323      6862.4806      10112.159    
     37000   303.55229     -3247.1919     -3264.7309      17.539034      6308.0386      10112.159    
     37100   283.65703     -3247.2389     -3263.6284      16.389501      6951.7629      10112.159    
     37200   288.67543     -3246.44       -3263.1195      16.67946       6980.1912      10112.159    
     37300   307.35565     -3245.5132     -3263.272       17.75879       7312.0817      10112.159    
     37400   320.97554     -3244.9621     -3263.5079      18.545737      6681.5439      10112.159    
     37500   324.26913     -3244.0725     -3262.8085      18.736039      7427.7228      10112.159    
     37600   287.80668     -3245.4674     -3262.0967      16.629264      7061.5915      10112.159    
     37700   310.89834     -3246.4105     -3264.374       17.963484      6744.311       10112.159    
     37800   289.36142     -3247.3708     -3264.0899      16.719096      6553.2368      10112.159    
     37900   293.67269     -3247.2297     -3264.1979      16.968198      6716.1981      10112.159    
     38000   299.03204     -3246.0586     -3263.3364      17.277857      6966.0891      10112.159    
     38100   308.50253     -3244.5844     -3262.4094      17.825056      7253.617       10112.159    
     38200   310.86012     -3245.2414     -3263.2026      17.961275      6950.3703      10112.159    
     38300   302.12967     -3246.0885     -3263.5453      17.456836      6860.8924      10112.159    
     38400   317.73165     -3246.4438     -3264.8021      18.358307      6456.2747      10112.159    
     38500   278.8615      -3247.5351     -3263.6475      16.112418      6697.8438      10112.159    
     38600   288.51183     -3247.3218     -3263.9918      16.670007      6883.0336      10112.159    
     38700   317.35495     -3245.1162     -3263.4528      18.336542      7049.5715      10112.159    
     38800   313.45647     -3244.9124     -3263.0237      18.111291      7218.9501      10112.159    
     38900   301.94095     -3245.8719     -3263.3178      17.445932      6993.9332      10112.159    
     39000   290.66543     -3247.1031     -3263.8975      16.794441      6890.8405      10112.159    
     39100   306.73572     -3247.0442     -3264.7672      17.722971      6680.856       10112.159    
     39200   298.7398      -3246.8874     -3264.1484      17.260972      6886.3746      10112.159    
     39300   290.0747      -3246.4319     -3263.1922      16.760309      6863.0984      10112.159    
     39400   318.84554     -3244.396      -3262.8187      18.422667      7270.4617      10112.159    
     39500   313.35533     -3244.7549     -3262.8604      18.105447      7506.9789      10112.159    
     39600   310.25419     -3245.377      -3263.3033      17.926265      7041.82        10112.159    
     39700   315.66046     -3246.3997     -3264.6383      18.238635      7004.4526      10112.159    
     39800   279.01629     -3247.2028     -3263.3242      16.121362      6811.6971      10112.159    
     39900   291.97219     -3246.9007     -3263.7706      16.869944      6853.8714      10112.159    
     40000   317.47482     -3246.3619     -3264.7054      18.343468      6605.0064      10112.159    
     40100   314.74163     -3245.5959     -3263.7815      18.185546      6723.2998      10112.159    
     40200   306.67397     -3244.3062     -3262.0256      17.719403      7600.2345      10112.159    
     40300   311.05977     -3244.4326     -3262.4054      17.972811      7354.8089      10112.159    
     40400   310.65692     -3246.5491     -3264.4987      17.949534      6871.37        10112.159    
     40500   290.10364     -3247.425      -3264.187       16.761981      6686.7442      10112.159    
     40600   288.67153     -3247.1167     -3263.7959      16.679234      6976.9885      10112.159    
     40700   319.04363     -3245.8518     -3264.2859      18.434113      6705.0551      10112.159    
     40800   289.11531     -3245.935      -3262.6399      16.704876      7082.9234      10112.159    
     40900   307.67446     -3245.8261     -3263.6034      17.77721       7023.4976      10112.159    
     41000   295.93799     -3247.04       -3264.1391      17.099086      6698.966       10112.159    
     41100   296.08042     -3247.9301     -3265.0374      17.107315      6479.2127      10112.159    
     41200   278.77541     -3248.0323     -3264.1397      16.107444      6542.6572      10112.159    
     41300   296.19951     -3246.3214     -3263.4355      17.114196      6778.2675      10112.159    
     41400   307.10046     -3245.9326     -3263.6767      17.744045      6873.2172      10112.159    
     41500   293.74724     -3246.1951     -3263.1676      16.972506      7115.2817      10112.159    
     41600   302.27364     -3246.0804     -3263.5455      17.465155      7096.623       10112.159    
     41700   287.12321     -3247.1387     -3263.7285      16.589774      6710.1666      10112.159    
     41800   301.37857     -3247.8006     -3265.214       17.413438      6461.3147      10112.159    
     41900   274.2921      -3247.854      -3263.7024      15.848401      6677.5518      10112.159    
     42000   303.22279     -3245.8173     -3263.3372      17.519996      7109.2549      10112.159    
     42100   312.11011     -3245.6605     -3263.694       18.033499      6928.8271      10112.159    
     42200   310.588       -3246.3171     -3264.2627      17.945553      6971.9121      10112.159    
     42300   283.12233     -3247.4225     -3263.7811      16.358606      6519.8791      10112.159    
     42400   285.74007     -3247.5672     -3264.0771      16.509857      6835.1446      10112.159    
     42500   315.93155     -3245.8005     -3264.0548      18.254299      6842.3521      10112.159    
     42600   308.6815      -3244.9465     -3262.7819      17.835396      7039.4838      10112.159    
     42700   313.46616     -3245.2694     -3263.3812      18.111851      7184.3386      10112.159    
     42800   298.88236     -3246.5149     -3263.7841      17.269209      6996.8348      10112.159    
     42900   294.91157     -3246.7589     -3263.7987      17.039779      6942.9194      10112.159    
     43000   296.48896     -3246.5881     -3263.7191      17.13092       6909.0194      10112.159    
     43100   302.06871     -3246.2605     -3263.7138      17.453314      6812.6019      10112.159    
     43200   328.10596     -3244.8798     -3263.8375      18.957728      6864.7845      10112.159    
     43300   316.33234     -3244.7091     -3262.9865      18.277456      7148.2143      10112.159    
     43400   291.87583     -3246.2213     -3263.0857      16.864376      7177.2871      10112.159    
     43500   301.08896     -3246.9779     -3264.3746      17.396705      6760.2293      10112.159    
     43600   291.61679     -3247.0447     -3263.8941      16.84941       6611.8645      10112.159    
     43700   313.42118     -3246.1815     -3264.2907      18.109251      6715.6407      10112.159    
     43800   295.78163     -3245.9375     -3263.0275      17.090051      6838.6218      10112.159    
     43900   313.81289     -3245.3606     -3263.4925      18.131884      7040.9443      10112.159    
     44000   307.85243     -3245.1532     -3262.9407      17.787493      7092.2753      10112.159    
     44100   308.80958     -3245.9817     -3263.8245      17.842797      6846.9906      10112.159    
     44200   279.89198     -3247.3851     -3263.5571      16.171959      6762.985       10112.159    
     44300   308.94039     -3247.0241     -3264.8745      17.850355      6603.2408      10112.159    
     44400   286.35602     -3246.8244     -3263.3699      16.545446      6830.4811      10112.159    
     44500   313.06801     -3245.4875     -3263.5764      18.088846      6901.1446      10112.159    
     44600   307.20148     -3244.3134     -3262.0633      17.749882      7515.6529      10112.159    
     44700   319.85705     -3244.7988     -3263.2799      18.481111      6924.2939      10112.159    
     44800   316.65052     -3245.7672     -3264.063       18.295841      6880.5867      10112.159    
     44900   295.04696     -3246.464      -3263.5116      17.047602      6897.4098      10112.159    
     45000   283.39976     -3246.9272     -3263.3019      16.374635      6629.9074      10112.159    
     45100   304.15906     -3246.7698     -3264.3439      17.574093      6747.2441      10112.159    
     45200   311.24323     -3246.1639     -3264.1473      17.983411      6695.2186      10112.159    
     45300   313.28174     -3245.298      -3263.3992      18.101195      7291.184       10112.159    
     45400   291.49428     -3245.4248     -3262.2671      16.842331      7190.7309      10112.159    
     45500   306.01485     -3246.006      -3263.6873      17.681319      6872.0787      10112.159    
     45600   285.26677     -3247.6275     -3264.11        16.48251       6416.0158      10112.159    
     45700   307.97761     -3247.5055     -3265.3002      17.794726      6287.7752      10112.159    
     45800   284.55725     -3247.0758     -3263.5173      16.441514      6516.8861      10112.159    
     45900   317.90419     -3245.3783     -3263.7466      18.368277      6982.9095      10112.159    
     46000   287.84029     -3245.4557     -3262.0869      16.631206      7032.0701      10112.159    
     46100   312.57207     -3245.6649     -3263.7251      18.060191      6836.5472      10112.159    
     46200   306.76385     -3246.8205     -3264.5451      17.724596      6578.361       10112.159    
     46300   293.90758     -3247.3628     -3264.3446      16.98177       6489.3138      10112.159    
     46400   290.02881     -3247.1952     -3263.9528      16.757657      6743.8918      10112.159    
     46500   306.29884     -3246.6747     -3264.3724      17.697728      6772.9281      10112.159    
     46600   289.94493     -3246.3513     -3263.1041      16.752811      6996.3948      10112.159    
     46700   309.33879     -3245.8178     -3263.6912      17.873374      6813.0012      10112.159    
     46800   301.48746     -3246.2757     -3263.6955      17.41973       6901.5175      10112.159    
     46900   295.08434     -3248.1124     -3265.1622      17.049762      6280.2608      10112.159    
     47000   265.34773     -3248.7121     -3264.0437      15.331602      6552.3715      10112.159    
     47100   294.29322     -3247.4129     -3264.417       17.004052      6528.479       10112.159    
     47200   311.29383     -3246.3793     -3264.3656      17.986335      6622.8526      10112.159    
     47300   306.12127     -3246.0398     -3263.7273      17.687468      6711.0817      10112.159    
     47400   303.04659     -3246.0379     -3263.5477      17.509815      7139.4055      10112.159    
     47500   272.77084     -3247.1806     -3262.9411      15.760504      7006.0368      10112.159    
     47600   300.01994     -3247.8192     -3265.1542      17.334938      6271.2749      10112.159    
     47700   291.15141     -3247.7545     -3264.5771      16.82252       6514.3298      10112.159    
     47800   298.00859     -3245.7666     -3262.9853      17.218723      6989.2792      10112.159    
     47900   301.96565     -3245.4405     -3262.8878      17.447359      7273.7687      10112.159    
     48000   304.42758     -3246.1374     -3263.727       17.589608      6831.0322      10112.159    
     48100   290.06842     -3247.342      -3264.102       16.759946      6674.7444      10112.159    
     48200   298.00205     -3247.2647     -3264.483       17.218345      6416.0601      10112.159    
     48300   300.35557     -3246.7743     -3264.1286      17.35433       6649.5505      10112.159    
     48400   293.15902     -3246.626      -3263.5646      16.938519      6660.2484      10112.159    
     48500   307.61279     -3246.2509     -3264.0245      17.773647      6729.8755      10112.159    
     48600   290.68374     -3246.4132     -3263.2087      16.795499      6828.9321      10112.159    
     48700   298.30821     -3246.3466     -3263.5826      17.236035      6857.6         10112.159    
     48800   303.64688     -3246.1338     -3263.6783      17.5445        6819.0249      10112.159    
     48900   306.9357      -3246.1686     -3263.9031      17.734525      6760.8217      10112.159    
     49000   295.85414     -3246.5117     -3263.606       17.094241      6675.2499      10112.159    
     49100   284.07368     -3247.3093     -3263.7229      16.413574      6775.4342      10112.159    
     49200   293.6184      -3247.5576     -3264.5226      16.965061      6317.372       10112.159    
     49300   305.84259     -3247.0583     -3264.7297      17.671366      6634.8234      10112.159    
     49400   297.85803     -3245.6386     -3262.8486      17.210024      6944.9598      10112.159    
     49500   303.0535      -3245.1813     -3262.6915      17.510215      7348.3356      10112.159    
     49600   302.54589     -3246.007      -3263.4879      17.480885      6754.4774      10112.159    
     49700   309.18058     -3246.8622     -3264.7264      17.864233      6557.73        10112.159    
     49800   289.99738     -3247.0299     -3263.7857      16.755841      6730.2171      10112.159    
     49900   291.67378     -3246.6349     -3263.4876      16.852703      6751.2825      10112.159    
     50000   302.38886     -3246.2305     -3263.7024      17.471812      6791.7389      10112.159    
     50100   309.43108     -3245.8614     -3263.7401      17.878706      6692.2105      10112.159    
     50200   336.84086     -3244.5723     -3264.0348      19.462424      6759.6291      10112.159    
     50300   291.48661     -3245.2492     -3262.091       16.841888      7355.5055      10112.159    
     50400   296.99453     -3246.46       -3263.6201      17.160131      6861.0529      10112.159    
     50500   295.9712      -3247.1792     -3264.2802      17.101004      6731.0465      10112.159    
     50600   307.56726     -3246.7643     -3264.5354      17.771016      6383.0849      10112.159    
     50700   292.84479     -3246.6698     -3263.5902      16.920362      6512.9538      10112.159    
     50800   291.87581     -3246.4244     -3263.2888      16.864376      6761.2895      10112.159    
     50900   326.16798     -3245.0003     -3263.8461      18.845753      6911.2661      10112.159    
     51000   323.80032     -3243.8487     -3262.5577      18.708951      7568.9278      10112.159    
     51100   319.75995     -3244.3249     -3262.8004      18.475501      7136.3584      10112.159    
     51200   288.90946     -3246.577      -3263.27        16.692982      7021.0237      10112.159    
     51300   311.41509     -3246.4658     -3264.4591      17.993341      6694.0729      10112.159    
     51400   288.07328     -3246.6786     -3263.3232      16.644668      6672.162       10112.159    
     51500   297.88957     -3246.4151     -3263.6269      17.211846      6859.1631      10112.159    
     51600   313.37102     -3245.9567     -3264.0631      18.106354      6892.2836      10112.159    
     51700   287.50829     -3246.4511     -3263.0632      16.612023      6934.6711      10112.159    
     51800   307.63358     -3246.6608     -3264.4356      17.774848      6709.5518      10112.159    
     51900   297.63071     -3247.1519     -3264.3488      17.19689       6634.393       10112.159    
     52000   281.89373     -3247.5199     -3263.8075      16.287618      6684.2484      10112.159    
     52100   302.24701     -3246.9399     -3264.4035      17.463616      6543.2161      10112.159    
     52200   325.34827     -3245.5011     -3264.2995      18.79839       6720.716       10112.159    
     52300   294.87511     -3245.3778     -3262.4155      17.037673      7069.7884      10112.159    
     52400   304.03028     -3245.7025     -3263.2692      17.566652      7156.429       10112.159    
     52500   289.05657     -3247.624      -3264.3255      16.701482      6418.1962      10112.159    
     52600   298.39977     -3247.6545     -3264.8958      17.241325      6430.2878      10112.159    
     52700   290.94078     -3247.0659     -3263.8763      16.81035       6760.0713      10112.159    
     52800   314.01872     -3245.8101     -3263.9538      18.143777      6920.8799      10112.159    
     52900   288.05346     -3245.8559     -3262.4994      16.643523      7037.7337      10112.159    
     53000   324.97583     -3245.8174     -3264.5942      18.776871      6740.1505      10112.159    
     53100   281.37877     -3247.2153     -3263.4732      16.257864      6521.3557      10112.159    
     53200   303.23539     -3247.6842     -3265.2049      17.520724      6327.2898      10112.159    
     53300   276.23598     -3248.5874     -3264.5481      15.960717      6296.5254      10112.159    
     53400   285.88533     -3247.9322     -3264.4505      16.51825       6511.8439      10112.159    
     53500   302.84724     -3246.4589     -3263.9572      17.498297      6612.0816      10112.159    
     53600   303.01105     -3245.6848     -3263.1926      17.507762      6991.0363      10112.159    
     53700   309.01346     -3245.2552     -3263.1098      17.854577      7281.4779      10112.159    
     53800   298.07172     -3246.1367     -3263.3591      17.222371      6833.1985      10112.159    
     53900   291.90837     -3247.5744     -3264.4407      16.866257      6484.9298      10112.159    
     54000   298.0601      -3247.4504     -3264.6721      17.221699      6461.7139      10112.159    
     54100   287.6229      -3246.8924     -3263.511       16.618646      6713.7749      10112.159    
     54200   306.20909     -3245.6954     -3263.388       17.692542      6894.5533      10112.159    
     54300   302.36077     -3245.5833     -3263.0535      17.470189      7007.0985      10112.159    
     54400   303.35003     -3245.9221     -3263.4495      17.527348      6800.9372      10112.159    
     54500   300.86625     -3246.6573     -3264.0411      17.383837      6573.2003      10112.159    
     54600   301.8429      -3247.0727     -3264.513       17.440267      6579.6345      10112.159    
     54700   290.79966     -3246.9566     -3263.7588      16.802197      7057.2936      10112.159    
     54800   307.76177     -3245.9248     -3263.707       17.782255      6990.1727      10112.159    
     54900   295.5393      -3245.5466     -3262.6226      17.076049      7123.6391      10112.159    
     55000   321.29759     -3245.0945     -3263.6588      18.564345      6905.3062      10112.159    
     55100   296.64763     -3245.8839     -3263.024       17.140088      7037.3556      10112.159    
     55200   290.45465     -3247.2679     -3264.0502      16.782262      6643.2772      10112.159    
     55300   293.64566     -3247.6214     -3264.588       16.966636      6544.5544      10112.159    
     55400   301.83234     -3247.0863     -3264.5259      17.439657      6415.2254      10112.159    
     55500   297.43638     -3246.2962     -3263.4819      17.185661      6805.8162      10112.159    
     55600   304.90907     -3245.8966     -3263.5141      17.617428      6840.6774      10112.159    
     55700   299.40531     -3246.222      -3263.5214      17.299424      6869.0828      10112.159    
     55800   288.87267     -3246.7418     -3263.4326      16.690856      6705.4574      10112.159    
     55900   304.57666     -3246.8557     -3264.4539      17.598221      6879.6148      10112.159    
     56000   294.00222     -3247.381      -3264.3682      16.987238      6330.3294      10112.159    
     56100   295.57461     -3247.3395     -3264.4176      17.07809       6547.1874      10112.159    
     56200   292.29833     -3246.3829     -3263.2717      16.888789      7004.5636      10112.159    
     56300   312.64033     -3245.0781     -3263.1423      18.064135      7330.8514      10112.159    
     56400   315.08842     -3245.2185     -3263.4241      18.205584      6790.3699      10112.159    
     56500   301.12421     -3246.2445     -3263.6432      17.398741      6869.1419      10112.159    
     56600   294.9546      -3246.7446     -3263.7869      17.042266      6520.6354      10112.159    
     56700   288.57891     -3246.7321     -3263.406       16.673883      6967.0518      10112.159    
     56800   309.76427     -3246.2919     -3264.1899      17.897958      6566.9085      10112.159    
     56900   318.35778     -3245.8321     -3264.2266      18.394485      6821.9818      10112.159    
     57000   305.66101     -3244.8154     -3262.4763      17.660875      7217.6425      10112.159    
     57100   303.08452     -3244.8878     -3262.3998      17.512007      7364.398       10112.159    
     57200   309.60616     -3246.1964     -3264.0852      17.888823      6679.9966      10112.159    
     57300   286.67926     -3247.1703     -3263.7344      16.564123      6609.8092      10112.159    
     57400   306.51114     -3246.7065     -3264.4165      17.709995      6801.9774      10112.159    
     57500   299.33811     -3246.5045     -3263.8001      17.295542      6746.7139      10112.159    
     57600   297.28238     -3246.2044     -3263.3811      17.176763      6920.2908      10112.159    
     57700   312.58284     -3244.9752     -3263.036       18.060813      7116.0642      10112.159    
     57800   311.27143     -3244.4585     -3262.4435      17.98504       7165.6585      10112.159    
     57900   317.41983     -3244.8019     -3263.1422      18.340291      7159.2834      10112.159    
     58000   292.28433     -3246.5412     -3263.4292      16.88798       6896.2178      10112.159    
     58100   299.67944     -3247.0453     -3264.3606      17.315264      6645.1133      10112.159    
     58200   295.46152     -3247.1602     -3264.2318      17.071555      6394.2371      10112.159    
     58300   314.62522     -3246.0067     -3264.1855      18.17882       6671.2254      10112.159    
     58400   308.02237     -3244.9108     -3262.7081      17.797312      7023.9986      10112.159    
     58500   308.51669     -3244.5292     -3262.3551      17.825874      7533.9255      10112.159    
     58600   302.62762     -3246.3554     -3263.841       17.485607      6889.8801      10112.159    
     58700   296.86418     -3247.3068     -3264.4594      17.1526        6502.7978      10112.159    
     58800   282.96758     -3247.3708     -3263.7205      16.349665      6734.7782      10112.159    
     58900   313.10435     -3246.3173     -3264.4083      18.090945      6704.1679      10112.159    
     59000   303.63544     -3245.4852     -3263.029       17.543839      6907.1489      10112.159    
     59100   302.79269     -3244.7921     -3262.2872      17.495145      7336.2576      10112.159    
     59200   301.70779     -3246.1065     -3263.5389      17.43246       7032.4048      10112.159    
     59300   304.07572     -3247.3383     -3264.9075      17.569277      6598.5871      10112.159    
     59400   286.78048     -3247.7574     -3264.3274      16.569971      6594.0384      10112.159    
     59500   299.94012     -3246.741      -3264.0713      17.330326      6769.9374      10112.159    
     59600   302.72741     -3245.8907     -3263.3821      17.491373      7080.3953      10112.159    
     59700   293.86785     -3245.9116     -3262.8911      16.979474      6983.8759      10112.159    
     59800   301.09376     -3246.1771     -3263.5741      17.396982      6865.4393      10112.159    
     59900   286.09372     -3248.0356     -3264.5659      16.53029       6407.2878      10112.159    
     60000   299.25818     -3248.1867     -3265.4776      17.290923      6359.3493      10112.159    
     60100   285.63398     -3247.4481     -3263.9518      16.503727      6725.0775      10112.159    
     60200   295.71461     -3246.5331     -3263.6193      17.086179      6797.7391      10112.159    
     60300   298.37738     -3246.3934     -3263.6334      17.240032      6736.2708      10112.159    
     60400   309.85445     -3246.1633     -3264.0664      17.903169      6956.1759      10112.159    
     60500   308.71285     -3245.8058     -3263.643       17.837208      6794.1083      10112.159    
     60600   313.08478     -3245.4264     -3263.5162      18.089815      7001.5733      10112.159    
     60700   297.45892     -3246.1694     -3263.3564      17.186964      6891.8955      10112.159    
     60800   282.32714     -3247.3556     -3263.6683      16.31266       6833.9896      10112.159    
     60900   298.61482     -3247.5932     -3264.8469      17.253751      6408.9227      10112.159    
     61000   303.64947     -3247.0004     -3264.545       17.544649      6382.8688      10112.159    
     61100   313.46532     -3244.9623     -3263.0741      18.111802      7084.7499      10112.159    
     61200   306.6995      -3245.1851     -3262.906       17.720878      7269.4895      10112.159    
     61300   291.15419     -3246.5322     -3263.3549      16.822681      7129.3539      10112.159    
     61400   280.55388     -3247.1983     -3263.4085      16.210203      6654.8694      10112.159    
     61500   328.84284     -3246.6304     -3265.6307      19.000304      6408.1159      10112.159    
     61600   296.84254     -3246.2931     -3263.4445      17.15135       6707.8793      10112.159    
     61700   278.66104     -3244.9293     -3261.0301      16.100836      7472.1607      10112.159    
     61800   318.98803     -3245.0919     -3263.5228      18.4309        7126.6072      10112.159    
     61900   315.44797     -3245.7003     -3263.9266      18.226358      6651.9693      10112.159    
     62000   310.04422     -3246.0947     -3264.0088      17.914133      6871.2858      10112.159    
     62100   296.04477     -3246.8618     -3263.967       17.105255      6838.0471      10112.159    
     62200   277.68173     -3247.8799     -3263.9242      16.044251      6743.8802      10112.159    
     62300   297.3864      -3247.3665     -3264.5492      17.182773      6548.7595      10112.159    
     62400   306.44438     -3245.5341     -3263.2403      17.706137      7270.8185      10112.159    
     62500   315.55817     -3245.0992     -3263.3319      18.232725      7064.0809      10112.159    
     62600   299.19433     -3246.0288     -3263.316       17.287234      6820.2132      10112.159    
     62700   304.13339     -3246.6856     -3264.2582      17.57261       6819.4321      10112.159    
     62800   283.72        -3247.0081     -3263.4012      16.393139      7022.3067      10112.159    
     62900   299.0323      -3246.7341     -3264.012       17.277873      6434.8773      10112.159    
     63000   304.90791     -3246.7079     -3264.3253      17.617361      6542.7071      10112.159    
     63100   301.58912     -3246.3754     -3263.801       17.425604      6819.8264      10112.159    
     63200   304.51488     -3244.93       -3262.5247      17.594652      7143.4584      10112.159    
     63300   321.94871     -3243.6959     -3262.2979      18.601966      7497.9842      10112.159    
     63400   320.90195     -3244.9939     -3263.5353      18.541485      6878.8389      10112.159    
     63500   291.89925     -3246.7817     -3263.6474      16.86573       6417.1431      10112.159    
     63600   295.17752     -3247.3008     -3264.356       17.055146      6632.0668      10112.159    
     63700   295.84871     -3247.3359     -3264.4298      17.093927      6677.743       10112.159    
     63800   292.1503      -3246.3826     -3263.2629      16.880235      6680.4227      10112.159    
     63900   324.44386     -3245.0271     -3263.7732      18.746134      6796.9758      10112.159    
     64000   304.14887     -3245.4471     -3263.0206      17.573504      7192.8571      10112.159    
     64100   296.85734     -3246.3686     -3263.5208      17.152205      6698.4443      10112.159    
     64200   285.39339     -3246.8213     -3263.3111      16.489826      6989.4982      10112.159    
     64300   304.25196     -3246.6948     -3264.2743      17.579461      6879.7181      10112.159    
     64400   303.20519     -3246.6523     -3264.1713      17.518979      6590.6526      10112.159    
     64500   318.9835      -3246.1444     -3264.5751      18.430638      6847.3922      10112.159    
     64600   285.15378     -3245.6822     -3262.1582      16.475982      7194.4862      10112.159    
     64700   305.5699      -3244.6341     -3262.2897      17.655611      7442.9316      10112.159    
     64800   316.07051     -3245.416      -3263.6784      18.262328      7023.7154      10112.159    
     64900   297.11446     -3246.841      -3264.008       17.167061      6907.5535      10112.159    
     65000   292.11612     -3246.9285     -3263.8067      16.87826       6928.7133      10112.159    
     65100   289.41689     -3246.4879     -3263.2102      16.722301      6800.1272      10112.159    
     65200   321.65661     -3245.2001     -3263.7852      18.585089      6918.4036      10112.159    
     65300   315.7515      -3244.3214     -3262.5653      18.243896      7194.5042      10112.159    
     65400   295.23844     -3245.3198     -3262.3785      17.058666      7171.3008      10112.159    
     65500   306.25606     -3246.7588     -3264.4541      17.695256      6876.5875      10112.159    
     65600   293.50016     -3247.4147     -3264.3729      16.958229      6609.242       10112.159    
     65700   289.14621     -3247.1336     -3263.8402      16.706661      6624.9064      10112.159    
     65800   304.99895     -3245.84       -3263.4626      17.622621      6940.3693      10112.159    
     65900   300.14747     -3245.4892     -3262.8315      17.342306      7202.0428      10112.159    
     66000   324.73697     -3245.602      -3264.3651      18.76307       6900.7146      10112.159    
     66100   294.45729     -3246.0253     -3263.0388      17.013531      7107.9715      10112.159    
     66200   293.51893     -3246.3017     -3263.261       16.959314      7238.4921      10112.159    
     66300   313.64339     -3246.4209     -3264.543       18.122091      6649.9498      10112.159    
     66400   291.08401     -3247.148      -3263.9666      16.818626      6509.477       10112.159    
     66500   276.94632     -3248.1467     -3264.1484      16.00176       6444.1395      10112.159    
     66600   294.06438     -3247.6495     -3264.6403      16.99083       6629.9686      10112.159    
     66700   309.65994     -3245.8504     -3263.7423      17.89193       6592.2576      10112.159    
     66800   295.26527     -3245.7193     -3262.7796      17.060216      7241.8528      10112.159    
     66900   310.23607     -3245.7808     -3263.706       17.925218      7109.1664      10112.159    
     67000   280.32044     -3247.143      -3263.3397      16.196714      6816.4311      10112.159    
     67100   305.49522     -3247.5095     -3265.1608      17.651295      6465.5184      10112.159    
     67200   285.76003     -3247.5162     -3264.0272      16.51101       6797.8473      10112.159    
     67300   308.09983     -3245.2687     -3263.0705      17.801788      7053.0849      10112.159    
     67400   311.58        -3244.9655     -3262.9684      18.002869      6982.9629      10112.159    
     67500   310.71795     -3245.9342     -3263.8873      17.953061      6731.4232      10112.159    
     67600   294.57335     -3247.1162     -3264.1364      17.020237      6674.4996      10112.159    
     67700   293.79629     -3247.261      -3264.2364      16.97534       6540.5441      10112.159    
     67800   302.93481     -3246.4844     -3263.9877      17.503357      6756.8571      10112.159    
     67900   318.42398     -3244.9159     -3263.3142      18.39831       6807.6797      10112.159    
     68000   306.58705     -3244.8763     -3262.5907      17.714381      7496.6103      10112.159    
     68100   304.71472     -3245.3786     -3262.9848      17.606199      7079.9236      10112.159    
     68200   298.88021     -3246.3978     -3263.6669      17.269085      6907.7533      10112.159    
     68300   303.35712     -3247.1359     -3264.6637      17.527757      6566.3507      10112.159    
     68400   283.96738     -3247.3455     -3263.753       16.407432      6749.4862      10112.159    
     68500   318.6877      -3245.6499     -3264.0635      18.413547      6826.7696      10112.159    
     68600   308.43228     -3245.1928     -3263.0138      17.820997      7060.1058      10112.159    
     68700   304.38607     -3245.6305     -3263.2177      17.587209      6924.9656      10112.159    
     68800   304.93655     -3246.3037     -3263.9227      17.619016      6984.3349      10112.159    
     68900   291.48248     -3246.6373     -3263.4789      16.841649      6689.4074      10112.159    
     69000   300.23294     -3246.5708     -3263.9181      17.347244      6684.8873      10112.159    
     69100   299.48979     -3246.6341     -3263.9384      17.304306      6594.8126      10112.159    
     69200   309.07507     -3246.1566     -3264.0147      17.858136      6855.0315      10112.159    
     69300   303.32665     -3244.0328     -3261.5588      17.525997      7447.5098      10112.159    
     69400   326.20609     -3243.4286     -3262.2766      18.847954      7714.4957      10112.159    
     69500   314.7105      -3244.8645     -3263.0482      18.183748      6917.0082      10112.159    
     69600   320.7765      -3245.7819     -3264.3162      18.534237      6928.7318      10112.159    
     69700   292.37341     -3246.8554     -3263.7486      16.893127      6647.4738      10112.159    
     69800   279.78687     -3247.0705     -3263.2364      16.165885      6856.1919      10112.159    
     69900   315.28947     -3246.1795     -3264.3967      18.2172        6571.2542      10112.159    
     70000   307.86068     -3245.4593     -3263.2473      17.78797       7010.9187      10112.159    
     70100   327.40591     -3243.9998     -3262.9171      18.917279      7240.8085      10112.159    
     70200   293.26729     -3244.9099     -3261.8547      16.944774      7392.9509      10112.159    
     70300   304.41195     -3245.9649     -3263.5536      17.588705      6902.5117      10112.159    
     70400   313.18753     -3246.5124     -3264.6082      18.095751      6502.799       10112.159    
     70500   291.08774     -3246.9501     -3263.7689      16.818841      6678.1414      10112.159    
     70600   299.05096     -3246.7078     -3263.9868      17.278951      6595.8503      10112.159    
     70700   305.11594     -3245.6572     -3263.2866      17.629381      7038.7428      10112.159    
     70800   299.12899     -3244.6601     -3261.9435      17.283459      7292.8271      10112.159    
     70900   309.81406     -3245.4972     -3263.398       17.900835      7052.7777      10112.159    
     71000   303.38887     -3246.5383     -3264.0679      17.529592      6460.4743      10112.159    
     71100   299.80204     -3246.6857     -3264.0081      17.322348      6817.7558      10112.159    
     71200   292.36971     -3247.057      -3263.9499      16.892913      6815.3237      10112.159    
     71300   286.68586     -3247.6384     -3264.2029      16.564504      6474.0615      10112.159    
     71400   288.02642     -3247.3378     -3263.9798      16.641961      6569.1163      10112.159    
     71500   327.50807     -3245.772      -3264.6952      18.923182      6697.444       10112.159    
     71600   288.90002     -3245.8766     -3262.569       16.692436      7275.819       10112.159    
     71700   296.8919      -3246.1953     -3263.3495      17.154202      6737.0427      10112.159    
     71800   295.86832     -3247.2523     -3264.3473      17.09506       6780.7898      10112.159    
     71900   300.76121     -3248.0215     -3265.3993      17.377768      6092.956       10112.159    
     72000   293.00925     -3247.6738     -3264.6037      16.929865      6689.7524      10112.159    
     72100   292.55504     -3245.919      -3262.8226      16.903621      6841.0314      10112.159    
     72200   308.06749     -3245.126      -3262.9259      17.799919      7026.6233      10112.159    
     72300   306.42542     -3245.4946     -3263.1997      17.705042      7092.4851      10112.159    
     72400   290.90653     -3247.0597     -3263.8681      16.808371      6793.3358      10112.159    
     72500   305.37731     -3247.3043     -3264.9488      17.644483      6339.2768      10112.159    
     72600   295.45456     -3246.8743     -3263.9455      17.071153      6751.1719      10112.159    
     72700   291.60184     -3246.2697     -3263.1182      16.848546      6916.516       10112.159    
     72800   306.03941     -3245.9362     -3263.619       17.682738      7020.3279      10112.159    
     72900   295.91976     -3246.451      -3263.549       17.098032      6816.7196      10112.159    
     73000   302.10187     -3247.6798     -3265.135       17.45523       6372.9676      10112.159    
     73100   294.20407     -3247.9627     -3264.9616      16.998901      6297.7061      10112.159    
     73200   290.14201     -3246.8713     -3263.6355      16.764198      6795.6516      10112.159    
     73300   291.13501     -3245.99       -3262.8116      16.821573      7114.1422      10112.159    
     73400   309.14566     -3245.6135     -3263.4757      17.862215      6925.2907      10112.159    
     73500   324.80534     -3245.8271     -3264.5942      18.76702       6740.1362      10112.159    
     73600   298.56522     -3246.6331     -3263.884       17.250885      6907.8138      10112.159    
     73700   283.74901     -3246.7733     -3263.1681      16.394815      6767.5967      10112.159    
     73800   288.92067     -3246.5007     -3263.1943      16.69363       7033.3432      10112.159    
     73900   315.21773     -3245.9014     -3264.1145      18.213055      6665.0973      10112.159    
     74000   308.66253     -3246.0218     -3263.8561      17.834301      6975.9555      10112.159    
     74100   283.07371     -3247.025      -3263.3808      16.355797      6791.3418      10112.159    
     74200   288.57007     -3247.2297     -3263.9031      16.673372      6640.3295      10112.159    
     74300   290.11522     -3247.1608     -3263.9235      16.76265       6871.1583      10112.159    
     74400   305.36736     -3246.2852     -3263.9291      17.643908      6639.7944      10112.159    
     74500   307.01577     -3245.2664     -3263.0056      17.739152      7043.5833      10112.159    
     74600   323.16758     -3244.5764     -3263.2488      18.672392      7048.7327      10112.159    
     74700   299.76177     -3246.0271     -3263.3472      17.320021      7104.6904      10112.159    
     74800   301.81527     -3246.8071     -3264.2457      17.438671      6689.3835      10112.159    
     74900   283.64737     -3247.0462     -3263.4351      16.388942      6697.3068      10112.159    
     75000   310.67826     -3246.4246     -3264.3754      17.950768      6689.892       10112.159    
     75100   314.73099     -3245.5942     -3263.7791      18.184932      6673.0701      10112.159    
     75200   304.51324     -3244.8427     -3262.4373      17.594557      7297.7106      10112.159    
     75300   296.98244     -3244.895      -3262.0545      17.159433      7392.2789      10112.159    
     75400   311.1326      -3246.1574     -3264.1344      17.977019      6784.2331      10112.159    
[...]
    281800   313.60077     -3245.4398     -3263.5594      18.119628      7145.8999      10112.159    
    281900   301.6776      -3245.6308     -3263.0615      17.430716      7218.9194      10112.159    
    282000   306.11429     -3246.4274     -3264.1145      17.687064      6621.6998      10112.159    
    282100   290.88572     -3248.0011     -3264.8082      16.807169      6319.9306      10112.159    
    282200   298.23813     -3247.8323     -3265.0643      17.231986      6562.1074      10112.159    
    282300   295.4116      -3246.6023     -3263.671       17.068671      7004.0576      10112.159    
    282400   295.32271     -3246.0376     -3263.1011      17.063535      7167.4577      10112.159    
    282500   300.19351     -3246.0033     -3263.3483      17.344966      7011.7646      10112.159    
    282600   312.69825     -3246.1855     -3264.253       18.067481      6768.5169      10112.159    
    282700   284.02806     -3247.6891     -3264.1         16.410938      6691.1054      10112.159    
    282800   286.17251     -3247.9758     -3264.5106      16.534843      6536.4366      10112.159    
    282900   291.16872     -3246.8849     -3263.7084      16.82352       6817.6554      10112.159    
    283000   305.23977     -3246.2611     -3263.8976      17.636536      6801.5345      10112.159    
    283100   307.30266     -3246.0034     -3263.7591      17.755728      6871.3333      10112.159    
    283200   298.8942      -3246.2265     -3263.4964      17.269893      7156.6725      10112.159    
    283300   287.92314     -3247.1611     -3263.7971      16.635993      6814.2324      10112.159    
    283400   284.47662     -3247.8342     -3264.271       16.436856      6753.9443      10112.159    
    283500   305.89023     -3247.521      -3265.1951      17.674119      6350.6917      10112.159    
    283600   300.42769     -3246.2306     -3263.5891      17.358497      6870.6773      10112.159    
    283700   310.07729     -3245.3327     -3263.2487      17.916044      7155.4717      10112.159    
    283800   297.66283     -3245.5486     -3262.7473      17.198745      6951.401       10112.159    
    283900   310.53727     -3246.6996     -3264.6423      17.942621      6740.3181      10112.159    
    284000   283.77163     -3248.0985     -3264.4946      16.396122      6524.5461      10112.159    
    284100   288.30255     -3247.4749     -3264.1328      16.657915      6826.756       10112.159    
    284200   292.34084     -3246.2782     -3263.1694      16.891245      7032.5395      10112.159    
    284300   309.71746     -3245.6257     -3263.521       17.895253      7232.8731      10112.159    
    284400   310.64848     -3245.8386     -3263.7877      17.949047      6754.134       10112.159    
    284500   304.25481     -3246.6408     -3264.2204      17.579625      6643.5035      10112.159    
    284600   272.63521     -3248.5332     -3264.2859      15.752668      6539.4588      10112.159    
    284700   279.69223     -3248.3542     -3264.5147      16.160417      6901.2009      10112.159    
    284800   294.99485     -3247.3059     -3264.3505      17.044592      6421.0636      10112.159    
    284900   316.18625     -3246.3413     -3264.6103      18.269015      6946.9934      10112.159    
    285000   289.80386     -3246.1551     -3262.8998      16.74466       6971.0255      10112.159    
    285100   312.707       -3245.3513     -3263.4193      18.067987      7178.1097      10112.159    
    285200   313.14521     -3244.8892     -3262.9825      18.093306      7071.9683      10112.159    
    285300   303.56219     -3245.3387     -3262.8783      17.539606      7227.9114      10112.159    
    285400   303.52899     -3246.7299     -3264.2676      17.537688      6906.9216      10112.159    
    285500   296.00337     -3247.3805     -3264.4834      17.102863      6675.919       10112.159    
    285600   282.80318     -3247.2524     -3263.5926      16.340165      6731.7416      10112.159    
    285700   312.56656     -3245.6004     -3263.6603      18.059872      7126.4004      10112.159    
    285800   301.16021     -3245.1893     -3262.5901      17.400822      7379.2578      10112.159    
    285900   321.23854     -3245.513      -3264.0739      18.560933      6919.4148      10112.159    
    286000   304.79194     -3246.1639     -3263.7745      17.61066       6956.1575      10112.159    
    286100   288.47913     -3246.585      -3263.2531      16.668118      6987.3618      10112.159    
    286200   301.76519     -3246.6138     -3264.0496      17.435777      6739.1102      10112.159    
    286300   293.0921      -3247.2382     -3264.1728      16.934652      6663.6712      10112.159    
    286400   285.87141     -3248.2541     -3264.7715      16.517446      6473.2536      10112.159    
    286500   304.98651     -3247.5889     -3265.2108      17.621902      6557.8583      10112.159    
    286600   288.9436      -3246.3552     -3263.0502      16.694955      7130.949       10112.159    
    286700   302.76747     -3245.6117     -3263.1053      17.493688      7278.5417      10112.159    
    286800   315.65318     -3245.8508     -3264.089       18.238215      6982.1885      10112.159    
    286900   296.36509     -3246.7415     -3263.8652      17.123763      6959.7519      10112.159    
    287000   297.92025     -3246.798      -3264.0116      17.213619      6709.2675      10112.159    
    287100   299.40755     -3246.584      -3263.8835      17.299554      7085.1787      10112.159    
    287200   291.8839      -3246.7571     -3263.622       16.864843      6997.4909      10112.159    
    287300   303.26293     -3246.525      -3264.0473      17.522315      6989.6334      10112.159    
    287400   313.98586     -3245.8028     -3263.9447      18.141879      6747.1565      10112.159    
    287500   293.97805     -3245.813      -3262.7989      16.985841      7370.4602      10112.159    
    287600   283.93804     -3247.7654     -3264.1712      16.405737      6958.5408      10112.159    
    287700   292.53963     -3248.1878     -3265.0905      16.902731      6423.9003      10112.159    
    287800   303.11574     -3247.2003     -3264.7141      17.513811      6783.6728      10112.159    
    287900   288.91962     -3246.3207     -3263.0143      16.693569      7107.8707      10112.159    
    288000   323.55334     -3245.6715     -3264.3662      18.694681      7044.9621      10112.159    
    288100   291.6406      -3246.2369     -3263.0877      16.850785      6957.135       10112.159    
    288200   297.3107      -3246.4363     -3263.6147      17.1784        6977.6549      10112.159    
    288300   307.09538     -3246.5753     -3264.319       17.743751      6928.9446      10112.159    
    288400   283.3178      -3246.9741     -3263.344       16.3699        6989.2891      10112.159    
    288500   314.55844     -3245.7654     -3263.9404      18.174962      6780.629       10112.159    
    288600   319.26198     -3244.5744     -3263.0211      18.446729      7321.5888      10112.159    
    288700   296.80916     -3245.1936     -3262.343       17.149421      7184.521       10112.159    
    288800   310.71592     -3246.4225     -3264.3755      17.952944      7000.9792      10112.159    
    288900   294.51582     -3247.3122     -3264.3291      17.016914      6525.6602      10112.159    
    289000   289.68659     -3247.1235     -3263.8614      16.737884      7005.8372      10112.159    
    289100   305.84413     -3246.3449     -3264.0164      17.671455      7018.3157      10112.159    
    289200   315.03466     -3245.4253     -3263.6277      18.202477      6899.0109      10112.159    
    289300   315.2594      -3243.5353     -3261.7507      18.215462      7630.7765      10112.159    
    289400   338.38324     -3243.8985     -3263.45        19.551542      7065.7995      10112.159    
    289500   313.63529     -3245.4197     -3263.5413      18.121623      7169.1946      10112.159    
    289600   295.31373     -3246.5727     -3263.6357      17.063016      7170.6455      10112.159    
    289700   299.2301      -3246.8967     -3264.186       17.289301      6673.2357      10112.159    
    289800   294.24294     -3246.8916     -3263.8928      17.001146      6982.2231      10112.159    
    289900   298.49425     -3246.8836     -3264.1304      17.246784      6964.8828      10112.159    
    290000   296.05895     -3246.3056     -3263.4117      17.106074      7069.8719      10112.159    
    290100   317.62563     -3245.1205     -3263.4726      18.352182      6923.5365      10112.159    
    290200   298.69734     -3245.702      -3262.9606      17.258519      7197.4155      10112.159    
    290300   289.25242     -3247.0324     -3263.7452      16.712798      6756.3475      10112.159    
    290400   301.95213     -3247.3529     -3264.7995      17.446578      6595.0429      10112.159    
    290500   283.10091     -3247.11       -3263.4674      16.357368      6830.3803      10112.159    
    290600   308.18198     -3246.3068     -3264.1133      17.806535      6911.7068      10112.159    
    290700   305.26609     -3246.3953     -3264.0334      17.638057      6679.9724      10112.159    
    290800   287.81487     -3246.9159     -3263.5456      16.629737      6759.1918      10112.159    
    290900   294.15754     -3246.7763     -3263.7726      16.996212      6883.3791      10112.159    
    291000   307.78687     -3246.1851     -3263.9688      17.783705      6882.4661      10112.159    
    291100   301.91807     -3245.9755     -3263.4202      17.44461       6817.7282      10112.159    
    291200   301.72584     -3245.7711     -3263.2046      17.433503      7060.4333      10112.159    
    291300   301.4393      -3245.915      -3263.332       17.416947      6803.6162      10112.159    
    291400   299.93835     -3247.1042     -3264.4344      17.330223      6787.2789      10112.159    
    291500   288.06781     -3247.7843     -3264.4287      16.644352      6718.0575      10112.159    
    291600   299.19501     -3247.0208     -3264.308       17.287273      6640.65        10112.159    
    291700   297.93723     -3245.9907     -3263.2053      17.2146        7050.0691      10112.159    
    291800   310.70245     -3245.4728     -3263.425       17.952165      7084.5347      10112.159    
    291900   297.83119     -3245.8243     -3263.0328      17.208473      7015.2768      10112.159    
    292000   307.44524     -3246.2502     -3264.0141      17.763966      6803.7921      10112.159    
    292100   288.78459     -3247.1054     -3263.7911      16.685767      6697.451       10112.159    
    292200   296.47495     -3247.1322     -3264.2623      17.130111      6776.5711      10112.159    
    292300   314.68793     -3245.9427     -3264.1252      18.182443      6866.301       10112.159    
    292400   299.94209     -3244.9939     -3262.3244      17.33044       7225.6487      10112.159    
    292500   318.56773     -3244.5671     -3262.9737      18.406616      7256.5025      10112.159    
    292600   290.96952     -3246.475      -3263.287       16.81201       7034.4216      10112.159    
    292700   298.41093     -3247.0221     -3264.2641      17.24197       6515.3101      10112.159    
    292800   302.97732     -3246.8056     -3264.3114      17.505813      6667.7103      10112.159    
    292900   284.84945     -3246.184      -3262.6424      16.458398      7057.3162      10112.159    
    293000   319.75337     -3244.9779     -3263.4531      18.475121      6888.9296      10112.159    
    293100   309.65517     -3245.5453     -3263.4369      17.891654      7237.2903      10112.159    
    293200   289.1982      -3247.4176     -3264.1272      16.709665      6538.8976      10112.159    
    293300   295.90216     -3247.6889     -3264.7859      17.097015      6563.7047      10112.159    
    293400   288.63357     -3247.2819     -3263.959       16.677041      6783.0853      10112.159    
    293500   289.82015     -3246.164      -3262.9096      16.745601      7029.2577      10112.159    
    293600   313.78398     -3245.5052     -3263.6355      18.130214      6970.6426      10112.159    
    293700   321.22934     -3245.8295     -3264.3899      18.560402      6607.5348      10112.159    
    293800   288.52045     -3246.6062     -3263.2768      16.670506      7085.7801      10112.159    
    293900   291.84031     -3246.7933     -3263.6556      16.862324      6874.0621      10112.159    
    294000   296.3688      -3246.7704     -3263.8944      17.123977      6919.0437      10112.159    
    294100   322.31503     -3245.1733     -3263.7964      18.623132      6955.1265      10112.159    
    294200   304.47184     -3244.8816     -3262.4737      17.592165      7358.9745      10112.159    
    294300   295.06814     -3246.0328     -3263.0817      17.048826      6996.6096      10112.159    
    294400   309.12704     -3246.9475     -3264.8086      17.861139      6477.278       10112.159    
    294500   281.8923      -3247.2596     -3263.5471      16.287536      7044.4278      10112.159    
    294600   304.64098     -3246.7893     -3264.3913      17.601938      6576.6163      10112.159    
    294700   290.88052     -3246.7754     -3263.5823      16.806868      6874.4268      10112.159    
    294800   312.9504      -3246.0182     -3264.1002      18.08205       6891.7459      10112.159    
    294900   298.93171     -3246.2348     -3263.5068      17.272061      7175.1613      10112.159    
    295000   310.90706     -3246.3247     -3264.2887      17.963987      6580.0754      10112.159    
    295100   284.75061     -3246.6937     -3263.1464      16.452687      7048.6634      10112.159    
    295200   297.64653     -3246.1234     -3263.3212      17.197804      6760.3515      10112.159    
    295300   323.24532     -3244.3818     -3263.0587      18.676884      7302.8616      10112.159    
    295400   313.79661     -3244.8359     -3262.9669      18.130944      7217.4609      10112.159    
    295500   301.15457     -3246.1838     -3263.5843      17.400496      7134.3361      10112.159    
    295600   297.48574     -3246.7846     -3263.9731      17.188513      6773.6625      10112.159    
    295700   295.61794     -3246.998      -3264.0786      17.080593      6773.7668      10112.159    
    295800   308.46453     -3246.4602     -3264.2831      17.82286       6699.2067      10112.159    
    295900   308.93142     -3244.8454     -3262.6952      17.849836      7182.001       10112.159    
    296000   316.8664      -3243.8577     -3262.1661      18.308314      7607.5169      10112.159    
    296100   315.94275     -3244.8331     -3263.0881      18.254946      7078.4911      10112.159    
    296200   317.96769     -3245.707      -3264.0789      18.371946      6977.5522      10112.159    
    296300   291.8114      -3246.6138     -3263.4744      16.860654      6631.6463      10112.159    
    296400   294.77433     -3246.7856     -3263.8174      17.03185       6968.6676      10112.159    
    296500   289.40524     -3246.9737     -3263.6954      16.721628      6767.9511      10112.159    
    296600   305.61398     -3246.9933     -3264.6515      17.658157      6568.2073      10112.159    
    296700   292.05285     -3246.627      -3263.5016      16.874605      7029.3634      10112.159    
    296800   310.07959     -3245.4351     -3263.3513      17.916177      7090.7692      10112.159    
    296900   293.45357     -3245.3735     -3262.329       16.955537      7046.8703      10112.159    
    297000   322.28582     -3245.9734     -3264.5949      18.621444      6608.8021      10112.159    
    297100   285.23606     -3247.5535     -3264.0343      16.480736      6618.9967      10112.159    
    297200   306.38056     -3247.0253     -3264.7278      17.70245       6593.3108      10112.159    
    297300   290.2141      -3246.4935     -3263.2618      16.768363      6989.6606      10112.159    
    297400   319.51435     -3245.1181     -3263.5794      18.461311      6919.7041      10112.159    
    297500   298.24221     -3245.0438     -3262.276       17.232221      7260.8399      10112.159    
    297600   308.6703      -3246.1393     -3263.9741      17.834749      6779.4567      10112.159    
    297700   298.14265     -3247.8804     -3265.1069      17.226469      6281.106       10112.159    
    297800   287.85203     -3247.7902     -3264.4221      16.631885      6523.1337      10112.159    
    297900   299.13777     -3246.5266     -3263.8105      17.283966      7056.5769      10112.159    
    298000   292.6421      -3245.6511     -3262.5598      16.908651      7048.1424      10112.159    
    298100   326.55111     -3245.1856     -3264.0535      18.867889      7024.2599      10112.159    
    298200   298.00131     -3246.1629     -3263.3812      17.218302      6743.3542      10112.159    
    298300   294.86822     -3246.5617     -3263.599       17.037275      6920.6857      10112.159    
    298400   293.48309     -3246.7889     -3263.7462      16.957243      6758.5952      10112.159    
    298500   307.51192     -3246.4449     -3264.2128      17.767819      6699.4812      10112.159    
    298600   302.22744     -3245.6306     -3263.0931      17.462485      6870.8268      10112.159    
    298700   314.49854     -3244.3048     -3262.4763      18.171501      7507.6071      10112.159    
    298800   305.86689     -3244.5757     -3262.2484      17.67277       7187.6002      10112.159    
    298900   318.65352     -3246.6704     -3265.082       18.411572      6653.6289      10112.159    
    299000   283.63033     -3247.4526     -3263.8406      16.387957      6592.3701      10112.159    
    299100   290.67625     -3246.7949     -3263.59        16.795066      6856.8091      10112.159    
    299200   310.65261     -3245.684      -3263.6332      17.949285      6958.1345      10112.159    
    299300   302.18054     -3245.4788     -3262.9386      17.459775      7390.6533      10112.159    
    299400   306.1339      -3246.1527     -3263.8409      17.688198      6867.6856      10112.159    
    299500   293.31655     -3247.8706     -3264.8183      16.947621      6763.4764      10112.159    
    299600   287.15085     -3247.7985     -3264.3898      16.59137       6412.744       10112.159    
    299700   293.14917     -3246.6864     -3263.6243      16.93795       7160.5685      10112.159    
    299800   294.74807     -3245.9727     -3263.003       17.030333      7099.9431      10112.159    
    299900   319.3394      -3245.6545     -3264.1057      18.451202      6836.6004      10112.159    
    300000   306.64172     -3246.0681     -3263.7857      17.717539      6980.4824      10112.159    
Loop time of 2255.19 on 20 procs for 300000 steps with 448 atoms

Performance: 11.493 ns/day, 2.088 hours/ns, 133.026 timesteps/s, 59.596 katom-step/s
99.9% CPU use with 20 MPI tasks x 1 OpenMP threads

MPI task timing breakdown:
Section |  min time  |  avg time  |  max time  |%varavg| %total
---------------------------------------------------------------
Pair    | 1746.4     | 1998.1     | 2158.1     | 414.2 | 88.60
Neigh   | 20.29      | 28.46      | 34.75      | 120.8 |  1.26
Comm    | 61.738     | 225.55     | 485.57     |1275.6 | 10.00
Output  | 0.35371    | 0.59102    | 0.65818    |   8.1 |  0.03
Modify  | 2.0898     | 2.2415     | 2.4799     |   6.9 |  0.10
Other   |            | 0.2845     |            |       |  0.01

Nlocal:           22.4 ave          24 max          19 min
Histogram: 4 0 0 0 4 0 0 0 0 12
Nghost:          496.8 ave         521 max         466 min
Histogram: 4 0 0 4 4 0 0 0 0 8
Neighs:              0 ave           0 max           0 min
Histogram: 20 0 0 0 0 0 0 0 0 0
FullNghs:       1277.6 ave        1375 max        1077 min
Histogram: 4 0 0 1 3 0 0 0 0 12

Total # of neighbors = 25552
Ave neighs/atom = 57.035714
Neighbor list builds = 300000
Dangerous builds not checked
Total wall time: 0:37:35
