LAMMPS (2 Aug 2023 - Development - patch_2Aug2023-219-g06e2d5d306)
units          metal
boundary       p p p
atom_style     atomic
neigh_modify   delay 0 every 1 check no
read_data     tetrag_hfo2_sample_DATA
Reading data file ...
  orthogonal box = (0 0 0) to (10.956 10.956 10.629)
  1 by 1 by 1 MPI processor grid
  reading atoms ...
  108 atoms
  read_data CPU = 0.004 seconds
pair_style     pace
ACE version: 2022.6.27
Recursive evaluator is used
pair_coeff     * * Siviraman_GAP_HfO2_N3_rcut5_maxdeg10_regQR.yace Hf O
Loading Siviraman_GAP_HfO2_N3_rcut5_maxdeg10_regQR.yace
Total number of basis functions
	O: 20 (r=1) 1166 (r>1)
	Hf: 20 (r=1) 1166 (r>1)
Mapping LAMMPS atom type #1(Hf) -> ACE species type #1
Mapping LAMMPS atom type #2(O) -> ACE species type #0
variable T        equal  2000
variable Tdamp    equal  0.1
variable Tseed    equal  12280329
variable dumpf    equal  1
velocity     all create $T ${Tseed} mom yes rot yes dist gaussian
velocity     all create 2000 ${Tseed} mom yes rot yes dist gaussian
velocity     all create 2000 12280329 mom yes rot yes dist gaussian
thermo       1
thermo_style custom step temp pe ke etotal press
dump           run_forces all custom ${dumpf} dump_batch.custom id type x y z fx fy fz vx vy vz
dump           run_forces all custom 1 dump_batch.custom id type x y z fx fy fz vx vy vz
dump_modify    run_forces sort id format line "%4d %1d %32.27f %32.27f %32.27f %32.27f %32.27f %32.27f %32.27f %32.27f %32.27f" 
fix          nvt all nvt temp $T $T ${Tdamp}
fix          nvt all nvt temp 2000 $T ${Tdamp}
fix          nvt all nvt temp 2000 2000 ${Tdamp}
fix          nvt all nvt temp 2000 2000 0.1
run 50
Neighbor list info ...
  update: every = 1 steps, delay = 0 steps, check = no
  max neighbors/atom: 2000, page size: 100000
  master list distance cutoff = 7
  ghost atom cutoff = 7
  binsize = 3.5, bins = 4 4 4
  1 neighbor lists, perpetual/occasional/extra = 1 0 0
  (1) pair pace, perpetual
      attributes: full, newton on
      pair build: full/bin/atomonly
      stencil: full/bin/3d
      bin: standard
Per MPI rank memory allocation (min/avg/max) = 2.602 | 2.602 | 2.602 Mbytes
   Step          Temp          PotEng         KinEng         TotEng         Press     
         0   2000          -1063.1311      27.661671     -1035.4694      29976.049    
         1   1995.1938     -1063.064       27.595197     -1035.4688      30177.72     
         2   1994.3479     -1063.0521      27.583498     -1035.4686      30186.459    
         3   1997.7148     -1063.0988      27.630064     -1035.4688      29996.983    
         4   2005.101      -1063.2015      27.732222     -1035.4693      29615.899    
         5   2015.9073     -1063.3518      27.881682     -1035.4701      29057.715    
         6   2029.2375     -1063.5372      28.066051     -1035.4711      28370.15     
         7   2044.0541     -1063.7431      28.270977     -1035.4721      27596.432    
         8   2059.3475     -1063.9555      28.482496     -1035.4731      26742.195    
         9   2074.2689     -1064.1628      28.688872     -1035.4739      25835.298    
        10   2088.2132     -1064.3565      28.881734     -1035.4748      24913.96     
        11   2100.8719     -1064.5324      29.056814     -1035.4756      24004.468    
        12   2112.218      -1064.6902      29.21374      -1035.4765      23100.4      
        13   2122.4276     -1064.8325      29.354946     -1035.4776      22179.988    
        14   2131.7668     -1064.9633      29.484117     -1035.4791      21254.954    
        15   2140.4682     -1065.0857      29.604464     -1035.4812      20319.525    
        16   2148.6208     -1065.2012      29.717221     -1035.484       19355.987    
        17   2156.111      -1065.3082      29.820816     -1035.4874      18355.433    
        18   2162.6167     -1065.4022      29.910796     -1035.4914      17340.839    
        19   2167.6512     -1065.4765      29.980428     -1035.496       16341.203    
        20   2170.6574     -1065.5232      30.022006     -1035.5012      15390.536    
        21   2171.1198     -1065.5351      30.028401     -1035.5067      14521.991    
        22   2168.6625     -1065.507       29.994415     -1035.5126      13767.462    
        23   2163.1467     -1065.4368      29.918126     -1035.5187      13157.425    
        24   2154.7141     -1065.3265      29.801496     -1035.5251      12711.91     
        25   2143.756      -1065.1817      29.649936     -1035.5317      12453.666    
        26   2130.8407     -1065.0101      29.471308     -1035.5387      12389.305    
        27   2116.6042     -1064.8206      29.274405     -1035.5462      12510.123    
        28   2101.6249     -1064.6214      29.067229     -1035.5542      12814.269    
        29   2086.3054     -1064.418       28.855346     -1035.5626      13302.242    
        30   2070.8089     -1064.2126      28.641017     -1035.5716      13938.532    
        31   2055.0738     -1064.0042      28.423388     -1035.5808      14714.491    
        32   2038.8861     -1063.7897      28.199499     -1035.5902      15632.372    
        33   2021.9783     -1063.5653      27.965649     -1035.5997      16663.456    
        34   2004.1486     -1063.328       27.71905      -1035.6089      17788.987    
        35   1985.4061     -1063.0777      27.459825     -1035.6179      18971.34     
        36   1966.0711     -1062.8188      27.192405     -1035.6264      20158.958    
        37   1946.8104     -1062.5604      26.926015     -1035.6344      21295.084    
        38   1928.604      -1062.3163      26.674205     -1035.642       22315.843    
        39   1912.6482     -1062.1029      26.453522     -1035.6493      23158.083    
        40   1900.2242     -1061.9381      26.281688     -1035.6564      23754.84     
        41   1892.5353     -1061.8387      26.175344     -1035.6634      24078.301    
        42   1890.5574     -1061.8183      26.147988     -1035.6703      24074.263    
        43   1894.9035     -1061.8856      26.208098     -1035.6775      23723.347    
        44   1905.7084     -1062.0424      26.35754      -1035.6849      23009.106    
        45   1922.5649     -1062.2833      26.590679     -1035.6926      21958.501    
        46   1944.5233     -1062.595       26.894382     -1035.7006      20614.552    
        47   1970.1736     -1062.958       27.249147     -1035.7089      19066.141    
        48   1997.7922     -1063.3485      27.631135     -1035.7173      17395.712    
        49   2025.5367     -1063.7407      28.014864     -1035.7258      15696.527    
        50   2051.6284     -1064.11        28.375734     -1035.7343      14035.744    
Loop time of 0.201096 on 1 procs for 50 steps with 108 atoms

Performance: 21.482 ns/day, 1.117 hours/ns, 248.637 timesteps/s, 26.853 katom-step/s
98.6% CPU use with 1 MPI tasks x no OpenMP threads

MPI task timing breakdown:
Section |  min time  |  avg time  |  max time  |%varavg| %total
---------------------------------------------------------------
Pair    | 0.15676    | 0.15676    | 0.15676    |   0.0 | 77.95
Neigh   | 0.014864   | 0.014864   | 0.014864   |   0.0 |  7.39
Comm    | 0.00047283 | 0.00047283 | 0.00047283 |   0.0 |  0.24
Output  | 0.028836   | 0.028836   | 0.028836   |   0.0 | 14.34
Modify  | 0.00010388 | 0.00010388 | 0.00010388 |   0.0 |  0.05
Other   |            | 6.096e-05  |            |       |  0.03

Nlocal:            108 ave         108 max         108 min
Histogram: 1 0 0 0 0 0 0 0 0 0
Nghost:           1101 ave        1101 max        1101 min
Histogram: 1 0 0 0 0 0 0 0 0 0
Neighs:              0 ave           0 max           0 min
Histogram: 1 0 0 0 0 0 0 0 0 0
FullNghs:        13108 ave       13108 max       13108 min
Histogram: 1 0 0 0 0 0 0 0 0 0

Total # of neighbors = 13108
Ave neighs/atom = 121.37037
Neighbor list builds = 50
Dangerous builds not checked
