LAMMPS (2 Aug 2023 - Development - patch_2Aug2023-219-g06e2d5d306)
units          metal
boundary       p p p
atom_style     atomic
neigh_modify   delay 0 every 1 check no
atom_modify    map yes
read_data     tetrag_hfo2_sample_DATA
Reading data file ...
  orthogonal box = (0 0 0) to (10.956 10.956 10.629)
  1 by 1 by 1 MPI processor grid
  reading atoms ...
  108 atoms
  read_data CPU = 0.004 seconds
pair_style     pace
ACE version: 2022.6.27
Recursive evaluator is used
pair_coeff     * * Siviraman_GAP_HfO2_N3_rcut5_maxdeg10_regQR.yace Hf O
Loading Siviraman_GAP_HfO2_N3_rcut5_maxdeg10_regQR.yace
Total number of basis functions
	O: 20 (r=1) 1166 (r>1)
	Hf: 20 (r=1) 1166 (r>1)
Mapping LAMMPS atom type #1(Hf) -> ACE species type #1
Mapping LAMMPS atom type #2(O) -> ACE species type #0
variable T        equal  2000
variable Tdamp    equal  0.1
variable Tseed    equal  12280329
variable dumpf    equal  1
velocity     all create $T ${Tseed} mom yes rot yes dist gaussian
velocity     all create 2000 ${Tseed} mom yes rot yes dist gaussian
velocity     all create 2000 12280329 mom yes rot yes dist gaussian
thermo       1
thermo_style custom step temp pe ke etotal press
dump           run_forces all custom ${dumpf} dump_single_mapyes.custom id type x y z fx fy fz vx vy vz
dump           run_forces all custom 1 dump_single_mapyes.custom id type x y z fx fy fz vx vy vz
dump_modify    run_forces sort id format line "%4d %1d %32.27f %32.27f %32.27f %32.27f %32.27f %32.27f %32.27f %32.27f %32.27f" 
fix          nvt all nvt temp $T $T ${Tdamp}
fix          nvt all nvt temp 2000 $T ${Tdamp}
fix          nvt all nvt temp 2000 2000 ${Tdamp}
fix          nvt all nvt temp 2000 2000 0.1
run 1
Neighbor list info ...
  update: every = 1 steps, delay = 0 steps, check = no
  max neighbors/atom: 2000, page size: 100000
  master list distance cutoff = 7
  ghost atom cutoff = 7
  binsize = 3.5, bins = 4 4 4
  1 neighbor lists, perpetual/occasional/extra = 1 0 0
  (1) pair pace, perpetual
      attributes: full, newton on
      pair build: full/bin/atomonly
      stencil: full/bin/3d
      bin: standard
Per MPI rank memory allocation (min/avg/max) = 2.611 | 2.611 | 2.611 Mbytes
   Step          Temp          PotEng         KinEng         TotEng         Press     
         0   2000          -1063.1311      27.661671     -1035.4694      29976.049    
         1   1995.1938     -1063.064       27.595197     -1035.4688      30177.72     
Loop time of 0.00720942 on 1 procs for 1 steps with 108 atoms

Performance: 11.984 ns/day, 2.003 hours/ns, 138.707 timesteps/s, 14.980 katom-step/s
98.1% CPU use with 1 MPI tasks x no OpenMP threads

MPI task timing breakdown:
Section |  min time  |  avg time  |  max time  |%varavg| %total
---------------------------------------------------------------
Pair    | 0.0055556  | 0.0055556  | 0.0055556  |   0.0 | 77.06
Neigh   | 0.00057213 | 0.00057213 | 0.00057213 |   0.0 |  7.94
Comm    | 2.2499e-05 | 2.2499e-05 | 2.2499e-05 |   0.0 |  0.31
Output  | 0.0010387  | 0.0010387  | 0.0010387  |   0.0 | 14.41
Modify  | 1.4084e-05 | 1.4084e-05 | 1.4084e-05 |   0.0 |  0.20
Other   |            | 6.415e-06  |            |       |  0.09

Nlocal:            108 ave         108 max         108 min
Histogram: 1 0 0 0 0 0 0 0 0 0
Nghost:           1106 ave        1106 max        1106 min
Histogram: 1 0 0 0 0 0 0 0 0 0
Neighs:              0 ave           0 max           0 min
Histogram: 1 0 0 0 0 0 0 0 0 0
FullNghs:        13112 ave       13112 max       13112 min
Histogram: 1 0 0 0 0 0 0 0 0 0

Total # of neighbors = 13112
Ave neighs/atom = 121.40741
Neighbor list builds = 1
Dangerous builds not checked
run 1
Per MPI rank memory allocation (min/avg/max) = 3.88 | 3.88 | 3.88 Mbytes
   Step          Temp          PotEng         KinEng         TotEng         Press     
         1   1995.1938     -1063.064       27.595197     -1035.4688      30177.72     
         2   1994.3479     -1063.0521      27.583498     -1035.4686      30186.459    
Loop time of 0.00618258 on 1 procs for 1 steps with 108 atoms

Performance: 13.975 ns/day, 1.717 hours/ns, 161.745 timesteps/s, 17.468 katom-step/s
98.4% CPU use with 1 MPI tasks x no OpenMP threads

MPI task timing breakdown:
Section |  min time  |  avg time  |  max time  |%varavg| %total
---------------------------------------------------------------
Pair    | 0.0048436  | 0.0048436  | 0.0048436  |   0.0 | 78.34
Neigh   | 0.00043858 | 0.00043858 | 0.00043858 |   0.0 |  7.09
Comm    | 1.6083e-05 | 1.6083e-05 | 1.6083e-05 |   0.0 |  0.26
Output  | 0.00087596 | 0.00087596 | 0.00087596 |   0.0 | 14.17
Modify  | 4.083e-06  | 4.083e-06  | 4.083e-06  |   0.0 |  0.07
Other   |            | 4.293e-06  |            |       |  0.07

Nlocal:            108 ave         108 max         108 min
Histogram: 1 0 0 0 0 0 0 0 0 0
Nghost:           1106 ave        1106 max        1106 min
Histogram: 1 0 0 0 0 0 0 0 0 0
Neighs:              0 ave           0 max           0 min
Histogram: 1 0 0 0 0 0 0 0 0 0
FullNghs:        13126 ave       13126 max       13126 min
Histogram: 1 0 0 0 0 0 0 0 0 0

Total # of neighbors = 13126
Ave neighs/atom = 121.53704
Neighbor list builds = 1
Dangerous builds not checked
run 1
Per MPI rank memory allocation (min/avg/max) = 3.88 | 3.88 | 3.88 Mbytes
   Step          Temp          PotEng         KinEng         TotEng         Press     
         2   1994.3479     -1063.0521      27.583498     -1035.4686      30186.459    
         3   1997.7148     -1063.0988      27.630064     -1035.4688      29996.983    
Loop time of 0.00534771 on 1 procs for 1 steps with 108 atoms

Performance: 16.156 ns/day, 1.485 hours/ns, 186.996 timesteps/s, 20.196 katom-step/s
98.5% CPU use with 1 MPI tasks x no OpenMP threads

MPI task timing breakdown:
Section |  min time  |  avg time  |  max time  |%varavg| %total
---------------------------------------------------------------
Pair    | 0.0041842  | 0.0041842  | 0.0041842  |   0.0 | 78.24
Neigh   | 0.00038808 | 0.00038808 | 0.00038808 |   0.0 |  7.26
Comm    | 1.3749e-05 | 1.3749e-05 | 1.3749e-05 |   0.0 |  0.26
Output  | 0.0007575  | 0.0007575  | 0.0007575  |   0.0 | 14.16
Modify  | 2.041e-06  | 2.041e-06  | 2.041e-06  |   0.0 |  0.04
Other   |            | 2.085e-06  |            |       |  0.04

Nlocal:            108 ave         108 max         108 min
Histogram: 1 0 0 0 0 0 0 0 0 0
Nghost:           1100 ave        1100 max        1100 min
Histogram: 1 0 0 0 0 0 0 0 0 0
Neighs:              0 ave           0 max           0 min
Histogram: 1 0 0 0 0 0 0 0 0 0
FullNghs:        13122 ave       13122 max       13122 min
Histogram: 1 0 0 0 0 0 0 0 0 0

Total # of neighbors = 13122
Ave neighs/atom = 121.5
Neighbor list builds = 1
Dangerous builds not checked
run 1
Per MPI rank memory allocation (min/avg/max) = 3.88 | 3.88 | 3.88 Mbytes
   Step          Temp          PotEng         KinEng         TotEng         Press     
         3   1997.7148     -1063.0988      27.630064     -1035.4688      29996.983    
         4   2005.101      -1063.2015      27.732222     -1035.4693      29615.899    
Loop time of 0.00488429 on 1 procs for 1 steps with 108 atoms

Performance: 17.689 ns/day, 1.357 hours/ns, 204.738 timesteps/s, 22.112 katom-step/s
97.9% CPU use with 1 MPI tasks x no OpenMP threads

MPI task timing breakdown:
Section |  min time  |  avg time  |  max time  |%varavg| %total
---------------------------------------------------------------
Pair    | 0.0038472  | 0.0038472  | 0.0038472  |   0.0 | 78.77
Neigh   | 0.00033008 | 0.00033008 | 0.00033008 |   0.0 |  6.76
Comm    | 1.2166e-05 | 1.2166e-05 | 1.2166e-05 |   0.0 |  0.25
Output  | 0.00068417 | 0.00068417 | 0.00068417 |   0.0 | 14.01
Modify  | 4.209e-06  | 4.209e-06  | 4.209e-06  |   0.0 |  0.09
Other   |            | 6.458e-06  |            |       |  0.13

Nlocal:            108 ave         108 max         108 min
Histogram: 1 0 0 0 0 0 0 0 0 0
Nghost:           1100 ave        1100 max        1100 min
Histogram: 1 0 0 0 0 0 0 0 0 0
Neighs:              0 ave           0 max           0 min
Histogram: 1 0 0 0 0 0 0 0 0 0
FullNghs:        13118 ave       13118 max       13118 min
Histogram: 1 0 0 0 0 0 0 0 0 0

Total # of neighbors = 13118
Ave neighs/atom = 121.46296
Neighbor list builds = 1
Dangerous builds not checked
run 1
Per MPI rank memory allocation (min/avg/max) = 3.88 | 3.88 | 3.88 Mbytes
   Step          Temp          PotEng         KinEng         TotEng         Press     
         4   2005.101      -1063.2015      27.732222     -1035.4693      29615.899    
         5   2015.9073     -1063.3518      27.881682     -1035.4701      29057.715    
Loop time of 0.00441204 on 1 procs for 1 steps with 108 atoms

Performance: 19.583 ns/day, 1.226 hours/ns, 226.652 timesteps/s, 24.478 katom-step/s
98.7% CPU use with 1 MPI tasks x no OpenMP threads

MPI task timing breakdown:
Section |  min time  |  avg time  |  max time  |%varavg| %total
---------------------------------------------------------------
Pair    | 0.0034686  | 0.0034686  | 0.0034686  |   0.0 | 78.62
Neigh   | 0.000329   | 0.000329   | 0.000329   |   0.0 |  7.46
Comm    | 1.1334e-05 | 1.1334e-05 | 1.1334e-05 |   0.0 |  0.26
Output  | 0.00059946 | 0.00059946 | 0.00059946 |   0.0 | 13.59
Modify  | 1.875e-06  | 1.875e-06  | 1.875e-06  |   0.0 |  0.04
Other   |            | 1.792e-06  |            |       |  0.04

Nlocal:            108 ave         108 max         108 min
Histogram: 1 0 0 0 0 0 0 0 0 0
Nghost:           1100 ave        1100 max        1100 min
Histogram: 1 0 0 0 0 0 0 0 0 0
Neighs:              0 ave           0 max           0 min
Histogram: 1 0 0 0 0 0 0 0 0 0
FullNghs:        13114 ave       13114 max       13114 min
Histogram: 1 0 0 0 0 0 0 0 0 0

Total # of neighbors = 13114
Ave neighs/atom = 121.42593
Neighbor list builds = 1
Dangerous builds not checked
run 1
Per MPI rank memory allocation (min/avg/max) = 3.88 | 3.88 | 3.88 Mbytes
   Step          Temp          PotEng         KinEng         TotEng         Press     
         5   2015.9073     -1063.3518      27.881682     -1035.4701      29057.715    
         6   2029.2375     -1063.5372      28.066051     -1035.4711      28370.15     
Loop time of 0.00418817 on 1 procs for 1 steps with 108 atoms

Performance: 20.630 ns/day, 1.163 hours/ns, 238.768 timesteps/s, 25.787 katom-step/s
98.9% CPU use with 1 MPI tasks x no OpenMP threads

MPI task timing breakdown:
Section |  min time  |  avg time  |  max time  |%varavg| %total
---------------------------------------------------------------
Pair    | 0.0032674  | 0.0032674  | 0.0032674  |   0.0 | 78.01
Neigh   | 0.00030883 | 0.00030883 | 0.00030883 |   0.0 |  7.37
Comm    | 1.0458e-05 | 1.0458e-05 | 1.0458e-05 |   0.0 |  0.25
Output  | 0.00059829 | 0.00059829 | 0.00059829 |   0.0 | 14.29
Modify  | 1.625e-06  | 1.625e-06  | 1.625e-06  |   0.0 |  0.04
Other   |            | 1.583e-06  |            |       |  0.04

Nlocal:            108 ave         108 max         108 min
Histogram: 1 0 0 0 0 0 0 0 0 0
Nghost:           1102 ave        1102 max        1102 min
Histogram: 1 0 0 0 0 0 0 0 0 0
Neighs:              0 ave           0 max           0 min
Histogram: 1 0 0 0 0 0 0 0 0 0
FullNghs:        13116 ave       13116 max       13116 min
Histogram: 1 0 0 0 0 0 0 0 0 0

Total # of neighbors = 13116
Ave neighs/atom = 121.44444
Neighbor list builds = 1
Dangerous builds not checked
run 1
Per MPI rank memory allocation (min/avg/max) = 3.88 | 3.88 | 3.88 Mbytes
   Step          Temp          PotEng         KinEng         TotEng         Press     
         6   2029.2375     -1063.5372      28.066051     -1035.4711      28370.15     
         7   2044.0541     -1063.7431      28.270977     -1035.4721      27596.432    
Loop time of 0.0038635 on 1 procs for 1 steps with 108 atoms

Performance: 22.363 ns/day, 1.073 hours/ns, 258.833 timesteps/s, 27.954 katom-step/s
98.9% CPU use with 1 MPI tasks x no OpenMP threads

MPI task timing breakdown:
Section |  min time  |  avg time  |  max time  |%varavg| %total
---------------------------------------------------------------
Pair    | 0.0030065  | 0.0030065  | 0.0030065  |   0.0 | 77.82
Neigh   | 0.00028833 | 0.00028833 | 0.00028833 |   0.0 |  7.46
Comm    | 9.501e-06  | 9.501e-06  | 9.501e-06  |   0.0 |  0.25
Output  | 0.00055642 | 0.00055642 | 0.00055642 |   0.0 | 14.40
Modify  | 1.333e-06  | 1.333e-06  | 1.333e-06  |   0.0 |  0.03
Other   |            | 1.417e-06  |            |       |  0.04

Nlocal:            108 ave         108 max         108 min
Histogram: 1 0 0 0 0 0 0 0 0 0
Nghost:           1086 ave        1086 max        1086 min
Histogram: 1 0 0 0 0 0 0 0 0 0
Neighs:              0 ave           0 max           0 min
Histogram: 1 0 0 0 0 0 0 0 0 0
FullNghs:        13112 ave       13112 max       13112 min
Histogram: 1 0 0 0 0 0 0 0 0 0

Total # of neighbors = 13112
Ave neighs/atom = 121.40741
Neighbor list builds = 1
Dangerous builds not checked
run 1
Per MPI rank memory allocation (min/avg/max) = 3.88 | 3.88 | 3.88 Mbytes
   Step          Temp          PotEng         KinEng         TotEng         Press     
         7   2044.0541     -1063.7431      28.270977     -1035.4721      27596.432    
         8   2059.3475     -1063.9555      28.482496     -1035.4731      26742.195    
Loop time of 0.00378054 on 1 procs for 1 steps with 108 atoms

Performance: 22.854 ns/day, 1.050 hours/ns, 264.512 timesteps/s, 28.567 katom-step/s
98.8% CPU use with 1 MPI tasks x no OpenMP threads

MPI task timing breakdown:
Section |  min time  |  avg time  |  max time  |%varavg| %total
---------------------------------------------------------------
Pair    | 0.0029455  | 0.0029455  | 0.0029455  |   0.0 | 77.91
Neigh   | 0.00028479 | 0.00028479 | 0.00028479 |   0.0 |  7.53
Comm    | 9.375e-06  | 9.375e-06  | 9.375e-06  |   0.0 |  0.25
Output  | 0.00053821 | 0.00053821 | 0.00053821 |   0.0 | 14.24
Modify  | 1.333e-06  | 1.333e-06  | 1.333e-06  |   0.0 |  0.04
Other   |            | 1.375e-06  |            |       |  0.04

Nlocal:            108 ave         108 max         108 min
Histogram: 1 0 0 0 0 0 0 0 0 0
Nghost:           1090 ave        1090 max        1090 min
Histogram: 1 0 0 0 0 0 0 0 0 0
Neighs:              0 ave           0 max           0 min
Histogram: 1 0 0 0 0 0 0 0 0 0
FullNghs:        13122 ave       13122 max       13122 min
Histogram: 1 0 0 0 0 0 0 0 0 0

Total # of neighbors = 13122
Ave neighs/atom = 121.5
Neighbor list builds = 1
Dangerous builds not checked
run 1
Per MPI rank memory allocation (min/avg/max) = 3.88 | 3.88 | 3.88 Mbytes
   Step          Temp          PotEng         KinEng         TotEng         Press     
         8   2059.3475     -1063.9555      28.482496     -1035.4731      26742.195    
         9   2074.2689     -1064.1628      28.688872     -1035.4739      25835.298    
Loop time of 0.00389271 on 1 procs for 1 steps with 108 atoms

Performance: 22.195 ns/day, 1.081 hours/ns, 256.891 timesteps/s, 27.744 katom-step/s
97.2% CPU use with 1 MPI tasks x no OpenMP threads

MPI task timing breakdown:
Section |  min time  |  avg time  |  max time  |%varavg| %total
---------------------------------------------------------------
Pair    | 0.0030458  | 0.0030458  | 0.0030458  |   0.0 | 78.24
Neigh   | 0.00026646 | 0.00026646 | 0.00026646 |   0.0 |  6.85
Comm    | 9.458e-06  | 9.458e-06  | 9.458e-06  |   0.0 |  0.24
Output  | 0.00056425 | 0.00056425 | 0.00056425 |   0.0 | 14.50
Modify  | 3.375e-06  | 3.375e-06  | 3.375e-06  |   0.0 |  0.09
Other   |            | 3.374e-06  |            |       |  0.09

Nlocal:            108 ave         108 max         108 min
Histogram: 1 0 0 0 0 0 0 0 0 0
Nghost:           1099 ave        1099 max        1099 min
Histogram: 1 0 0 0 0 0 0 0 0 0
Neighs:              0 ave           0 max           0 min
Histogram: 1 0 0 0 0 0 0 0 0 0
FullNghs:        13132 ave       13132 max       13132 min
Histogram: 1 0 0 0 0 0 0 0 0 0

Total # of neighbors = 13132
Ave neighs/atom = 121.59259
Neighbor list builds = 1
Dangerous builds not checked
run 1
Per MPI rank memory allocation (min/avg/max) = 3.88 | 3.88 | 3.88 Mbytes
   Step          Temp          PotEng         KinEng         TotEng         Press     
         9   2074.2689     -1064.1628      28.688872     -1035.4739      25835.298    
        10   2088.2132     -1064.3565      28.881734     -1035.4748      24913.96     
Loop time of 0.00374683 on 1 procs for 1 steps with 108 atoms

Performance: 23.059 ns/day, 1.041 hours/ns, 266.892 timesteps/s, 28.824 katom-step/s
98.7% CPU use with 1 MPI tasks x no OpenMP threads

MPI task timing breakdown:
Section |  min time  |  avg time  |  max time  |%varavg| %total
---------------------------------------------------------------
Pair    | 0.0029226  | 0.0029226  | 0.0029226  |   0.0 | 78.00
Neigh   | 0.00027625 | 0.00027625 | 0.00027625 |   0.0 |  7.37
Comm    | 9.583e-06  | 9.583e-06  | 9.583e-06  |   0.0 |  0.26
Output  | 0.00053533 | 0.00053533 | 0.00053533 |   0.0 | 14.29
Modify  | 1.584e-06  | 1.584e-06  | 1.584e-06  |   0.0 |  0.04
Other   |            | 1.458e-06  |            |       |  0.04

Nlocal:            108 ave         108 max         108 min
Histogram: 1 0 0 0 0 0 0 0 0 0
Nghost:           1099 ave        1099 max        1099 min
Histogram: 1 0 0 0 0 0 0 0 0 0
Neighs:              0 ave           0 max           0 min
Histogram: 1 0 0 0 0 0 0 0 0 0
FullNghs:        13152 ave       13152 max       13152 min
Histogram: 1 0 0 0 0 0 0 0 0 0

Total # of neighbors = 13152
Ave neighs/atom = 121.77778
Neighbor list builds = 1
Dangerous builds not checked
run 1
Per MPI rank memory allocation (min/avg/max) = 3.88 | 3.88 | 3.88 Mbytes
   Step          Temp          PotEng         KinEng         TotEng         Press     
        10   2088.2132     -1064.3565      28.881734     -1035.4748      24913.96     
        11   2100.8719     -1064.5324      29.056814     -1035.4756      24004.468    
Loop time of 0.00375346 on 1 procs for 1 steps with 108 atoms

Performance: 23.019 ns/day, 1.043 hours/ns, 266.421 timesteps/s, 28.773 katom-step/s
98.5% CPU use with 1 MPI tasks x no OpenMP threads

MPI task timing breakdown:
Section |  min time  |  avg time  |  max time  |%varavg| %total
---------------------------------------------------------------
Pair    | 0.0029297  | 0.0029297  | 0.0029297  |   0.0 | 78.05
Neigh   | 0.00027712 | 0.00027712 | 0.00027712 |   0.0 |  7.38
Comm    | 9.25e-06   | 9.25e-06   | 9.25e-06   |   0.0 |  0.25
Output  | 0.00053425 | 0.00053425 | 0.00053425 |   0.0 | 14.23
Modify  | 1.542e-06  | 1.542e-06  | 1.542e-06  |   0.0 |  0.04
Other   |            | 1.624e-06  |            |       |  0.04

Nlocal:            108 ave         108 max         108 min
Histogram: 1 0 0 0 0 0 0 0 0 0
Nghost:           1099 ave        1099 max        1099 min
Histogram: 1 0 0 0 0 0 0 0 0 0
Neighs:              0 ave           0 max           0 min
Histogram: 1 0 0 0 0 0 0 0 0 0
FullNghs:        13152 ave       13152 max       13152 min
Histogram: 1 0 0 0 0 0 0 0 0 0

Total # of neighbors = 13152
Ave neighs/atom = 121.77778
Neighbor list builds = 1
Dangerous builds not checked
run 1
Per MPI rank memory allocation (min/avg/max) = 3.88 | 3.88 | 3.88 Mbytes
   Step          Temp          PotEng         KinEng         TotEng         Press     
        11   2100.8719     -1064.5324      29.056814     -1035.4756      24004.468    
        12   2112.218      -1064.6902      29.21374      -1035.4765      23100.4      
Loop time of 0.00368492 on 1 procs for 1 steps with 108 atoms

Performance: 23.447 ns/day, 1.024 hours/ns, 271.377 timesteps/s, 29.309 katom-step/s
98.3% CPU use with 1 MPI tasks x no OpenMP threads

MPI task timing breakdown:
Section |  min time  |  avg time  |  max time  |%varavg| %total
---------------------------------------------------------------
Pair    | 0.0028706  | 0.0028706  | 0.0028706  |   0.0 | 77.90
Neigh   | 0.00026858 | 0.00026858 | 0.00026858 |   0.0 |  7.29
Comm    | 9.042e-06  | 9.042e-06  | 9.042e-06  |   0.0 |  0.25
Output  | 0.00053204 | 0.00053204 | 0.00053204 |   0.0 | 14.44
Modify  | 2.334e-06  | 2.334e-06  | 2.334e-06  |   0.0 |  0.06
Other   |            | 2.332e-06  |            |       |  0.06

Nlocal:            108 ave         108 max         108 min
Histogram: 1 0 0 0 0 0 0 0 0 0
Nghost:           1099 ave        1099 max        1099 min
Histogram: 1 0 0 0 0 0 0 0 0 0
Neighs:              0 ave           0 max           0 min
Histogram: 1 0 0 0 0 0 0 0 0 0
FullNghs:        13148 ave       13148 max       13148 min
Histogram: 1 0 0 0 0 0 0 0 0 0

Total # of neighbors = 13148
Ave neighs/atom = 121.74074
Neighbor list builds = 1
Dangerous builds not checked
run 1
Per MPI rank memory allocation (min/avg/max) = 3.88 | 3.88 | 3.88 Mbytes
   Step          Temp          PotEng         KinEng         TotEng         Press     
        12   2112.218      -1064.6902      29.21374      -1035.4765      23100.4      
        13   2122.4276     -1064.8325      29.354946     -1035.4776      22179.988    
Loop time of 0.00359417 on 1 procs for 1 steps with 108 atoms

Performance: 24.039 ns/day, 0.998 hours/ns, 278.229 timesteps/s, 30.049 katom-step/s
98.9% CPU use with 1 MPI tasks x no OpenMP threads

MPI task timing breakdown:
Section |  min time  |  avg time  |  max time  |%varavg| %total
---------------------------------------------------------------
Pair    | 0.0028184  | 0.0028184  | 0.0028184  |   0.0 | 78.42
Neigh   | 0.00024842 | 0.00024842 | 0.00024842 |   0.0 |  6.91
Comm    | 9.208e-06  | 9.208e-06  | 9.208e-06  |   0.0 |  0.26
Output  | 0.00051554 | 0.00051554 | 0.00051554 |   0.0 | 14.34
Modify  | 1.292e-06  | 1.292e-06  | 1.292e-06  |   0.0 |  0.04
Other   |            | 1.332e-06  |            |       |  0.04

Nlocal:            108 ave         108 max         108 min
Histogram: 1 0 0 0 0 0 0 0 0 0
Nghost:           1099 ave        1099 max        1099 min
Histogram: 1 0 0 0 0 0 0 0 0 0
Neighs:              0 ave           0 max           0 min
Histogram: 1 0 0 0 0 0 0 0 0 0
FullNghs:        13128 ave       13128 max       13128 min
Histogram: 1 0 0 0 0 0 0 0 0 0

Total # of neighbors = 13128
Ave neighs/atom = 121.55556
Neighbor list builds = 1
Dangerous builds not checked
run 1
Per MPI rank memory allocation (min/avg/max) = 3.88 | 3.88 | 3.88 Mbytes
   Step          Temp          PotEng         KinEng         TotEng         Press     
        13   2122.4276     -1064.8325      29.354946     -1035.4776      22179.988    
        14   2131.7668     -1064.9633      29.484117     -1035.4791      21254.954    
Loop time of 0.00371808 on 1 procs for 1 steps with 108 atoms

Performance: 23.238 ns/day, 1.033 hours/ns, 268.956 timesteps/s, 29.047 katom-step/s
98.7% CPU use with 1 MPI tasks x no OpenMP threads

MPI task timing breakdown:
Section |  min time  |  avg time  |  max time  |%varavg| %total
---------------------------------------------------------------
Pair    | 0.0029085  | 0.0029085  | 0.0029085  |   0.0 | 78.23
Neigh   | 0.00025208 | 0.00025208 | 0.00025208 |   0.0 |  6.78
Comm    | 8.875e-06  | 8.875e-06  | 8.875e-06  |   0.0 |  0.24
Output  | 0.00054575 | 0.00054575 | 0.00054575 |   0.0 | 14.68
Modify  | 1.458e-06  | 1.458e-06  | 1.458e-06  |   0.0 |  0.04
Other   |            | 1.418e-06  |            |       |  0.04

Nlocal:            108 ave         108 max         108 min
Histogram: 1 0 0 0 0 0 0 0 0 0
Nghost:           1099 ave        1099 max        1099 min
Histogram: 1 0 0 0 0 0 0 0 0 0
Neighs:              0 ave           0 max           0 min
Histogram: 1 0 0 0 0 0 0 0 0 0
FullNghs:        13130 ave       13130 max       13130 min
Histogram: 1 0 0 0 0 0 0 0 0 0

Total # of neighbors = 13130
Ave neighs/atom = 121.57407
Neighbor list builds = 1
Dangerous builds not checked
run 1
Per MPI rank memory allocation (min/avg/max) = 3.88 | 3.88 | 3.88 Mbytes
   Step          Temp          PotEng         KinEng         TotEng         Press     
        14   2131.7668     -1064.9633      29.484117     -1035.4791      21254.954    
        15   2140.4682     -1065.0857      29.604464     -1035.4812      20319.525    
Loop time of 0.00360112 on 1 procs for 1 steps with 108 atoms

Performance: 23.993 ns/day, 1.000 hours/ns, 277.691 timesteps/s, 29.991 katom-step/s
98.8% CPU use with 1 MPI tasks x no OpenMP threads

MPI task timing breakdown:
Section |  min time  |  avg time  |  max time  |%varavg| %total
---------------------------------------------------------------
Pair    | 0.0028232  | 0.0028232  | 0.0028232  |   0.0 | 78.40
Neigh   | 0.00024512 | 0.00024512 | 0.00024512 |   0.0 |  6.81
Comm    | 8.833e-06  | 8.833e-06  | 8.833e-06  |   0.0 |  0.25
Output  | 0.0005215  | 0.0005215  | 0.0005215  |   0.0 | 14.48
Modify  | 1.25e-06   | 1.25e-06   | 1.25e-06   |   0.0 |  0.03
Other   |            | 1.25e-06   |            |       |  0.03

Nlocal:            108 ave         108 max         108 min
Histogram: 1 0 0 0 0 0 0 0 0 0
Nghost:           1095 ave        1095 max        1095 min
Histogram: 1 0 0 0 0 0 0 0 0 0
Neighs:              0 ave           0 max           0 min
Histogram: 1 0 0 0 0 0 0 0 0 0
FullNghs:        13138 ave       13138 max       13138 min
Histogram: 1 0 0 0 0 0 0 0 0 0

Total # of neighbors = 13138
Ave neighs/atom = 121.64815
Neighbor list builds = 1
Dangerous builds not checked
run 1
Per MPI rank memory allocation (min/avg/max) = 3.88 | 3.88 | 3.88 Mbytes
   Step          Temp          PotEng         KinEng         TotEng         Press     
        15   2140.4682     -1065.0857      29.604464     -1035.4812      20319.525    
        16   2148.6208     -1065.2012      29.717221     -1035.484       19355.987    
Loop time of 0.00359246 on 1 procs for 1 steps with 108 atoms

Performance: 24.050 ns/day, 0.998 hours/ns, 278.361 timesteps/s, 30.063 katom-step/s
98.8% CPU use with 1 MPI tasks x no OpenMP threads

MPI task timing breakdown:
Section |  min time  |  avg time  |  max time  |%varavg| %total
---------------------------------------------------------------
Pair    | 0.0028223  | 0.0028223  | 0.0028223  |   0.0 | 78.56
Neigh   | 0.00024117 | 0.00024117 | 0.00024117 |   0.0 |  6.71
Comm    | 8.75e-06   | 8.75e-06   | 8.75e-06   |   0.0 |  0.24
Output  | 0.00051771 | 0.00051771 | 0.00051771 |   0.0 | 14.41
Modify  | 1.251e-06  | 1.251e-06  | 1.251e-06  |   0.0 |  0.03
Other   |            | 1.291e-06  |            |       |  0.04

Nlocal:            108 ave         108 max         108 min
Histogram: 1 0 0 0 0 0 0 0 0 0
Nghost:           1095 ave        1095 max        1095 min
Histogram: 1 0 0 0 0 0 0 0 0 0
Neighs:              0 ave           0 max           0 min
Histogram: 1 0 0 0 0 0 0 0 0 0
FullNghs:        13136 ave       13136 max       13136 min
Histogram: 1 0 0 0 0 0 0 0 0 0

Total # of neighbors = 13136
Ave neighs/atom = 121.62963
Neighbor list builds = 1
Dangerous builds not checked
run 1
Per MPI rank memory allocation (min/avg/max) = 3.88 | 3.88 | 3.88 Mbytes
   Step          Temp          PotEng         KinEng         TotEng         Press     
        16   2148.6208     -1065.2012      29.717221     -1035.484       19355.987    
        17   2156.111      -1065.3082      29.820816     -1035.4874      18355.433    
Loop time of 0.00363308 on 1 procs for 1 steps with 108 atoms

Performance: 23.781 ns/day, 1.009 hours/ns, 275.248 timesteps/s, 29.727 katom-step/s
98.3% CPU use with 1 MPI tasks x no OpenMP threads

MPI task timing breakdown:
Section |  min time  |  avg time  |  max time  |%varavg| %total
---------------------------------------------------------------
Pair    | 0.0028312  | 0.0028312  | 0.0028312  |   0.0 | 77.93
Neigh   | 0.00026862 | 0.00026862 | 0.00026862 |   0.0 |  7.39
Comm    | 9.125e-06  | 9.125e-06  | 9.125e-06  |   0.0 |  0.25
Output  | 0.00052146 | 0.00052146 | 0.00052146 |   0.0 | 14.35
Modify  | 1.292e-06  | 1.292e-06  | 1.292e-06  |   0.0 |  0.04
Other   |            | 1.416e-06  |            |       |  0.04

Nlocal:            108 ave         108 max         108 min
Histogram: 1 0 0 0 0 0 0 0 0 0
Nghost:           1095 ave        1095 max        1095 min
Histogram: 1 0 0 0 0 0 0 0 0 0
Neighs:              0 ave           0 max           0 min
Histogram: 1 0 0 0 0 0 0 0 0 0
FullNghs:        13126 ave       13126 max       13126 min
Histogram: 1 0 0 0 0 0 0 0 0 0

Total # of neighbors = 13126
Ave neighs/atom = 121.53704
Neighbor list builds = 1
Dangerous builds not checked
run 1
Per MPI rank memory allocation (min/avg/max) = 3.88 | 3.88 | 3.88 Mbytes
   Step          Temp          PotEng         KinEng         TotEng         Press     
        17   2156.111      -1065.3082      29.820816     -1035.4874      18355.433    
        18   2162.6167     -1065.4022      29.910796     -1035.4914      17340.839    
Loop time of 0.00359871 on 1 procs for 1 steps with 108 atoms

Performance: 24.009 ns/day, 1.000 hours/ns, 277.878 timesteps/s, 30.011 katom-step/s
98.6% CPU use with 1 MPI tasks x no OpenMP threads

MPI task timing breakdown:
Section |  min time  |  avg time  |  max time  |%varavg| %total
---------------------------------------------------------------
Pair    | 0.0028155  | 0.0028155  | 0.0028155  |   0.0 | 78.24
Neigh   | 0.00025408 | 0.00025408 | 0.00025408 |   0.0 |  7.06
Comm    | 8.958e-06  | 8.958e-06  | 8.958e-06  |   0.0 |  0.25
Output  | 0.00051775 | 0.00051775 | 0.00051775 |   0.0 | 14.39
Modify  | 1.292e-06  | 1.292e-06  | 1.292e-06  |   0.0 |  0.04
Other   |            | 1.166e-06  |            |       |  0.03

Nlocal:            108 ave         108 max         108 min
Histogram: 1 0 0 0 0 0 0 0 0 0
Nghost:           1095 ave        1095 max        1095 min
Histogram: 1 0 0 0 0 0 0 0 0 0
Neighs:              0 ave           0 max           0 min
Histogram: 1 0 0 0 0 0 0 0 0 0
FullNghs:        13124 ave       13124 max       13124 min
Histogram: 1 0 0 0 0 0 0 0 0 0

Total # of neighbors = 13124
Ave neighs/atom = 121.51852
Neighbor list builds = 1
Dangerous builds not checked
run 1
Per MPI rank memory allocation (min/avg/max) = 3.88 | 3.88 | 3.88 Mbytes
   Step          Temp          PotEng         KinEng         TotEng         Press     
        18   2162.6167     -1065.4022      29.910796     -1035.4914      17340.839    
        19   2167.6512     -1065.4765      29.980428     -1035.496       16341.203    
Loop time of 0.00365842 on 1 procs for 1 steps with 108 atoms

Performance: 23.617 ns/day, 1.016 hours/ns, 273.342 timesteps/s, 29.521 katom-step/s
98.7% CPU use with 1 MPI tasks x no OpenMP threads

MPI task timing breakdown:
Section |  min time  |  avg time  |  max time  |%varavg| %total
---------------------------------------------------------------
Pair    | 0.0028492  | 0.0028492  | 0.0028492  |   0.0 | 77.88
Neigh   | 0.00027183 | 0.00027183 | 0.00027183 |   0.0 |  7.43
Comm    | 9.084e-06  | 9.084e-06  | 9.084e-06  |   0.0 |  0.25
Output  | 0.0005255  | 0.0005255  | 0.0005255  |   0.0 | 14.36
Modify  | 1.375e-06  | 1.375e-06  | 1.375e-06  |   0.0 |  0.04
Other   |            | 1.457e-06  |            |       |  0.04

Nlocal:            108 ave         108 max         108 min
Histogram: 1 0 0 0 0 0 0 0 0 0
Nghost:           1095 ave        1095 max        1095 min
Histogram: 1 0 0 0 0 0 0 0 0 0
Neighs:              0 ave           0 max           0 min
Histogram: 1 0 0 0 0 0 0 0 0 0
FullNghs:        13130 ave       13130 max       13130 min
Histogram: 1 0 0 0 0 0 0 0 0 0

Total # of neighbors = 13130
Ave neighs/atom = 121.57407
Neighbor list builds = 1
Dangerous builds not checked
run 1
Per MPI rank memory allocation (min/avg/max) = 3.88 | 3.88 | 3.88 Mbytes
   Step          Temp          PotEng         KinEng         TotEng         Press     
        19   2167.6512     -1065.4765      29.980428     -1035.496       16341.203    
        20   2170.6574     -1065.5232      30.022006     -1035.5012      15390.536    
Loop time of 0.00363825 on 1 procs for 1 steps with 108 atoms

Performance: 23.748 ns/day, 1.011 hours/ns, 274.857 timesteps/s, 29.685 katom-step/s
98.3% CPU use with 1 MPI tasks x no OpenMP threads

MPI task timing breakdown:
Section |  min time  |  avg time  |  max time  |%varavg| %total
---------------------------------------------------------------
Pair    | 0.0028345  | 0.0028345  | 0.0028345  |   0.0 | 77.91
Neigh   | 0.00027504 | 0.00027504 | 0.00027504 |   0.0 |  7.56
Comm    | 8.958e-06  | 8.958e-06  | 8.958e-06  |   0.0 |  0.25
Output  | 0.00051717 | 0.00051717 | 0.00051717 |   0.0 | 14.21
Modify  | 1.292e-06  | 1.292e-06  | 1.292e-06  |   0.0 |  0.04
Other   |            | 1.249e-06  |            |       |  0.03

Nlocal:            108 ave         108 max         108 min
Histogram: 1 0 0 0 0 0 0 0 0 0
Nghost:           1095 ave        1095 max        1095 min
Histogram: 1 0 0 0 0 0 0 0 0 0
Neighs:              0 ave           0 max           0 min
Histogram: 1 0 0 0 0 0 0 0 0 0
FullNghs:        13116 ave       13116 max       13116 min
Histogram: 1 0 0 0 0 0 0 0 0 0

Total # of neighbors = 13116
Ave neighs/atom = 121.44444
Neighbor list builds = 1
Dangerous builds not checked
run 1
Per MPI rank memory allocation (min/avg/max) = 3.88 | 3.88 | 3.88 Mbytes
   Step          Temp          PotEng         KinEng         TotEng         Press     
        20   2170.6574     -1065.5232      30.022006     -1035.5012      15390.536    
        21   2171.1198     -1065.5351      30.028401     -1035.5067      14521.991    
Loop time of 0.00357346 on 1 procs for 1 steps with 108 atoms

Performance: 24.178 ns/day, 0.993 hours/ns, 279.841 timesteps/s, 30.223 katom-step/s
98.8% CPU use with 1 MPI tasks x no OpenMP threads

MPI task timing breakdown:
Section |  min time  |  avg time  |  max time  |%varavg| %total
---------------------------------------------------------------
Pair    | 0.0027914  | 0.0027914  | 0.0027914  |   0.0 | 78.12
Neigh   | 0.00025442 | 0.00025442 | 0.00025442 |   0.0 |  7.12
Comm    | 8.834e-06  | 8.834e-06  | 8.834e-06  |   0.0 |  0.25
Output  | 0.00051633 | 0.00051633 | 0.00051633 |   0.0 | 14.45
Modify  | 1.25e-06   | 1.25e-06   | 1.25e-06   |   0.0 |  0.03
Other   |            | 1.208e-06  |            |       |  0.03

Nlocal:            108 ave         108 max         108 min
Histogram: 1 0 0 0 0 0 0 0 0 0
Nghost:           1095 ave        1095 max        1095 min
Histogram: 1 0 0 0 0 0 0 0 0 0
Neighs:              0 ave           0 max           0 min
Histogram: 1 0 0 0 0 0 0 0 0 0
FullNghs:        13108 ave       13108 max       13108 min
Histogram: 1 0 0 0 0 0 0 0 0 0

Total # of neighbors = 13108
Ave neighs/atom = 121.37037
Neighbor list builds = 1
Dangerous builds not checked
run 1
Per MPI rank memory allocation (min/avg/max) = 3.88 | 3.88 | 3.88 Mbytes
   Step          Temp          PotEng         KinEng         TotEng         Press     
        21   2171.1198     -1065.5351      30.028401     -1035.5067      14521.991    
        22   2168.6625     -1065.507       29.994415     -1035.5126      13767.462    
Loop time of 0.00358658 on 1 procs for 1 steps with 108 atoms

Performance: 24.090 ns/day, 0.996 hours/ns, 278.817 timesteps/s, 30.112 katom-step/s
98.7% CPU use with 1 MPI tasks x no OpenMP threads

MPI task timing breakdown:
Section |  min time  |  avg time  |  max time  |%varavg| %total
---------------------------------------------------------------
Pair    | 0.0027924  | 0.0027924  | 0.0027924  |   0.0 | 77.86
Neigh   | 0.00026217 | 0.00026217 | 0.00026217 |   0.0 |  7.31
Comm    | 8.709e-06  | 8.709e-06  | 8.709e-06  |   0.0 |  0.24
Output  | 0.00052075 | 0.00052075 | 0.00052075 |   0.0 | 14.52
Modify  | 1.25e-06   | 1.25e-06   | 1.25e-06   |   0.0 |  0.03
Other   |            | 1.291e-06  |            |       |  0.04

Nlocal:            108 ave         108 max         108 min
Histogram: 1 0 0 0 0 0 0 0 0 0
Nghost:           1089 ave        1089 max        1089 min
Histogram: 1 0 0 0 0 0 0 0 0 0
Neighs:              0 ave           0 max           0 min
Histogram: 1 0 0 0 0 0 0 0 0 0
FullNghs:        13096 ave       13096 max       13096 min
Histogram: 1 0 0 0 0 0 0 0 0 0

Total # of neighbors = 13096
Ave neighs/atom = 121.25926
Neighbor list builds = 1
Dangerous builds not checked
run 1
Per MPI rank memory allocation (min/avg/max) = 3.88 | 3.88 | 3.88 Mbytes
   Step          Temp          PotEng         KinEng         TotEng         Press     
        22   2168.6625     -1065.507       29.994415     -1035.5126      13767.462    
        23   2163.1467     -1065.4368      29.918126     -1035.5187      13157.425    
Loop time of 0.00358325 on 1 procs for 1 steps with 108 atoms

Performance: 24.112 ns/day, 0.995 hours/ns, 279.076 timesteps/s, 30.140 katom-step/s
98.8% CPU use with 1 MPI tasks x no OpenMP threads

MPI task timing breakdown:
Section |  min time  |  avg time  |  max time  |%varavg| %total
---------------------------------------------------------------
Pair    | 0.0027765  | 0.0027765  | 0.0027765  |   0.0 | 77.49
Neigh   | 0.00026442 | 0.00026442 | 0.00026442 |   0.0 |  7.38
Comm    | 8.834e-06  | 8.834e-06  | 8.834e-06  |   0.0 |  0.25
Output  | 0.00053087 | 0.00053087 | 0.00053087 |   0.0 | 14.82
Modify  | 1.292e-06  | 1.292e-06  | 1.292e-06  |   0.0 |  0.04
Other   |            | 1.291e-06  |            |       |  0.04

Nlocal:            108 ave         108 max         108 min
Histogram: 1 0 0 0 0 0 0 0 0 0
Nghost:           1089 ave        1089 max        1089 min
Histogram: 1 0 0 0 0 0 0 0 0 0
Neighs:              0 ave           0 max           0 min
Histogram: 1 0 0 0 0 0 0 0 0 0
FullNghs:        13116 ave       13116 max       13116 min
Histogram: 1 0 0 0 0 0 0 0 0 0

Total # of neighbors = 13116
Ave neighs/atom = 121.44444
Neighbor list builds = 1
Dangerous builds not checked
run 1
Per MPI rank memory allocation (min/avg/max) = 3.88 | 3.88 | 3.88 Mbytes
   Step          Temp          PotEng         KinEng         TotEng         Press     
        23   2163.1467     -1065.4368      29.918126     -1035.5187      13157.425    
        24   2154.7141     -1065.3265      29.801496     -1035.5251      12711.91     
Loop time of 0.00372846 on 1 procs for 1 steps with 108 atoms

Performance: 23.173 ns/day, 1.036 hours/ns, 268.207 timesteps/s, 28.966 katom-step/s
98.4% CPU use with 1 MPI tasks x no OpenMP threads

MPI task timing breakdown:
Section |  min time  |  avg time  |  max time  |%varavg| %total
---------------------------------------------------------------
Pair    | 0.0029165  | 0.0029165  | 0.0029165  |   0.0 | 78.22
Neigh   | 0.0002545  | 0.0002545  | 0.0002545  |   0.0 |  6.83
Comm    | 1.0042e-05 | 1.0042e-05 | 1.0042e-05 |   0.0 |  0.27
Output  | 0.00054429 | 0.00054429 | 0.00054429 |   0.0 | 14.60
Modify  | 1.708e-06  | 1.708e-06  | 1.708e-06  |   0.0 |  0.05
Other   |            | 1.458e-06  |            |       |  0.04

Nlocal:            108 ave         108 max         108 min
Histogram: 1 0 0 0 0 0 0 0 0 0
Nghost:           1089 ave        1089 max        1089 min
Histogram: 1 0 0 0 0 0 0 0 0 0
Neighs:              0 ave           0 max           0 min
Histogram: 1 0 0 0 0 0 0 0 0 0
FullNghs:        13128 ave       13128 max       13128 min
Histogram: 1 0 0 0 0 0 0 0 0 0

Total # of neighbors = 13128
Ave neighs/atom = 121.55556
Neighbor list builds = 1
Dangerous builds not checked
run 1
Per MPI rank memory allocation (min/avg/max) = 3.88 | 3.88 | 3.88 Mbytes
   Step          Temp          PotEng         KinEng         TotEng         Press     
        24   2154.7141     -1065.3265      29.801496     -1035.5251      12711.91     
        25   2143.756      -1065.1817      29.649936     -1035.5317      12453.666    
Loop time of 0.0037175 on 1 procs for 1 steps with 108 atoms

Performance: 23.241 ns/day, 1.033 hours/ns, 268.998 timesteps/s, 29.052 katom-step/s
98.8% CPU use with 1 MPI tasks x no OpenMP threads

MPI task timing breakdown:
Section |  min time  |  avg time  |  max time  |%varavg| %total
---------------------------------------------------------------
Pair    | 0.0029182  | 0.0029182  | 0.0029182  |   0.0 | 78.50
Neigh   | 0.00026112 | 0.00026112 | 0.00026112 |   0.0 |  7.02
Comm    | 9.083e-06  | 9.083e-06  | 9.083e-06  |   0.0 |  0.24
Output  | 0.0005265  | 0.0005265  | 0.0005265  |   0.0 | 14.16
Modify  | 1.25e-06   | 1.25e-06   | 1.25e-06   |   0.0 |  0.03
Other   |            | 1.333e-06  |            |       |  0.04

Nlocal:            108 ave         108 max         108 min
Histogram: 1 0 0 0 0 0 0 0 0 0
Nghost:           1089 ave        1089 max        1089 min
Histogram: 1 0 0 0 0 0 0 0 0 0
Neighs:              0 ave           0 max           0 min
Histogram: 1 0 0 0 0 0 0 0 0 0
FullNghs:        13140 ave       13140 max       13140 min
Histogram: 1 0 0 0 0 0 0 0 0 0

Total # of neighbors = 13140
Ave neighs/atom = 121.66667
Neighbor list builds = 1
Dangerous builds not checked
run 1
Per MPI rank memory allocation (min/avg/max) = 3.88 | 3.88 | 3.88 Mbytes
   Step          Temp          PotEng         KinEng         TotEng         Press     
        25   2143.756      -1065.1817      29.649936     -1035.5317      12453.666    
        26   2130.8407     -1065.0101      29.471308     -1035.5387      12389.305    
Loop time of 0.00364508 on 1 procs for 1 steps with 108 atoms

Performance: 23.703 ns/day, 1.013 hours/ns, 274.342 timesteps/s, 29.629 katom-step/s
99.0% CPU use with 1 MPI tasks x no OpenMP threads

MPI task timing breakdown:
Section |  min time  |  avg time  |  max time  |%varavg| %total
---------------------------------------------------------------
Pair    | 0.002852   | 0.002852   | 0.002852   |   0.0 | 78.24
Neigh   | 0.00026542 | 0.00026542 | 0.00026542 |   0.0 |  7.28
Comm    | 8.875e-06  | 8.875e-06  | 8.875e-06  |   0.0 |  0.24
Output  | 0.00051625 | 0.00051625 | 0.00051625 |   0.0 | 14.16
Modify  | 1.292e-06  | 1.292e-06  | 1.292e-06  |   0.0 |  0.04
Other   |            | 1.209e-06  |            |       |  0.03

Nlocal:            108 ave         108 max         108 min
Histogram: 1 0 0 0 0 0 0 0 0 0
Nghost:           1089 ave        1089 max        1089 min
Histogram: 1 0 0 0 0 0 0 0 0 0
Neighs:              0 ave           0 max           0 min
Histogram: 1 0 0 0 0 0 0 0 0 0
FullNghs:        13136 ave       13136 max       13136 min
Histogram: 1 0 0 0 0 0 0 0 0 0

Total # of neighbors = 13136
Ave neighs/atom = 121.62963
Neighbor list builds = 1
Dangerous builds not checked
run 1
Per MPI rank memory allocation (min/avg/max) = 3.88 | 3.88 | 3.88 Mbytes
   Step          Temp          PotEng         KinEng         TotEng         Press     
        26   2130.8407     -1065.0101      29.471308     -1035.5387      12389.305    
        27   2116.6042     -1064.8206      29.274405     -1035.5462      12510.123    
Loop time of 0.00365908 on 1 procs for 1 steps with 108 atoms

Performance: 23.612 ns/day, 1.016 hours/ns, 273.293 timesteps/s, 29.516 katom-step/s
98.9% CPU use with 1 MPI tasks x no OpenMP threads

MPI task timing breakdown:
Section |  min time  |  avg time  |  max time  |%varavg| %total
---------------------------------------------------------------
Pair    | 0.0028758  | 0.0028758  | 0.0028758  |   0.0 | 78.59
Neigh   | 0.00025508 | 0.00025508 | 0.00025508 |   0.0 |  6.97
Comm    | 8.75e-06   | 8.75e-06   | 8.75e-06   |   0.0 |  0.24
Output  | 0.00051687 | 0.00051687 | 0.00051687 |   0.0 | 14.13
Modify  | 1.333e-06  | 1.333e-06  | 1.333e-06  |   0.0 |  0.04
Other   |            | 1.208e-06  |            |       |  0.03

Nlocal:            108 ave         108 max         108 min
Histogram: 1 0 0 0 0 0 0 0 0 0
Nghost:           1085 ave        1085 max        1085 min
Histogram: 1 0 0 0 0 0 0 0 0 0
Neighs:              0 ave           0 max           0 min
Histogram: 1 0 0 0 0 0 0 0 0 0
FullNghs:        13136 ave       13136 max       13136 min
Histogram: 1 0 0 0 0 0 0 0 0 0

Total # of neighbors = 13136
Ave neighs/atom = 121.62963
Neighbor list builds = 1
Dangerous builds not checked
run 1
Per MPI rank memory allocation (min/avg/max) = 3.88 | 3.88 | 3.88 Mbytes
   Step          Temp          PotEng         KinEng         TotEng         Press     
        27   2116.6042     -1064.8206      29.274405     -1035.5462      12510.123    
        28   2101.6249     -1064.6214      29.067229     -1035.5542      12814.269    
Loop time of 0.0036375 on 1 procs for 1 steps with 108 atoms

Performance: 23.753 ns/day, 1.010 hours/ns, 274.914 timesteps/s, 29.691 katom-step/s
98.5% CPU use with 1 MPI tasks x no OpenMP threads

MPI task timing breakdown:
Section |  min time  |  avg time  |  max time  |%varavg| %total
---------------------------------------------------------------
Pair    | 0.0028093  | 0.0028093  | 0.0028093  |   0.0 | 77.23
Neigh   | 0.000283   | 0.000283   | 0.000283   |   0.0 |  7.78
Comm    | 9.917e-06  | 9.917e-06  | 9.917e-06  |   0.0 |  0.27
Output  | 0.00053225 | 0.00053225 | 0.00053225 |   0.0 | 14.63
Modify  | 1.541e-06  | 1.541e-06  | 1.541e-06  |   0.0 |  0.04
Other   |            | 1.542e-06  |            |       |  0.04

Nlocal:            108 ave         108 max         108 min
Histogram: 1 0 0 0 0 0 0 0 0 0
Nghost:           1091 ave        1091 max        1091 min
Histogram: 1 0 0 0 0 0 0 0 0 0
Neighs:              0 ave           0 max           0 min
Histogram: 1 0 0 0 0 0 0 0 0 0
FullNghs:        13144 ave       13144 max       13144 min
Histogram: 1 0 0 0 0 0 0 0 0 0

Total # of neighbors = 13144
Ave neighs/atom = 121.7037
Neighbor list builds = 1
Dangerous builds not checked
run 1
Per MPI rank memory allocation (min/avg/max) = 3.88 | 3.88 | 3.88 Mbytes
   Step          Temp          PotEng         KinEng         TotEng         Press     
        28   2101.6249     -1064.6214      29.067229     -1035.5542      12814.269    
        29   2086.3054     -1064.418       28.855346     -1035.5626      13302.242    
Loop time of 0.00359588 on 1 procs for 1 steps with 108 atoms

Performance: 24.028 ns/day, 0.999 hours/ns, 278.096 timesteps/s, 30.034 katom-step/s
98.6% CPU use with 1 MPI tasks x no OpenMP threads

MPI task timing breakdown:
Section |  min time  |  avg time  |  max time  |%varavg| %total
---------------------------------------------------------------
Pair    | 0.0027985  | 0.0027985  | 0.0027985  |   0.0 | 77.83
Neigh   | 0.00026042 | 0.00026042 | 0.00026042 |   0.0 |  7.24
Comm    | 8.959e-06  | 8.959e-06  | 8.959e-06  |   0.0 |  0.25
Output  | 0.00052533 | 0.00052533 | 0.00052533 |   0.0 | 14.61
Modify  | 1.292e-06  | 1.292e-06  | 1.292e-06  |   0.0 |  0.04
Other   |            | 1.374e-06  |            |       |  0.04

Nlocal:            108 ave         108 max         108 min
Histogram: 1 0 0 0 0 0 0 0 0 0
Nghost:           1091 ave        1091 max        1091 min
Histogram: 1 0 0 0 0 0 0 0 0 0
Neighs:              0 ave           0 max           0 min
Histogram: 1 0 0 0 0 0 0 0 0 0
FullNghs:        13134 ave       13134 max       13134 min
Histogram: 1 0 0 0 0 0 0 0 0 0

Total # of neighbors = 13134
Ave neighs/atom = 121.61111
Neighbor list builds = 1
Dangerous builds not checked
run 1
Per MPI rank memory allocation (min/avg/max) = 3.88 | 3.88 | 3.88 Mbytes
   Step          Temp          PotEng         KinEng         TotEng         Press     
        29   2086.3054     -1064.418       28.855346     -1035.5626      13302.242    
        30   2070.8089     -1064.2126      28.641017     -1035.5716      13938.532    
Loop time of 0.00360392 on 1 procs for 1 steps with 108 atoms

Performance: 23.974 ns/day, 1.001 hours/ns, 277.476 timesteps/s, 29.967 katom-step/s
98.9% CPU use with 1 MPI tasks x no OpenMP threads

MPI task timing breakdown:
Section |  min time  |  avg time  |  max time  |%varavg| %total
---------------------------------------------------------------
Pair    | 0.0028044  | 0.0028044  | 0.0028044  |   0.0 | 77.81
Neigh   | 0.00026929 | 0.00026929 | 0.00026929 |   0.0 |  7.47
Comm    | 9e-06      | 9e-06      | 9e-06      |   0.0 |  0.25
Output  | 0.00051867 | 0.00051867 | 0.00051867 |   0.0 | 14.39
Modify  | 1.292e-06  | 1.292e-06  | 1.292e-06  |   0.0 |  0.04
Other   |            | 1.292e-06  |            |       |  0.04

Nlocal:            108 ave         108 max         108 min
Histogram: 1 0 0 0 0 0 0 0 0 0
Nghost:           1091 ave        1091 max        1091 min
Histogram: 1 0 0 0 0 0 0 0 0 0
Neighs:              0 ave           0 max           0 min
Histogram: 1 0 0 0 0 0 0 0 0 0
FullNghs:        13134 ave       13134 max       13134 min
Histogram: 1 0 0 0 0 0 0 0 0 0

Total # of neighbors = 13134
Ave neighs/atom = 121.61111
Neighbor list builds = 1
Dangerous builds not checked
run 1
Per MPI rank memory allocation (min/avg/max) = 3.88 | 3.88 | 3.88 Mbytes
   Step          Temp          PotEng         KinEng         TotEng         Press     
        30   2070.8089     -1064.2126      28.641017     -1035.5716      13938.532    
        31   2055.0738     -1064.0042      28.423388     -1035.5808      14714.491    
Loop time of 0.00383367 on 1 procs for 1 steps with 108 atoms

Performance: 22.537 ns/day, 1.065 hours/ns, 260.847 timesteps/s, 28.171 katom-step/s
98.4% CPU use with 1 MPI tasks x no OpenMP threads

MPI task timing breakdown:
Section |  min time  |  avg time  |  max time  |%varavg| %total
---------------------------------------------------------------
Pair    | 0.0029897  | 0.0029897  | 0.0029897  |   0.0 | 77.98
Neigh   | 0.00026492 | 0.00026492 | 0.00026492 |   0.0 |  6.91
Comm    | 1.025e-05  | 1.025e-05  | 1.025e-05  |   0.0 |  0.27
Output  | 0.00056325 | 0.00056325 | 0.00056325 |   0.0 | 14.69
Modify  | 2.25e-06   | 2.25e-06   | 2.25e-06   |   0.0 |  0.06
Other   |            | 3.333e-06  |            |       |  0.09

Nlocal:            108 ave         108 max         108 min
Histogram: 1 0 0 0 0 0 0 0 0 0
Nghost:           1087 ave        1087 max        1087 min
Histogram: 1 0 0 0 0 0 0 0 0 0
Neighs:              0 ave           0 max           0 min
Histogram: 1 0 0 0 0 0 0 0 0 0
FullNghs:        13128 ave       13128 max       13128 min
Histogram: 1 0 0 0 0 0 0 0 0 0

Total # of neighbors = 13128
Ave neighs/atom = 121.55556
Neighbor list builds = 1
Dangerous builds not checked
run 1
Per MPI rank memory allocation (min/avg/max) = 3.88 | 3.88 | 3.88 Mbytes
   Step          Temp          PotEng         KinEng         TotEng         Press     
        31   2055.0738     -1064.0042      28.423388     -1035.5808      14714.491    
        32   2038.8861     -1063.7897      28.199499     -1035.5902      15632.372    
Loop time of 0.0036995 on 1 procs for 1 steps with 108 atoms

Performance: 23.355 ns/day, 1.028 hours/ns, 270.307 timesteps/s, 29.193 katom-step/s
98.7% CPU use with 1 MPI tasks x no OpenMP threads

MPI task timing breakdown:
Section |  min time  |  avg time  |  max time  |%varavg| %total
---------------------------------------------------------------
Pair    | 0.0028902  | 0.0028902  | 0.0028902  |   0.0 | 78.12
Neigh   | 0.00026321 | 0.00026321 | 0.00026321 |   0.0 |  7.11
Comm    | 8.916e-06  | 8.916e-06  | 8.916e-06  |   0.0 |  0.24
Output  | 0.00053433 | 0.00053433 | 0.00053433 |   0.0 | 14.44
Modify  | 1.5e-06    | 1.5e-06    | 1.5e-06    |   0.0 |  0.04
Other   |            | 1.335e-06  |            |       |  0.04

Nlocal:            108 ave         108 max         108 min
Histogram: 1 0 0 0 0 0 0 0 0 0
Nghost:           1087 ave        1087 max        1087 min
Histogram: 1 0 0 0 0 0 0 0 0 0
Neighs:              0 ave           0 max           0 min
Histogram: 1 0 0 0 0 0 0 0 0 0
FullNghs:        13116 ave       13116 max       13116 min
Histogram: 1 0 0 0 0 0 0 0 0 0

Total # of neighbors = 13116
Ave neighs/atom = 121.44444
Neighbor list builds = 1
Dangerous builds not checked
run 1
Per MPI rank memory allocation (min/avg/max) = 3.88 | 3.88 | 3.88 Mbytes
   Step          Temp          PotEng         KinEng         TotEng         Press     
        32   2038.8861     -1063.7897      28.199499     -1035.5902      15632.372    
        33   2021.9783     -1063.5653      27.965649     -1035.5997      16663.456    
Loop time of 0.00368883 on 1 procs for 1 steps with 108 atoms

Performance: 23.422 ns/day, 1.025 hours/ns, 271.088 timesteps/s, 29.278 katom-step/s
98.4% CPU use with 1 MPI tasks x no OpenMP threads

MPI task timing breakdown:
Section |  min time  |  avg time  |  max time  |%varavg| %total
---------------------------------------------------------------
Pair    | 0.0028805  | 0.0028805  | 0.0028805  |   0.0 | 78.09
Neigh   | 0.00026554 | 0.00026554 | 0.00026554 |   0.0 |  7.20
Comm    | 8.833e-06  | 8.833e-06  | 8.833e-06  |   0.0 |  0.24
Output  | 0.00053121 | 0.00053121 | 0.00053121 |   0.0 | 14.40
Modify  | 1.584e-06  | 1.584e-06  | 1.584e-06  |   0.0 |  0.04
Other   |            | 1.209e-06  |            |       |  0.03

Nlocal:            108 ave         108 max         108 min
Histogram: 1 0 0 0 0 0 0 0 0 0
Nghost:           1087 ave        1087 max        1087 min
Histogram: 1 0 0 0 0 0 0 0 0 0
Neighs:              0 ave           0 max           0 min
Histogram: 1 0 0 0 0 0 0 0 0 0
FullNghs:        13122 ave       13122 max       13122 min
Histogram: 1 0 0 0 0 0 0 0 0 0

Total # of neighbors = 13122
Ave neighs/atom = 121.5
Neighbor list builds = 1
Dangerous builds not checked
run 1
Per MPI rank memory allocation (min/avg/max) = 3.88 | 3.88 | 3.88 Mbytes
   Step          Temp          PotEng         KinEng         TotEng         Press     
        33   2021.9783     -1063.5653      27.965649     -1035.5997      16663.456    
        34   2004.1486     -1063.328       27.71905      -1035.6089      17788.987    
Loop time of 0.00364692 on 1 procs for 1 steps with 108 atoms

Performance: 23.691 ns/day, 1.013 hours/ns, 274.204 timesteps/s, 29.614 katom-step/s
98.7% CPU use with 1 MPI tasks x no OpenMP threads

MPI task timing breakdown:
Section |  min time  |  avg time  |  max time  |%varavg| %total
---------------------------------------------------------------
Pair    | 0.0028522  | 0.0028522  | 0.0028522  |   0.0 | 78.21
Neigh   | 0.00023904 | 0.00023904 | 0.00023904 |   0.0 |  6.55
Comm    | 9e-06      | 9e-06      | 9e-06      |   0.0 |  0.25
Output  | 0.00054396 | 0.00054396 | 0.00054396 |   0.0 | 14.92
Modify  | 1.291e-06  | 1.291e-06  | 1.291e-06  |   0.0 |  0.04
Other   |            | 1.459e-06  |            |       |  0.04

Nlocal:            108 ave         108 max         108 min
Histogram: 1 0 0 0 0 0 0 0 0 0
Nghost:           1087 ave        1087 max        1087 min
Histogram: 1 0 0 0 0 0 0 0 0 0
Neighs:              0 ave           0 max           0 min
Histogram: 1 0 0 0 0 0 0 0 0 0
FullNghs:        13128 ave       13128 max       13128 min
Histogram: 1 0 0 0 0 0 0 0 0 0

Total # of neighbors = 13128
Ave neighs/atom = 121.55556
Neighbor list builds = 1
Dangerous builds not checked
run 1
Per MPI rank memory allocation (min/avg/max) = 3.88 | 3.88 | 3.88 Mbytes
   Step          Temp          PotEng         KinEng         TotEng         Press     
        34   2004.1486     -1063.328       27.71905      -1035.6089      17788.987    
        35   1985.4061     -1063.0777      27.459825     -1035.6179      18971.34     
Loop time of 0.00374733 on 1 procs for 1 steps with 108 atoms

Performance: 23.056 ns/day, 1.041 hours/ns, 266.856 timesteps/s, 28.820 katom-step/s
98.5% CPU use with 1 MPI tasks x no OpenMP threads

MPI task timing breakdown:
Section |  min time  |  avg time  |  max time  |%varavg| %total
---------------------------------------------------------------
Pair    | 0.0029496  | 0.0029496  | 0.0029496  |   0.0 | 78.71
Neigh   | 0.00025608 | 0.00025608 | 0.00025608 |   0.0 |  6.83
Comm    | 9.333e-06  | 9.333e-06  | 9.333e-06  |   0.0 |  0.25
Output  | 0.00052892 | 0.00052892 | 0.00052892 |   0.0 | 14.11
Modify  | 1.708e-06  | 1.708e-06  | 1.708e-06  |   0.0 |  0.05
Other   |            | 1.709e-06  |            |       |  0.05

Nlocal:            108 ave         108 max         108 min
Histogram: 1 0 0 0 0 0 0 0 0 0
Nghost:           1087 ave        1087 max        1087 min
Histogram: 1 0 0 0 0 0 0 0 0 0
Neighs:              0 ave           0 max           0 min
Histogram: 1 0 0 0 0 0 0 0 0 0
FullNghs:        13128 ave       13128 max       13128 min
Histogram: 1 0 0 0 0 0 0 0 0 0

Total # of neighbors = 13128
Ave neighs/atom = 121.55556
Neighbor list builds = 1
Dangerous builds not checked
run 1
Per MPI rank memory allocation (min/avg/max) = 3.88 | 3.88 | 3.88 Mbytes
   Step          Temp          PotEng         KinEng         TotEng         Press     
        35   1985.4061     -1063.0777      27.459825     -1035.6179      18971.34     
        36   1966.0711     -1062.8188      27.192405     -1035.6264      20158.958    
Loop time of 0.00371642 on 1 procs for 1 steps with 108 atoms

Performance: 23.248 ns/day, 1.032 hours/ns, 269.076 timesteps/s, 29.060 katom-step/s
98.6% CPU use with 1 MPI tasks x no OpenMP threads

MPI task timing breakdown:
Section |  min time  |  avg time  |  max time  |%varavg| %total
---------------------------------------------------------------
Pair    | 0.0029111  | 0.0029111  | 0.0029111  |   0.0 | 78.33
Neigh   | 0.00025188 | 0.00025188 | 0.00025188 |   0.0 |  6.78
Comm    | 8.917e-06  | 8.917e-06  | 8.917e-06  |   0.0 |  0.24
Output  | 0.00054167 | 0.00054167 | 0.00054167 |   0.0 | 14.57
Modify  | 1.417e-06  | 1.417e-06  | 1.417e-06  |   0.0 |  0.04
Other   |            | 1.458e-06  |            |       |  0.04

Nlocal:            108 ave         108 max         108 min
Histogram: 1 0 0 0 0 0 0 0 0 0
Nghost:           1093 ave        1093 max        1093 min
Histogram: 1 0 0 0 0 0 0 0 0 0
Neighs:              0 ave           0 max           0 min
Histogram: 1 0 0 0 0 0 0 0 0 0
FullNghs:        13130 ave       13130 max       13130 min
Histogram: 1 0 0 0 0 0 0 0 0 0

Total # of neighbors = 13130
Ave neighs/atom = 121.57407
Neighbor list builds = 1
Dangerous builds not checked
run 1
Per MPI rank memory allocation (min/avg/max) = 3.88 | 3.88 | 3.88 Mbytes
   Step          Temp          PotEng         KinEng         TotEng         Press     
        36   1966.0711     -1062.8188      27.192405     -1035.6264      20158.958    
        37   1946.8104     -1062.5604      26.926015     -1035.6344      21295.084    
Loop time of 0.00368913 on 1 procs for 1 steps with 108 atoms

Performance: 23.420 ns/day, 1.025 hours/ns, 271.067 timesteps/s, 29.275 katom-step/s
98.9% CPU use with 1 MPI tasks x no OpenMP threads

MPI task timing breakdown:
Section |  min time  |  avg time  |  max time  |%varavg| %total
---------------------------------------------------------------
Pair    | 0.0028835  | 0.0028835  | 0.0028835  |   0.0 | 78.16
Neigh   | 0.00026696 | 0.00026696 | 0.00026696 |   0.0 |  7.24
Comm    | 8.833e-06  | 8.833e-06  | 8.833e-06  |   0.0 |  0.24
Output  | 0.00052721 | 0.00052721 | 0.00052721 |   0.0 | 14.29
Modify  | 1.25e-06   | 1.25e-06   | 1.25e-06   |   0.0 |  0.03
Other   |            | 1.334e-06  |            |       |  0.04

Nlocal:            108 ave         108 max         108 min
Histogram: 1 0 0 0 0 0 0 0 0 0
Nghost:           1089 ave        1089 max        1089 min
Histogram: 1 0 0 0 0 0 0 0 0 0
Neighs:              0 ave           0 max           0 min
Histogram: 1 0 0 0 0 0 0 0 0 0
FullNghs:        13156 ave       13156 max       13156 min
Histogram: 1 0 0 0 0 0 0 0 0 0

Total # of neighbors = 13156
Ave neighs/atom = 121.81481
Neighbor list builds = 1
Dangerous builds not checked
run 1
Per MPI rank memory allocation (min/avg/max) = 3.88 | 3.88 | 3.88 Mbytes
   Step          Temp          PotEng         KinEng         TotEng         Press     
        37   1946.8104     -1062.5604      26.926015     -1035.6344      21295.084    
        38   1928.604      -1062.3163      26.674205     -1035.642       22315.843    
Loop time of 0.00367596 on 1 procs for 1 steps with 108 atoms

Performance: 23.504 ns/day, 1.021 hours/ns, 272.038 timesteps/s, 29.380 katom-step/s
98.7% CPU use with 1 MPI tasks x no OpenMP threads

MPI task timing breakdown:
Section |  min time  |  avg time  |  max time  |%varavg| %total
---------------------------------------------------------------
Pair    | 0.002862   | 0.002862   | 0.002862   |   0.0 | 77.86
Neigh   | 0.00026933 | 0.00026933 | 0.00026933 |   0.0 |  7.33
Comm    | 9.041e-06  | 9.041e-06  | 9.041e-06  |   0.0 |  0.25
Output  | 0.000533   | 0.000533   | 0.000533   |   0.0 | 14.50
Modify  | 1.208e-06  | 1.208e-06  | 1.208e-06  |   0.0 |  0.03
Other   |            | 1.417e-06  |            |       |  0.04

Nlocal:            108 ave         108 max         108 min
Histogram: 1 0 0 0 0 0 0 0 0 0
Nghost:           1095 ave        1095 max        1095 min
Histogram: 1 0 0 0 0 0 0 0 0 0
Neighs:              0 ave           0 max           0 min
Histogram: 1 0 0 0 0 0 0 0 0 0
FullNghs:        13156 ave       13156 max       13156 min
Histogram: 1 0 0 0 0 0 0 0 0 0

Total # of neighbors = 13156
Ave neighs/atom = 121.81481
Neighbor list builds = 1
Dangerous builds not checked
run 1
Per MPI rank memory allocation (min/avg/max) = 3.88 | 3.88 | 3.88 Mbytes
   Step          Temp          PotEng         KinEng         TotEng         Press     
        38   1928.604      -1062.3163      26.674205     -1035.642       22315.843    
        39   1912.6482     -1062.1029      26.453522     -1035.6493      23158.083    
Loop time of 0.0036975 on 1 procs for 1 steps with 108 atoms

Performance: 23.367 ns/day, 1.027 hours/ns, 270.453 timesteps/s, 29.209 katom-step/s
98.7% CPU use with 1 MPI tasks x no OpenMP threads

MPI task timing breakdown:
Section |  min time  |  avg time  |  max time  |%varavg| %total
---------------------------------------------------------------
Pair    | 0.0029022  | 0.0029022  | 0.0029022  |   0.0 | 78.49
Neigh   | 0.00024917 | 0.00024917 | 0.00024917 |   0.0 |  6.74
Comm    | 8.834e-06  | 8.834e-06  | 8.834e-06  |   0.0 |  0.24
Output  | 0.00053471 | 0.00053471 | 0.00053471 |   0.0 | 14.46
Modify  | 1.333e-06  | 1.333e-06  | 1.333e-06  |   0.0 |  0.04
Other   |            | 1.292e-06  |            |       |  0.03

Nlocal:            108 ave         108 max         108 min
Histogram: 1 0 0 0 0 0 0 0 0 0
Nghost:           1095 ave        1095 max        1095 min
Histogram: 1 0 0 0 0 0 0 0 0 0
Neighs:              0 ave           0 max           0 min
Histogram: 1 0 0 0 0 0 0 0 0 0
FullNghs:        13152 ave       13152 max       13152 min
Histogram: 1 0 0 0 0 0 0 0 0 0

Total # of neighbors = 13152
Ave neighs/atom = 121.77778
Neighbor list builds = 1
Dangerous builds not checked
run 1
Per MPI rank memory allocation (min/avg/max) = 3.88 | 3.88 | 3.88 Mbytes
   Step          Temp          PotEng         KinEng         TotEng         Press     
        39   1912.6482     -1062.1029      26.453522     -1035.6493      23158.083    
        40   1900.2242     -1061.9381      26.281688     -1035.6564      23754.84     
Loop time of 0.00367058 on 1 procs for 1 steps with 108 atoms

Performance: 23.538 ns/day, 1.020 hours/ns, 272.436 timesteps/s, 29.423 katom-step/s
98.8% CPU use with 1 MPI tasks x no OpenMP threads

MPI task timing breakdown:
Section |  min time  |  avg time  |  max time  |%varavg| %total
---------------------------------------------------------------
Pair    | 0.0028578  | 0.0028578  | 0.0028578  |   0.0 | 77.86
Neigh   | 0.00027212 | 0.00027212 | 0.00027212 |   0.0 |  7.41
Comm    | 9e-06      | 9e-06      | 9e-06      |   0.0 |  0.25
Output  | 0.00052908 | 0.00052908 | 0.00052908 |   0.0 | 14.41
Modify  | 1.209e-06  | 1.209e-06  | 1.209e-06  |   0.0 |  0.03
Other   |            | 1.375e-06  |            |       |  0.04

Nlocal:            108 ave         108 max         108 min
Histogram: 1 0 0 0 0 0 0 0 0 0
Nghost:           1099 ave        1099 max        1099 min
Histogram: 1 0 0 0 0 0 0 0 0 0
Neighs:              0 ave           0 max           0 min
Histogram: 1 0 0 0 0 0 0 0 0 0
FullNghs:        13156 ave       13156 max       13156 min
Histogram: 1 0 0 0 0 0 0 0 0 0

Total # of neighbors = 13156
Ave neighs/atom = 121.81481
Neighbor list builds = 1
Dangerous builds not checked
run 1
Per MPI rank memory allocation (min/avg/max) = 3.88 | 3.88 | 3.88 Mbytes
   Step          Temp          PotEng         KinEng         TotEng         Press     
        40   1900.2242     -1061.9381      26.281688     -1035.6564      23754.84     
        41   1892.5353     -1061.8387      26.175344     -1035.6634      24078.301    
Loop time of 0.003812 on 1 procs for 1 steps with 108 atoms

Performance: 22.665 ns/day, 1.059 hours/ns, 262.329 timesteps/s, 28.332 katom-step/s
98.2% CPU use with 1 MPI tasks x no OpenMP threads

MPI task timing breakdown:
Section |  min time  |  avg time  |  max time  |%varavg| %total
---------------------------------------------------------------
Pair    | 0.0029484  | 0.0029484  | 0.0029484  |   0.0 | 77.34
Neigh   | 0.00029662 | 0.00029662 | 0.00029662 |   0.0 |  7.78
Comm    | 1.1291e-05 | 1.1291e-05 | 1.1291e-05 |   0.0 |  0.30
Output  | 0.0005515  | 0.0005515  | 0.0005515  |   0.0 | 14.47
Modify  | 1.834e-06  | 1.834e-06  | 1.834e-06  |   0.0 |  0.05
Other   |            | 2.375e-06  |            |       |  0.06

Nlocal:            108 ave         108 max         108 min
Histogram: 1 0 0 0 0 0 0 0 0 0
Nghost:           1099 ave        1099 max        1099 min
Histogram: 1 0 0 0 0 0 0 0 0 0
Neighs:              0 ave           0 max           0 min
Histogram: 1 0 0 0 0 0 0 0 0 0
FullNghs:        13152 ave       13152 max       13152 min
Histogram: 1 0 0 0 0 0 0 0 0 0

Total # of neighbors = 13152
Ave neighs/atom = 121.77778
Neighbor list builds = 1
Dangerous builds not checked
run 1
Per MPI rank memory allocation (min/avg/max) = 3.88 | 3.88 | 3.88 Mbytes
   Step          Temp          PotEng         KinEng         TotEng         Press     
        41   1892.5353     -1061.8387      26.175344     -1035.6634      24078.301    
        42   1890.5574     -1061.8183      26.147988     -1035.6703      24074.263    
Loop time of 0.00370817 on 1 procs for 1 steps with 108 atoms

Performance: 23.300 ns/day, 1.030 hours/ns, 269.675 timesteps/s, 29.125 katom-step/s
98.8% CPU use with 1 MPI tasks x no OpenMP threads

MPI task timing breakdown:
Section |  min time  |  avg time  |  max time  |%varavg| %total
---------------------------------------------------------------
Pair    | 0.002911   | 0.002911   | 0.002911   |   0.0 | 78.50
Neigh   | 0.00026417 | 0.00026417 | 0.00026417 |   0.0 |  7.12
Comm    | 9.459e-06  | 9.459e-06  | 9.459e-06  |   0.0 |  0.26
Output  | 0.00052029 | 0.00052029 | 0.00052029 |   0.0 | 14.03
Modify  | 1.584e-06  | 1.584e-06  | 1.584e-06  |   0.0 |  0.04
Other   |            | 1.706e-06  |            |       |  0.05

Nlocal:            108 ave         108 max         108 min
Histogram: 1 0 0 0 0 0 0 0 0 0
Nghost:           1099 ave        1099 max        1099 min
Histogram: 1 0 0 0 0 0 0 0 0 0
Neighs:              0 ave           0 max           0 min
Histogram: 1 0 0 0 0 0 0 0 0 0
FullNghs:        13154 ave       13154 max       13154 min
Histogram: 1 0 0 0 0 0 0 0 0 0

Total # of neighbors = 13154
Ave neighs/atom = 121.7963
Neighbor list builds = 1
Dangerous builds not checked
run 1
Per MPI rank memory allocation (min/avg/max) = 3.88 | 3.88 | 3.88 Mbytes
   Step          Temp          PotEng         KinEng         TotEng         Press     
        42   1890.5574     -1061.8183      26.147988     -1035.6703      24074.263    
        43   1894.9035     -1061.8856      26.208098     -1035.6775      23723.347    
Loop time of 0.003639 on 1 procs for 1 steps with 108 atoms

Performance: 23.743 ns/day, 1.011 hours/ns, 274.801 timesteps/s, 29.678 katom-step/s
98.8% CPU use with 1 MPI tasks x no OpenMP threads

MPI task timing breakdown:
Section |  min time  |  avg time  |  max time  |%varavg| %total
---------------------------------------------------------------
Pair    | 0.0028341  | 0.0028341  | 0.0028341  |   0.0 | 77.88
Neigh   | 0.00025771 | 0.00025771 | 0.00025771 |   0.0 |  7.08
Comm    | 9.5e-06    | 9.5e-06    | 9.5e-06    |   0.0 |  0.26
Output  | 0.00053487 | 0.00053487 | 0.00053487 |   0.0 | 14.70
Modify  | 1.333e-06  | 1.333e-06  | 1.333e-06  |   0.0 |  0.04
Other   |            | 1.5e-06    |            |       |  0.04

Nlocal:            108 ave         108 max         108 min
Histogram: 1 0 0 0 0 0 0 0 0 0
Nghost:           1099 ave        1099 max        1099 min
Histogram: 1 0 0 0 0 0 0 0 0 0
Neighs:              0 ave           0 max           0 min
Histogram: 1 0 0 0 0 0 0 0 0 0
FullNghs:        13156 ave       13156 max       13156 min
Histogram: 1 0 0 0 0 0 0 0 0 0

Total # of neighbors = 13156
Ave neighs/atom = 121.81481
Neighbor list builds = 1
Dangerous builds not checked
run 1
Per MPI rank memory allocation (min/avg/max) = 3.88 | 3.88 | 3.88 Mbytes
   Step          Temp          PotEng         KinEng         TotEng         Press     
        43   1894.9035     -1061.8856      26.208098     -1035.6775      23723.347    
        44   1905.7084     -1062.0424      26.35754      -1035.6849      23009.106    
Loop time of 0.00361338 on 1 procs for 1 steps with 108 atoms

Performance: 23.911 ns/day, 1.004 hours/ns, 276.750 timesteps/s, 29.889 katom-step/s
98.8% CPU use with 1 MPI tasks x no OpenMP threads

MPI task timing breakdown:
Section |  min time  |  avg time  |  max time  |%varavg| %total
---------------------------------------------------------------
Pair    | 0.0028412  | 0.0028412  | 0.0028412  |   0.0 | 78.63
Neigh   | 0.00024271 | 0.00024271 | 0.00024271 |   0.0 |  6.72
Comm    | 8.541e-06  | 8.541e-06  | 8.541e-06  |   0.0 |  0.24
Output  | 0.00051846 | 0.00051846 | 0.00051846 |   0.0 | 14.35
Modify  | 1.209e-06  | 1.209e-06  | 1.209e-06  |   0.0 |  0.03
Other   |            | 1.291e-06  |            |       |  0.04

Nlocal:            108 ave         108 max         108 min
Histogram: 1 0 0 0 0 0 0 0 0 0
Nghost:           1099 ave        1099 max        1099 min
Histogram: 1 0 0 0 0 0 0 0 0 0
Neighs:              0 ave           0 max           0 min
Histogram: 1 0 0 0 0 0 0 0 0 0
FullNghs:        13168 ave       13168 max       13168 min
Histogram: 1 0 0 0 0 0 0 0 0 0

Total # of neighbors = 13168
Ave neighs/atom = 121.92593
Neighbor list builds = 1
Dangerous builds not checked
run 1
Per MPI rank memory allocation (min/avg/max) = 3.88 | 3.88 | 3.88 Mbytes
   Step          Temp          PotEng         KinEng         TotEng         Press     
        44   1905.7084     -1062.0424      26.35754      -1035.6849      23009.106    
        45   1922.5649     -1062.2833      26.590679     -1035.6926      21958.501    
Loop time of 0.00364192 on 1 procs for 1 steps with 108 atoms

Performance: 23.724 ns/day, 1.012 hours/ns, 274.581 timesteps/s, 29.655 katom-step/s
98.7% CPU use with 1 MPI tasks x no OpenMP threads

MPI task timing breakdown:
Section |  min time  |  avg time  |  max time  |%varavg| %total
---------------------------------------------------------------
Pair    | 0.0028558  | 0.0028558  | 0.0028558  |   0.0 | 78.41
Neigh   | 0.00025471 | 0.00025471 | 0.00025471 |   0.0 |  6.99
Comm    | 8.499e-06  | 8.499e-06  | 8.499e-06  |   0.0 |  0.23
Output  | 0.00052029 | 0.00052029 | 0.00052029 |   0.0 | 14.29
Modify  | 1.291e-06  | 1.291e-06  | 1.291e-06  |   0.0 |  0.04
Other   |            | 1.333e-06  |            |       |  0.04

Nlocal:            108 ave         108 max         108 min
Histogram: 1 0 0 0 0 0 0 0 0 0
Nghost:           1099 ave        1099 max        1099 min
Histogram: 1 0 0 0 0 0 0 0 0 0
Neighs:              0 ave           0 max           0 min
Histogram: 1 0 0 0 0 0 0 0 0 0
FullNghs:        13150 ave       13150 max       13150 min
Histogram: 1 0 0 0 0 0 0 0 0 0

Total # of neighbors = 13150
Ave neighs/atom = 121.75926
Neighbor list builds = 1
Dangerous builds not checked
run 1
Per MPI rank memory allocation (min/avg/max) = 3.88 | 3.88 | 3.88 Mbytes
   Step          Temp          PotEng         KinEng         TotEng         Press     
        45   1922.5649     -1062.2833      26.590679     -1035.6926      21958.501    
        46   1944.5233     -1062.595       26.894382     -1035.7006      20614.552    
Loop time of 0.00356458 on 1 procs for 1 steps with 108 atoms

Performance: 24.238 ns/day, 0.990 hours/ns, 280.538 timesteps/s, 30.298 katom-step/s
98.9% CPU use with 1 MPI tasks x no OpenMP threads

MPI task timing breakdown:
Section |  min time  |  avg time  |  max time  |%varavg| %total
---------------------------------------------------------------
Pair    | 0.0027935  | 0.0027935  | 0.0027935  |   0.0 | 78.37
Neigh   | 0.00023517 | 0.00023517 | 0.00023517 |   0.0 |  6.60
Comm    | 8.791e-06  | 8.791e-06  | 8.791e-06  |   0.0 |  0.25
Output  | 0.00052467 | 0.00052467 | 0.00052467 |   0.0 | 14.72
Modify  | 1.208e-06  | 1.208e-06  | 1.208e-06  |   0.0 |  0.03
Other   |            | 1.293e-06  |            |       |  0.04

Nlocal:            108 ave         108 max         108 min
Histogram: 1 0 0 0 0 0 0 0 0 0
Nghost:           1095 ave        1095 max        1095 min
Histogram: 1 0 0 0 0 0 0 0 0 0
Neighs:              0 ave           0 max           0 min
Histogram: 1 0 0 0 0 0 0 0 0 0
FullNghs:        13154 ave       13154 max       13154 min
Histogram: 1 0 0 0 0 0 0 0 0 0

Total # of neighbors = 13154
Ave neighs/atom = 121.7963
Neighbor list builds = 1
Dangerous builds not checked
run 1
Per MPI rank memory allocation (min/avg/max) = 3.88 | 3.88 | 3.88 Mbytes
   Step          Temp          PotEng         KinEng         TotEng         Press     
        46   1944.5233     -1062.595       26.894382     -1035.7006      20614.552    
        47   1970.1736     -1062.958       27.249147     -1035.7089      19066.141    
Loop time of 0.00359104 on 1 procs for 1 steps with 108 atoms

Performance: 24.060 ns/day, 0.998 hours/ns, 278.471 timesteps/s, 30.075 katom-step/s
98.8% CPU use with 1 MPI tasks x no OpenMP threads

MPI task timing breakdown:
Section |  min time  |  avg time  |  max time  |%varavg| %total
---------------------------------------------------------------
Pair    | 0.0028056  | 0.0028056  | 0.0028056  |   0.0 | 78.13
Neigh   | 0.0002605  | 0.0002605  | 0.0002605  |   0.0 |  7.25
Comm    | 8.666e-06  | 8.666e-06  | 8.666e-06  |   0.0 |  0.24
Output  | 0.00051367 | 0.00051367 | 0.00051367 |   0.0 | 14.30
Modify  | 1.291e-06  | 1.291e-06  | 1.291e-06  |   0.0 |  0.04
Other   |            | 1.335e-06  |            |       |  0.04

Nlocal:            108 ave         108 max         108 min
Histogram: 1 0 0 0 0 0 0 0 0 0
Nghost:           1095 ave        1095 max        1095 min
Histogram: 1 0 0 0 0 0 0 0 0 0
Neighs:              0 ave           0 max           0 min
Histogram: 1 0 0 0 0 0 0 0 0 0
FullNghs:        13138 ave       13138 max       13138 min
Histogram: 1 0 0 0 0 0 0 0 0 0

Total # of neighbors = 13138
Ave neighs/atom = 121.64815
Neighbor list builds = 1
Dangerous builds not checked
run 1
Per MPI rank memory allocation (min/avg/max) = 3.88 | 3.88 | 3.88 Mbytes
   Step          Temp          PotEng         KinEng         TotEng         Press     
        47   1970.1736     -1062.958       27.249147     -1035.7089      19066.141    
        48   1997.7922     -1063.3485      27.631135     -1035.7173      17395.712    
Loop time of 0.00353621 on 1 procs for 1 steps with 108 atoms

Performance: 24.433 ns/day, 0.982 hours/ns, 282.789 timesteps/s, 30.541 katom-step/s
98.9% CPU use with 1 MPI tasks x no OpenMP threads

MPI task timing breakdown:
Section |  min time  |  avg time  |  max time  |%varavg| %total
---------------------------------------------------------------
Pair    | 0.002764   | 0.002764   | 0.002764   |   0.0 | 78.16
Neigh   | 0.00024321 | 0.00024321 | 0.00024321 |   0.0 |  6.88
Comm    | 8.709e-06  | 8.709e-06  | 8.709e-06  |   0.0 |  0.25
Output  | 0.00051783 | 0.00051783 | 0.00051783 |   0.0 | 14.64
Modify  | 1.208e-06  | 1.208e-06  | 1.208e-06  |   0.0 |  0.03
Other   |            | 1.25e-06   |            |       |  0.04

Nlocal:            108 ave         108 max         108 min
Histogram: 1 0 0 0 0 0 0 0 0 0
Nghost:           1095 ave        1095 max        1095 min
Histogram: 1 0 0 0 0 0 0 0 0 0
Neighs:              0 ave           0 max           0 min
Histogram: 1 0 0 0 0 0 0 0 0 0
FullNghs:        13128 ave       13128 max       13128 min
Histogram: 1 0 0 0 0 0 0 0 0 0

Total # of neighbors = 13128
Ave neighs/atom = 121.55556
Neighbor list builds = 1
Dangerous builds not checked
run 1
Per MPI rank memory allocation (min/avg/max) = 3.88 | 3.88 | 3.88 Mbytes
   Step          Temp          PotEng         KinEng         TotEng         Press     
        48   1997.7922     -1063.3485      27.631135     -1035.7173      17395.712    
        49   2025.5367     -1063.7407      28.014864     -1035.7258      15696.527    
Loop time of 0.00364421 on 1 procs for 1 steps with 108 atoms

Performance: 23.709 ns/day, 1.012 hours/ns, 274.408 timesteps/s, 29.636 katom-step/s
98.3% CPU use with 1 MPI tasks x no OpenMP threads

MPI task timing breakdown:
Section |  min time  |  avg time  |  max time  |%varavg| %total
---------------------------------------------------------------
Pair    | 0.0028491  | 0.0028491  | 0.0028491  |   0.0 | 78.18
Neigh   | 0.0002545  | 0.0002545  | 0.0002545  |   0.0 |  6.98
Comm    | 8.958e-06  | 8.958e-06  | 8.958e-06  |   0.0 |  0.25
Output  | 0.000529   | 0.000529   | 0.000529   |   0.0 | 14.52
Modify  | 1.375e-06  | 1.375e-06  | 1.375e-06  |   0.0 |  0.04
Other   |            | 1.291e-06  |            |       |  0.04

Nlocal:            108 ave         108 max         108 min
Histogram: 1 0 0 0 0 0 0 0 0 0
Nghost:           1101 ave        1101 max        1101 min
Histogram: 1 0 0 0 0 0 0 0 0 0
Neighs:              0 ave           0 max           0 min
Histogram: 1 0 0 0 0 0 0 0 0 0
FullNghs:        13124 ave       13124 max       13124 min
Histogram: 1 0 0 0 0 0 0 0 0 0

Total # of neighbors = 13124
Ave neighs/atom = 121.51852
Neighbor list builds = 1
Dangerous builds not checked
run 1
Per MPI rank memory allocation (min/avg/max) = 3.88 | 3.88 | 3.88 Mbytes
   Step          Temp          PotEng         KinEng         TotEng         Press     
        49   2025.5367     -1063.7407      28.014864     -1035.7258      15696.527    
        50   2051.6284     -1064.11        28.375734     -1035.7343      14035.744    
Loop time of 0.00369204 on 1 procs for 1 steps with 108 atoms

Performance: 23.402 ns/day, 1.026 hours/ns, 270.853 timesteps/s, 29.252 katom-step/s
98.5% CPU use with 1 MPI tasks x no OpenMP threads

MPI task timing breakdown:
Section |  min time  |  avg time  |  max time  |%varavg| %total
---------------------------------------------------------------
Pair    | 0.0028766  | 0.0028766  | 0.0028766  |   0.0 | 77.91
Neigh   | 0.00026875 | 0.00026875 | 0.00026875 |   0.0 |  7.28
Comm    | 9.458e-06  | 9.458e-06  | 9.458e-06  |   0.0 |  0.26
Output  | 0.00053183 | 0.00053183 | 0.00053183 |   0.0 | 14.40
Modify  | 1.333e-06  | 1.333e-06  | 1.333e-06  |   0.0 |  0.04
Other   |            | 4.043e-06  |            |       |  0.11

Nlocal:            108 ave         108 max         108 min
Histogram: 1 0 0 0 0 0 0 0 0 0
Nghost:           1101 ave        1101 max        1101 min
Histogram: 1 0 0 0 0 0 0 0 0 0
Neighs:              0 ave           0 max           0 min
Histogram: 1 0 0 0 0 0 0 0 0 0
FullNghs:        13108 ave       13108 max       13108 min
Histogram: 1 0 0 0 0 0 0 0 0 0

Total # of neighbors = 13108
Ave neighs/atom = 121.37037
Neighbor list builds = 1
Dangerous builds not checked
