LAMMPS (2 Aug 2023 - Development - patch_2Aug2023-219-g06e2d5d306)
units          metal
boundary       p p p
atom_style     atomic
neigh_modify   delay 0 every 1 check no
read_data     fcc_lj_Ar_smaller_DATA
Reading data file ...
  orthogonal box = (0 0 0) to (21.105599 21.105599 21.105599)
  1 by 1 by 1 MPI processor grid
  reading atoms ...
  256 atoms
  read_data CPU = 0.001 seconds
pair_style     lj/cut 8.51
pair_coeff     * * 0.01032 3.405
variable Tstart        equal  10
variable Tend          equal 200
variable Tdamp    equal  0.1
variable Tseed    equal  12280329
variable dumpf    equal  1
velocity     all create ${Tstart} ${Tseed} mom yes rot yes dist gaussian
velocity     all create 10 ${Tseed} mom yes rot yes dist gaussian
velocity     all create 10 12280329 mom yes rot yes dist gaussian
thermo       1
thermo_style custom step temp pe ke etotal press
dump           run_forces all custom ${dumpf} dump_batch_nvt_ramp.custom id type x y z fx fy fz vx vy vz
dump           run_forces all custom 1 dump_batch_nvt_ramp.custom id type x y z fx fy fz vx vy vz
dump_modify    run_forces sort id format line "%4d %1d %32.27f %32.27f %32.27f %32.27f %32.27f %32.27f %32.27f %32.27f %32.27f" 
fix eprint all print 1 "$(step) $(pe)" file pe.dat
fix          nvt all nvt temp ${Tstart} ${Tend} ${Tdamp}
fix          nvt all nvt temp 10 ${Tend} ${Tdamp}
fix          nvt all nvt temp 10 200 ${Tdamp}
fix          nvt all nvt temp 10 200 0.1
run 5000
Generated 0 of 0 mixed pair_coeff terms from geometric mixing rule
Neighbor list info ...
  update: every = 1 steps, delay = 0 steps, check = no
  max neighbors/atom: 2000, page size: 100000
  master list distance cutoff = 10.51
  ghost atom cutoff = 10.51
  binsize = 5.255, bins = 5 5 5
  1 neighbor lists, perpetual/occasional/extra = 1 0 0
  (1) pair lj/cut, perpetual
      attributes: half, newton on
      pair build: half/bin/atomonly/newton
      stencil: half/bin/3d
      bin: standard
0 -21.398550164767247139
Per MPI rank memory allocation (min/avg/max) = 2.63 | 2.63 | 2.63 Mbytes
   Step          Temp          PotEng         KinEng         TotEng         Press     
         0   10            -21.39855       0.32961337    -21.068937      37.448193    
1 -21.398525604161825697
         1   9.9992587     -21.398526      0.32958894    -21.068937      37.468153    
2 -21.398451935238345101
         2   9.9970391     -21.398452      0.32951577    -21.068936      37.528036    
3 -21.398329190533480926
         3   9.99335       -21.398329      0.32939418    -21.068935      37.627846    
4 -21.398157420079844115
         4   9.9882012     -21.398157      0.32922446    -21.068933      37.767572    
5 -21.39793669128609821
         5   9.981603      -21.397937      0.32900698    -21.06893       37.94719     
6 -21.397667088805508939
         6   9.9735665     -21.397667      0.32874209    -21.068925      38.166661    
7 -21.397348714398020775
         7   9.9641036     -21.397349      0.32843018    -21.068919      38.425934    
8 -21.396981686784524612
         8   9.9532268     -21.396982      0.32807166    -21.06891       38.724944    
9 -21.396566141493604363
         9   9.9409493     -21.396566      0.32766698    -21.068899      39.063611    
10 -21.396102230701117719
        10   9.9272849     -21.396102      0.32721658    -21.068886      39.441843    
11 -21.395590123062536492
        11   9.9122482     -21.39559       0.32672095    -21.068869      39.859535    
12 -21.395030003538384022
        12   9.8958544     -21.39503       0.32618059    -21.068849      40.316568    
13 -21.394422073213764435
        13   9.8781192     -21.394422      0.32559602    -21.068826      40.812811    
14 -21.393766549110914355
        14   9.8590591     -21.393767      0.32496777    -21.068799      41.348119    
15 -21.393063663994809076
        15   9.8386908     -21.393064      0.3242964     -21.068767      41.922335    
16 -21.392313666174302966
        16   9.8170321     -21.392314      0.3235825     -21.068731      42.535288    
17 -21.391516819296182206
        17   9.794101      -21.391517      0.32282666    -21.06869       43.186796    
18 -21.390673402133799641
        18   9.769916      -21.390673      0.32202949    -21.068644      43.876664    
19 -21.389783708371059134
        19   9.7444964     -21.389784      0.32119163    -21.068592      44.604685    
20 -21.388848046380285695
        20   9.7178617     -21.388848      0.32031371    -21.068534      45.370639    
21 -21.387866738995267468
        21   9.6900321     -21.387867      0.31939641    -21.06847       46.174295    
22 -21.386840123280400405
        22   9.6610282     -21.38684       0.31844041    -21.0684        47.015409    
23 -21.385768550293509094
        23   9.630871      -21.385769      0.31744638    -21.068322      47.893728    
24 -21.384652384846756235
        24   9.5995818     -21.384652      0.31641505    -21.068237      48.808984    
25 -21.383492005260851698
        25   9.5671826     -21.383492      0.31534713    -21.068145      49.7609      
26 -21.3822878031179755
        26   9.5336956     -21.382288      0.31424335    -21.068044      50.749187    
27 -21.381040183009215383
        27   9.4991434     -21.38104       0.31310447    -21.067936      51.773546    
28 -21.37974956227918355
        28   9.4635489     -21.37975       0.31193123    -21.067818      52.833666    
29 -21.378416370768597687
        29   9.4269354     -21.378416      0.3107244     -21.067692      53.929225    
30 -21.37704105055300019
        30   9.3893265     -21.377041      0.30948476    -21.067556      55.059893    
31 -21.375624055680031432
        31   9.350746      -21.375624      0.30821309    -21.067411      56.225326    
32 -21.374165851903448754
        32   9.3112179     -21.374166      0.30691019    -21.067256      57.425174    
33 -21.372666916417983884
        33   9.2707667     -21.372667      0.30557686    -21.06709       58.659073    
34 -21.371127737589759477
        34   9.2294168     -21.371128      0.30421392    -21.066914      59.926651    
35 -21.369548814688855032
        35   9.1871928     -21.369549      0.30282216    -21.066727      61.227529    
36 -21.367930657620785695
        36   9.1441198     -21.367931      0.30140241    -21.066528      62.561313    
37 -21.366273786657377087
        37   9.1002225     -21.366274      0.2999555     -21.066318      63.927604    
38 -21.364578732170105724
        38   9.0555261     -21.364579      0.29848225    -21.066096      65.325992    
39 -21.362846034364643799
        39   9.0100556     -21.362846      0.29698348    -21.065863      66.756058    
40 -21.361076243017290466
        40   8.963836      -21.361076      0.29546002    -21.065616      68.217374    
41 -21.35926991721536794
        41   8.9168925     -21.35927       0.2939127     -21.065357      69.709505    
42 -21.357427625101301771
        42   8.86925       -21.357428      0.29234234    -21.065085      71.232004    
43 -21.355549943621564779
        43   8.8209333     -21.35555       0.29074976    -21.0648        72.784418    
44 -21.353637458282875627
        44   8.7719672     -21.353637      0.28913577    -21.064502      74.366283    
45 -21.35169076291359147
        45   8.7223761     -21.351691      0.28750118    -21.06419       75.977129    
46 -21.349710459435684129
        46   8.6721842     -21.34971       0.28584678    -21.063864      77.616475    
47 -21.347697157644606847
        47   8.6214153     -21.347697      0.28417338    -21.063524      79.283833    
48 -21.345651475001645281
        48   8.570093      -21.345651      0.28248172    -21.06317       80.978706    
49 -21.343574036438347719
        49   8.5182403     -21.343574      0.28077259    -21.062801      82.700589    
50 -21.341465474173794803
        50   8.4658796     -21.341465      0.27904671    -21.062419      84.448966    
51 -21.339326427549927701
        51   8.4130329     -21.339326      0.27730481    -21.062022      86.223315    
52 -21.337157542881914907
        52   8.3597213     -21.337158      0.27554759    -21.06161       88.023103    
53 -21.334959473328506618
        53   8.3059654     -21.334959      0.27377572    -21.061184      89.847789    
54 -21.332732878782980634
        54   8.2517848     -21.332733      0.27198986    -21.060743      91.696823    
55 -21.330478425786107977
        55   8.1971983     -21.330478      0.27019061    -21.060288      93.569644    
56 -21.328196787462751161
        56   8.1422235     -21.328197      0.26837857    -21.059818      95.465682    
57 -21.325888643484631757
        57   8.0868773     -21.325889      0.26655429    -21.059334      97.384358    
58 -21.323554680058418143
        58   8.0311751     -21.323555      0.26471827    -21.058836      99.325082    
59 -21.321195589942401938
        59   7.9751314     -21.321196      0.26287099    -21.058325      101.28725    
60 -21.318812072491866161
        60   7.918759      -21.318812      0.26101288    -21.057799      103.27026    
61 -21.316404833733813007
        61   7.8620696     -21.316405      0.25914433    -21.057261      105.27348    
62 -21.313974586469598194
        62   7.8050736     -21.313975      0.25726566    -21.056709      107.29628    
63 -21.311522050409028139
        63   7.7477796     -21.311522      0.25537717    -21.056145      109.33801    
64 -21.309047952330217868
        64   7.6901949     -21.309048      0.2534791     -21.055569      111.39802    
65 -21.306553026267827988
        65   7.6323251     -21.306553      0.25157164    -21.054981      113.47563    
66 -21.304038013724824197
        66   7.5741745     -21.304038      0.24965492    -21.054383      115.57017    
67 -21.301503663905975827
        67   7.5157458     -21.301504      0.24772903    -21.053775      117.68093    
68 -21.298950733970105631
        68   7.4570399     -21.298951      0.245794      -21.053157      119.80721    
69 -21.296379989294209167
        69   7.3980566     -21.29638       0.24384984    -21.05253       121.94829    
70 -21.293792203747045733
        70   7.3387944     -21.293792      0.24189647    -21.051896      124.10344    
71 -21.291188159963919446
        71   7.2792501     -21.291188      0.23993382    -21.051254      126.2719     
72 -21.288400102756728671
        72   7.2194237     -21.2884        0.23796186    -21.050438      128.51015    
73 -21.285766170996026858
        73   7.15931       -21.285766      0.23598043    -21.049786      130.70292    
74 -21.283118380943836456
        74   7.0988997     -21.283118      0.23398922    -21.049129      132.9067     
75 -21.280457552768051954
        75   7.0381864     -21.280458      0.23198803    -21.04847       135.12069    
76 -21.277784516539000492
        76   6.9771636     -21.277785      0.22997664    -21.047808      137.34411    
77 -21.275100112349353054
        77   6.9158249     -21.2751        0.22795484    -21.047145      139.57613    
78 -21.272405190376897366
        78   6.854164      -21.272405      0.22592241    -21.046483      141.81594    
79 -21.269700610883919722
        79   6.7921752     -21.269701      0.22387917    -21.045821      144.06272    
80 -21.266987244142310232
        80   6.7298536     -21.266987      0.22182497    -21.045162      146.31563    
81 -21.264265970281552853
        81   6.6671957     -21.264266      0.21975968    -21.044506      148.57384    
82 -21.26153767905193348
        82   6.6041992     -21.261538      0.21768324    -21.043854      150.83651    
83 -21.258803269499818356
        83   6.540864      -21.258803      0.21559562    -21.043208      153.1028     
84 -21.255895100069263748
        84   6.4771946     -21.255895      0.21349699    -21.042398      155.42909    
85 -21.253151389277032735
        85   6.4131951     -21.253151      0.21138749    -21.041764      157.70006    
86 -21.250404305649102099
        86   6.3488689     -21.250404      0.20926721    -21.041137      159.97214    
87 -21.247654780332506874
        87   6.2842249     -21.247655      0.20713646    -21.040518      162.2445     
88 -21.244903750826658495
        88   6.2192753     -21.244904      0.20499563    -21.039908      164.51631    
89 -21.242152160156805962
        89   6.1540348     -21.242152      0.20284522    -21.039307      166.78675    
90 -21.239232326079296342
        90   6.0885241     -21.239232      0.20068589    -21.038546      169.11226    
91 -21.236482640281440837
        91   6.0227636     -21.236483      0.19851834    -21.037964      171.3775     
92 -21.233735243441834939
        92   5.9567742     -21.233735      0.19634324    -21.037392      173.63895    
93 -21.230991091283396344
        93   5.8905822     -21.230991      0.19416146    -21.03683       175.89584    
94 -21.228251140200494973
        94   5.8242163     -21.228251      0.19197396    -21.036277      178.14738    
95 -21.225516346222516262
        95   5.7577079     -21.225516      0.18978175    -21.035735      180.39281    
96 -21.222787663985233308
        96   5.6910905     -21.222788      0.18758595    -21.035202      182.63137    
97 -21.219897501521039374
        97   5.6244024     -21.219898      0.18538782    -21.03451       184.91954    
98 -21.217184082105454479
        98   5.5576807     -21.217184      0.18318859    -21.033995      187.14209    
99 -21.214311077383801063
        99   5.4909635     -21.214311      0.1809895     -21.033322      189.41278    
100 -21.211616661924853844
       100   5.4242905     -21.211617      0.17879187    -21.032825      191.61642    
101 -21.208764460796295737
       101   5.3577024     -21.208764      0.17659703    -21.032167      193.8668     
102 -21.206092778412717337
       102   5.2912405     -21.206093      0.17440636    -21.031686      196.0487     
103 -21.203265157002761043
       103   5.2249461     -21.203265      0.17222121    -21.031044      198.27595    
104 -21.200619852936672061
       104   5.158861      -21.20062       0.17004296    -21.030577      200.43336    
105 -21.197989022270526505
       105   5.0930249     -21.197989      0.16787291    -21.030116      202.57753    
106 -21.195373556014160954
       106   5.0274793     -21.195374      0.16571244    -21.029661      204.7078     
107 -21.192605742097708088
       107   4.9622676     -21.192606      0.16356298    -21.029043      206.88074    
108 -21.190023786988369636
       108   4.8974303     -21.190024      0.16142585    -21.028598      208.9812     
109 -21.187122560227273027
       109   4.8330094     -21.187123      0.15930245    -21.02782       211.18031    
110 -21.184409029712927719
       110   4.7690458     -21.184409      0.15719413    -21.027215      213.30565    
111 -21.181715321942153452
       111   4.7055753     -21.181715      0.15510205    -21.026613      215.41384    
112 -21.179042176038823442
       112   4.6426347     -21.179042      0.15302745    -21.026015      217.50431    
113 -21.17639045070380277
       113   4.5802597     -21.17639       0.15097148    -21.025419      219.57644    
114 -21.17376100803651795
       114   4.5184847     -21.173761      0.1489353     -21.024826      221.62959    
115 -21.171323147757519223
       115   4.4573411     -21.171323      0.14691992    -21.024403      223.60597    
116 -21.168908907549248255
       116   4.3968592     -21.168909      0.14492636    -21.023983      225.56226    
117 -21.166350453887485372
       117   4.337072      -21.16635       0.14295569    -21.023395      227.55513    
118 -21.163985817940925926
       118   4.2780094     -21.163986      0.14100891    -21.022977      229.46952    
119 -21.161478408958995345
       119   4.2197003     -21.161478      0.13908696    -21.022391      231.41936    
120 -21.159166302396577919
       120   4.1621721     -21.159166      0.13719076    -21.021976      233.28961    
121 -21.156881452764224605
       121   4.1054492     -21.156881      0.13532109    -21.02156       235.13699    
122 -21.15428731306397836
       122   4.0495605     -21.154287      0.13347893    -21.020808      237.07545    
123 -21.152059260888666614
       123   3.9945299     -21.152059      0.13166505    -21.020394      238.87546    
124 -21.149860474536200883
       124   3.9403765     -21.14986       0.12988008    -21.01998       240.65105    
125 -21.147354264310695982
       125   3.8871253     -21.147354      0.12812485    -21.019229      242.51621    
126 -21.144878789905316552
       126   3.8348001     -21.144879      0.12640014    -21.018479      244.35592    
127 -21.142772000815085676
       127   3.7834172     -21.142772      0.12470649    -21.018066      246.05517    
128 -21.140696943938664276
       128   3.7329921     -21.140697      0.12304441    -21.017653      247.72805    
129 -21.138485567891848405
       129   3.6835438     -21.138486      0.12141453    -21.017071      249.43135    
130 -21.136475777959287115
       130   3.6350889     -21.136476      0.11981739    -21.016658      251.05011    
131 -21.134330738812767692
       131   3.5876437     -21.134331      0.11825353    -21.016077      252.69842    
132 -21.1320511066824821
       132   3.5412267     -21.132051      0.11672357    -21.015328      254.37583    
133 -21.129806225566760247
       133   3.4958542     -21.129806      0.11522803    -21.014578      256.02463    
134 -21.127933801865736996
       134   3.4515362     -21.127934      0.11376725    -21.014167      257.52993    
135 -21.125759500592245388
       135   3.4082856     -21.12576       0.11234165    -21.013418      259.12042    
136 -21.123958674265221447
       136   3.3661146     -21.123959      0.11095164    -21.013007      260.56663    
137 -21.12219423184172129
       137   3.3250319     -21.122194      0.1095975     -21.012597      261.98276    
138 -21.120466611970520887
       138   3.2850486     -21.120467      0.10827959    -21.012187      263.36846    
139 -21.118607576074687415
       139   3.2461769     -21.118608      0.10699833    -21.011609      264.78066    
140 -21.116954941675437851
       140   3.2084269     -21.116955      0.10575404    -21.011201      266.10449    
141 -21.115003054580444797
       141   3.1718088     -21.115003      0.10454706    -21.010456      267.51142    
142 -21.113426987491948239
       142   3.136332      -21.113427      0.1033777     -21.010049      268.77214    
143 -21.111721019780919306
       143   3.1020051     -21.111721      0.10224624    -21.009475      270.05814    
144 -21.110222914149993301
       144   3.0688368     -21.110223      0.10115296    -21.00907       271.25463    
145 -21.108426918247559456
       145   3.036836      -21.108427      0.10009817    -21.008329      272.53314    
146 -21.106839505379369371
       146   3.0060125     -21.10684       0.09908219    -21.007757      273.72163    
147 -21.105292120476409679
       147   2.9763723     -21.105292      0.098105211   -21.007187      274.87719    
148 -21.103616395324028332
       148   2.9479231     -21.103616      0.097167486   -21.006449      276.05685    
149 -21.102318588590467385
       149   2.9206706     -21.102319      0.096269209   -21.006049      277.08866    
150 -21.100724214203282258
       150   2.8946229     -21.100724      0.09541064    -21.005314      278.20149    
151 -21.099170944318199616
       151   2.8697885     -21.099171      0.094592066   -21.004579      279.28065    
152 -21.097827539559339982
       152   2.8461716     -21.097828      0.093813623   -21.004014      280.26876    
153 -21.096694087616761237
       153   2.8237761     -21.096694      0.093075436   -21.003619      281.16574    
154 -21.095602031003860333
       154   2.8026067     -21.095602      0.092377663   -21.003224      282.02875    
155 -21.094551496073858488
       155   2.7826689     -21.094551      0.091720487   -21.002831      282.85769    
156 -21.093373928691999453
       156   2.7639691     -21.093374      0.091104118   -21.00227       283.70977    
157 -21.09206952374976396
       157   2.7465149     -21.09207       0.090528803   -21.001541      284.5849     
158 -21.090975683724234813
       158   2.7303101     -21.090976      0.089994672   -21.000981      285.36855    
159 -21.090092370808470434
       159   2.7153565     -21.090092      0.089501781   -21.000591      286.06074    
160 -21.088913604086155118
       160   2.7016603     -21.088914      0.089050336   -20.999863      286.83322    
161 -21.087945498081008822
       161   2.6892266     -21.087945      0.088640503   -20.999305      287.51424    
162 -21.087019312880574518
       162   2.6780557     -21.087019      0.088272297   -20.998747      288.1611     
163 -21.086134938625956892
       163   2.6681499     -21.086135      0.087945789   -20.998189      288.77388    
164 -21.085461008247239789
       164   2.6595112     -21.085461      0.087661046   -20.9978        289.2954     
165 -21.084828721248754846
       165   2.6521408     -21.084829      0.087418106   -20.997411      289.78302    
166 -21.084069337870882777
       166   2.6460413     -21.084069      0.087217058   -20.996852      290.2941     
167 -21.083182855693365809
       167   2.6412164     -21.083183      0.087058025   -20.996125      290.82873    
168 -21.08200050605964293
       168   2.6376702     -21.082001      0.086941137   -20.995059      291.44432    
169 -21.0813654740403571
       169   2.6354017     -21.081365      0.086866362   -20.994499      291.85476    
170 -21.080940133392033431
       170   2.6344059     -21.08094       0.08683354    -20.994107      292.17476    
171 -21.080218192288072032
       171   2.6346818     -21.080218      0.086842635   -20.993376      292.57629    
172 -21.079874174423718358
       172   2.636228      -21.079874      0.086893599   -20.992981      292.83055    
173 -21.079570412624892839
       173   2.639041      -21.07957       0.08698632    -20.992584      293.05229    
174 -21.079137984553376839
       174   2.6431194     -21.079138      0.08712075    -20.992017      293.299      
175 -21.078913989276720997
       175   2.6484602     -21.078914      0.087296789   -20.991617      293.45644    
176 -21.07856076507674814
       176   2.6550603     -21.078561      0.087514337   -20.991046      293.63939    
177 -21.078246673130969668
       177   2.662916      -21.078247      0.087773271   -20.990473      293.79089    
178 -21.07814003095373323
       178   2.6720213     -21.07814       0.088073394   -20.990067      293.85401    
179 -21.077903115226604314
       179   2.6823717     -21.077903      0.088414558   -20.989489      293.94358    
180 -21.077535693559692476
       180   2.6939638     -21.077536      0.08879665    -20.988739      294.0599     
181 -21.077037302252811912
       181   2.7067926     -21.077037      0.089219502   -20.987818      294.20336    
182 -21.076913723416716095
       182   2.7208528     -21.076914      0.089682947   -20.987231      294.20252    
183 -21.076827012044212495
       183   2.7361356     -21.076827      0.090186688   -20.98664       294.17231    
184 -21.076945299896252095
       184   2.7526288     -21.076945      0.090730326   -20.986215      294.0559     
185 -21.076930746873628664
       185   2.7703245     -21.076931      0.091313599   -20.985617      293.96822    
186 -21.076951648448517318
       186   2.7892144     -21.076952      0.091936235   -20.985015      293.8524     
187 -21.077176096123579896
       187   2.8092878     -21.077176      0.092597881   -20.984578      293.65167    
188 -21.077097559048151965
       188   2.8305352     -21.077098      0.093298224   -20.983799      293.53823    
189 -21.077390220419175648
       189   2.852946      -21.07739       0.094036913   -20.983353      293.28353    
190 -21.077378838527955907
       190   2.8765095     -21.077379      0.094813599   -20.982565      293.11706    
191 -21.077568880286996489
       191   2.9012148     -21.077569      0.09562792    -20.981941      292.86756    
192 -21.077959732149597727
       192   2.9270478     -21.07796       0.09647941    -20.98148       292.53553    
193 -21.077876136159193976
       193   2.9539975     -21.077876      0.097367707   -20.980508      292.35049    
194 -21.078160912788188597
       194   2.9820519     -21.078161      0.098292418   -20.979868      292.0267     
195 -21.078307366901540831
       195   3.0111969     -21.078307      0.099253077   -20.979054      291.73646    
196 -21.07865218785789807
       196   3.0414175     -21.078652      0.10024919    -20.978403      291.36582    
197 -21.079194685975995327
       197   3.0726972     -21.079195      0.10128021    -20.977914      290.91535    
198 -21.07942822126350535
       198   3.1050224     -21.079428      0.10234569    -20.977083      290.55737    
199 -21.079858132883828148
       199   3.1383782     -21.079858      0.10344514    -20.976413      290.1207     
200 -21.080483783884115923
       200   3.1727487     -21.080484      0.10457804    -20.975906      289.60592    
201 -21.080798436793628525
       201   3.2081194     -21.080798      0.10574391    -20.975055      289.18539    
202 -21.081476053148655581
       202   3.2444711     -21.081476      0.1069421     -20.974534      288.63071    
203 -21.082009824485854921
       203   3.2817853     -21.08201       0.10817203    -20.973838      288.11428    
204 -21.082399138399605221
       204   3.3200472     -21.082399      0.1094332     -20.972966      287.63668    
205 -21.082980553952747726
       205   3.3592386     -21.082981      0.11072499    -20.972256      287.08405    
206 -21.083584623809734637
       206   3.3993395     -21.083585      0.11204677    -20.971538      286.5143     
207 -21.084041905684415497
       207   3.4403322     -21.084042      0.11339795    -20.970644      285.98532    
208 -21.08485768905368829
       208   3.4821966     -21.084858      0.11477785    -20.97008       285.326      
209 -21.085525111376554719
       209   3.5249122     -21.085525      0.11618582    -20.969339      284.70877    
210 -21.086549428193578137
       210   3.5684598     -21.086549      0.11762121    -20.968928      283.96254    
211 -21.087086414218017438
       211   3.6128208     -21.087086      0.11908341    -20.968003      283.37425    
212 -21.087978826209749172
       212   3.6579748     -21.087979      0.12057174    -20.967407      282.65827    
213 -21.088719656252276735
       213   3.7038996     -21.08872       0.12208548    -20.966634      281.9871     
214 -21.08964554428329663
       214   3.7505745     -21.089646      0.12362395    -20.966022      281.24686    
215 -21.090924382810275262
       215   3.7979787     -21.090924      0.12518646    -20.965738      280.38099    
216 -21.091543186369747787
       216   3.846093      -21.091543      0.12677237    -20.964771      279.73375    
217 -21.092513299864435794
       217   3.8948937     -21.092513      0.1283809     -20.964132      278.96227    
218 -21.0934964188105738
       218   3.9443569     -21.093496      0.13001128    -20.963485      278.18179    
219 -21.094323116006528096
       219   3.9944623     -21.094323      0.13166282    -20.96266       277.45024    
220 -21.095161221777836147
       220   4.0451883     -21.095161      0.13333482    -20.961826      276.71108    
221 -21.096009849763525779
       221   4.0965108     -21.09601       0.13502647    -20.960983      275.96502    
222 -21.096699491287949968
       222   4.1484079     -21.096699      0.13673707    -20.959962      275.27002    
223 -21.097566738054617019
       223   4.2008578     -21.097567      0.13846589    -20.959101      274.51227    
224 -21.098610709848372835
       224   4.2538355     -21.098611      0.14021211    -20.958399      273.69247    
225 -21.099830516419206816
       225   4.3073171     -21.099831      0.14197493    -20.957856      272.81135    
226 -21.10105664646176038
       226   4.3612799     -21.101057      0.14375362    -20.957303      271.92686    
227 -21.1019508710379462
       227   4.4157016     -21.101951      0.14554743    -20.956403      271.15424    
228 -21.103018482312393189
       228   4.470558      -21.103018      0.14735557    -20.955663      270.32239    
229 -21.103921177824116029
       229   4.5258241     -21.103921      0.14917721    -20.954744      269.54656    
230 -21.105164192553818481
       230   4.5814769     -21.105164      0.15101161    -20.954153      268.65567    
231 -21.106240639433860196
       231   4.6374926     -21.106241      0.15285796    -20.953383      267.82219    
232 -21.107149688511743335
       232   4.6938479     -21.10715       0.1547155     -20.952434      267.04683    
233 -21.108059271465794637
       233   4.7505201     -21.108059      0.15658349    -20.951476      266.27299    
234 -21.108968520489415965
       234   4.8074851     -21.108969      0.15846114    -20.950507      265.50138    
235 -21.109876635401928269
       235   4.8647196     -21.109877      0.16034766    -20.949529      264.73269    
236 -21.110614118118537164
       236   4.9222017     -21.110614      0.16224235    -20.948372      264.02486    
237 -21.11134891580524453
       237   4.9799101     -21.111349      0.1641445     -20.947204      263.32129    
238 -21.112417690346745758
       238   5.0378193     -21.112418      0.16605326    -20.946364      262.50811    
239 -21.113144669514980478
       239   5.095902      -21.113145      0.16796774    -20.945177      261.81507    
240 -21.11403511832627089
       240   5.1541346     -21.114035      0.16988717    -20.944148      261.07108    
241 -21.115088241065766539
       241   5.2124931     -21.115088      0.17181074    -20.943278      260.27678    
242 -21.116134636810706127
       242   5.270955      -21.116135      0.17373772    -20.942397      259.49007    
243 -21.117004819736315824
       243   5.3294979     -21.117005      0.17566738    -20.941337      258.76886    
244 -21.118035324935576114
       244   5.3880963     -21.118035      0.17759886    -20.940436      257.9993     
245 -21.118719375250840642
       245   5.4467286     -21.118719      0.17953146    -20.939188      257.35378    
246 -21.119562404505348496
       246   5.5053742     -21.119562      0.1814645     -20.938098      256.66111    
247 -21.120563655582799356
       247   5.5640099     -21.120564      0.18339721    -20.937166      255.92191    
248 -21.121553584060205111
       248   5.6226105     -21.121554      0.18532876    -20.936225      255.1941     
249 -21.122700188483563011
       249   5.6811528     -21.1227        0.18725839    -20.935442      254.42098    
250 -21.123834000613840089
       250   5.7396147     -21.123834      0.18918538    -20.934649      253.66045    
251 -21.125123084139971752
       251   5.7979757     -21.125123      0.19110903    -20.934014      252.85579    
252 -21.126229399810220855
       252   5.8562144     -21.126229      0.19302866    -20.933201      252.12209    
253 -21.127152189160277374
       253   5.9143066     -21.127152      0.19494345    -20.932209      251.45993    
254 -21.12789081282573278
       254   5.9722313     -21.127891      0.19685273    -20.931038      250.86986    
255 -21.128613268698209993
       255   6.0299677     -21.128613      0.1987558     -20.929857      250.29517    
256 -21.129150244694756111
       256   6.0874955     -21.12915       0.20065199    -20.928498      249.79365    
257 -21.130175878429454883
       257   6.1447956     -21.130176      0.20254068    -20.927635      249.1368     
258 -21.131014840896717999
       258   6.2018463     -21.131015      0.20442115    -20.926594      248.55413    
259 -21.132172558090292824
       259   6.2586278     -21.132173      0.20629274    -20.92588       247.87439    
260 -21.132973719800258294
       260   6.3151233     -21.132974      0.20815491    -20.924819      247.3271     
261 -21.133755147131548568
       261   6.3713115     -21.133755      0.21000695    -20.923748      246.79819    
262 -21.134684898930277797
       262   6.4271723     -21.134685      0.21184819    -20.922837      246.23091    
263 -21.135425018395810781
       263   6.482687      -21.135425      0.21367803    -20.921747      245.74022    
264 -21.135974953323263037
       264   6.5378363     -21.135975      0.21549582    -20.920479      245.32658    
265 -21.137008986418511114
       265   6.592604      -21.137009      0.21730104    -20.919708      244.76137    
266 -21.137851903210307825
       266   6.6469731     -21.137852      0.21909312    -20.918759      244.27402    
267 -21.138165875183354103
       267   6.7009271     -21.138166      0.22087152    -20.917294      243.97945    
268 -21.138625034890463184
       268   6.7544486     -21.138625      0.22263566    -20.915989      243.64906    
269 -21.139566265587536265
       269   6.8075184     -21.139566      0.22438491    -20.915181      243.16872    
270 -21.140314387538868601
       270   6.860121      -21.140314      0.22611876    -20.914196      242.76781    
271 -21.141206403409675829
       271   6.9122417     -21.141206      0.22783673    -20.91337       242.33217    
272 -21.141735790951880603
       272   6.9638642     -21.141736      0.22953827    -20.912198      242.03391    
273 -21.14207080421869378
       273   7.0149728     -21.142071      0.23122288    -20.910848      241.81611    
274 -21.142548512277294037
       274   7.0655551     -21.142549      0.23289014    -20.909658      241.56455    
275 -21.142999785348571606
       275   7.1155964     -21.143         0.23453957    -20.90846       241.33681    
276 -21.143424226058325388
       276   7.1650811     -21.143424      0.23617065    -20.907254      241.13318    
277 -21.143821585078971026
       277   7.2139979     -21.143822      0.23778302    -20.906039      240.9539     
278 -21.144360214201611825
       278   7.2623351     -21.14436       0.23937627    -20.904984      240.74199    
279 -21.144702378485433769
       279   7.3100786     -21.144702      0.24094997    -20.903752      240.61222    
280 -21.144847877928707902
       280   7.3572175     -21.144848      0.24250373    -20.902344      240.56478    
281 -21.145133785681700545
       281   7.4037462     -21.145134      0.24403737    -20.901096      240.48542    
282 -21.145222760201360046
       282   7.4496542     -21.145223      0.24555056    -20.899672      240.48874    
283 -21.145451630397111842
       283   7.4949256     -21.145452      0.24704277    -20.898409      240.4605     
284 -21.145651493073369664
       284   7.5395511     -21.145651      0.24851369    -20.897138      240.45814    
285 -21.14582219132300267
       285   7.5835216     -21.145822      0.24996301    -20.895859      240.48179    
286 -21.14596345245414355
       286   7.6268265     -21.145963      0.2513904     -20.894573      240.53162    
287 -21.145906454485388082
       287   7.66946       -21.145906      0.25279565    -20.893111      240.66502    
288 -21.145988511362951101
       288   7.7114134     -21.145989      0.25417849    -20.89181       240.76754    
289 -21.145703358336366051
       289   7.7526786     -21.145703      0.25553865    -20.890165      241.01107    
290 -21.145556984722031046
       290   7.7932504     -21.145557      0.25687595    -20.888681      241.22393    
291 -21.145717920080340235
       291   7.8331224     -21.145718      0.25819019    -20.887528      241.34893    
292 -21.145511582193339706
       292   7.8722927     -21.145512      0.25948129    -20.88603       241.6151     
293 -21.145443755499094607
       293   7.9107543     -21.145444      0.26074904    -20.884695      241.85076    
294 -21.145176931661598729
       294   7.9484979     -21.145177      0.26199312    -20.883184      242.17047    
295 -21.144879928063041064
       295   7.9855239     -21.14488       0.26321354    -20.881666      242.51695    
296 -21.144552789663748626
       296   8.0218296     -21.144553      0.26441023    -20.880143      242.89016    
297 -21.144364022217889243
       297   8.0574073     -21.144364      0.26558292    -20.878781      243.23289    
298 -21.144144906824944741
       298   8.0922523     -21.144145      0.26673146    -20.877413      243.60236    
299 -21.143726865022919981
       299   8.1263658     -21.143727      0.26785588    -20.875871      244.05578    
300 -21.143110201871902376
       300   8.1597499     -21.14311       0.26895627    -20.874154      244.59301    
301 -21.142800920741517956
       301   8.1924026     -21.142801      0.27003254    -20.872768      245.04224    
302 -21.142292970860314227
       302   8.2243211     -21.142293      0.27108462    -20.871208      245.57517    
303 -21.142092491457262327
       303   8.2555044     -21.142092      0.27211246    -20.86998       246.01993    
304 -21.141693498130649687
       304   8.2859515     -21.141693      0.27311604    -20.868577      246.54818    
305 -21.141433524620683926
       305   8.315663      -21.141434      0.27409537    -20.867338      247.04527    
306 -21.141312760547688043
       306   8.3446427     -21.141313      0.27505058    -20.866262      247.51103    
307 -21.140656647740058816
       307   8.3728929     -21.140657      0.27598174    -20.864675      248.17435    
308 -21.14014011490280609
       308   8.400417      -21.14014       0.27688898    -20.863251      248.80601    
309 -21.13976343356672416
       309   8.4272179     -21.139763      0.27777237    -20.861991      249.40581    
310 -21.139189343077116945
       310   8.453296      -21.139189      0.27863194    -20.860557      250.08808    
311 -21.13858670169061682
       311   8.4786541     -21.138587      0.27946777    -20.859119      250.79537    
312 -21.138124463856144075
       312   8.5032973     -21.138124      0.28028005    -20.857844      251.47018    
313 -21.137634242177988142
       313   8.5272316     -21.137634      0.28106895    -20.856565      252.16953    
314 -21.136778992118120613
       314   8.5504635     -21.136779      0.28183471    -20.854944      253.00766    
315 -21.136065167809018561
       315   8.5730037     -21.136065      0.28257766    -20.853488      253.81251    
316 -21.135324407366763211
       316   8.5948568     -21.135324      0.28329797    -20.852026      254.64107    
317 -21.1347257437767162
       317   8.6160301     -21.134726      0.28399587    -20.85073       255.43576    
318 -21.134100761682415026
       318   8.6365315     -21.134101      0.28467162    -20.849429      256.25357    
319 -21.133112320214213042
       319   8.6563645     -21.133112      0.28532535    -20.847787      257.20872    
320 -21.132266857618514422
       320   8.6755371     -21.132267      0.2859573     -20.84631       258.1291     
321 -21.131227357862915284
       321   8.6940584     -21.131227      0.28656779    -20.84466       259.12891    
322 -21.130331711483666624
       322   8.7119416     -21.130332      0.28715724    -20.843174      260.09325    
323 -21.129243029237180451
       323   8.7291958     -21.129243      0.28772597    -20.841517      261.13625    
324 -21.128298898942144746
       324   8.7458273     -21.128299      0.28827416    -20.840025      262.14307    
325 -21.127331040094464498
       325   8.7618455     -21.127331      0.28880214    -20.838529      263.17059    
326 -21.126171237057160823
       326   8.7772623     -21.126171      0.2893103     -20.836861      264.27568    
327 -21.125326080593989531
       327   8.7920911     -21.125326      0.28979908    -20.835527      265.28613    
328 -21.124289951769014806
       328   8.8063431     -21.12429       0.29026884    -20.834021      266.37332    
329 -21.123063297440658914
       329   8.8200294     -21.123063      0.29071996    -20.832343      267.53682    
330 -21.121646779144708006
       330   8.833167      -21.121647      0.29115299    -20.830494      268.77618    
331 -21.120546900751886454
       331   8.8457698     -21.120547      0.2915684     -20.828979      269.91918    
332 -21.119426749754058648
       332   8.857847      -21.119427      0.29196648    -20.82746       271.0799     
333 -21.118118210432683668
       333   8.8694125     -21.118118      0.29234769    -20.825771      272.31513    
334 -21.116790417003301172
       334   8.8804816     -21.11679       0.29271255    -20.824078      273.56716    
335 -21.11544389717228043
       335   8.891067      -21.115444      0.29306146    -20.822382      274.83553    
336 -21.114416569380690447
       336   8.9011833     -21.114417      0.2933949     -20.821022      276.00523    
337 -21.113034381890802393
       337   8.9108477     -21.113034      0.29371345    -20.819321      277.30477    
338 -21.11180380196496742
       338   8.9200749     -21.111804      0.29401759    -20.817786      278.56192    
339 -21.110556787708315341
       339   8.9288802     -21.110557      0.29430783    -20.816249      279.83341    
340 -21.109125264026271651
       340   8.9372811     -21.109125      0.29458473    -20.814541      281.17599    
341 -21.107847324285817336
       341   8.9452951     -21.107847      0.29484889    -20.812998      282.47457    
342 -21.10655467568828314
       342   8.9529379     -21.106555      0.2951008     -20.811454      283.78596    
343 -21.105247917044117401
       343   8.9602235     -21.105248      0.29534095    -20.809907      285.10963    
344 -21.104096408687908593
       344   8.9671703     -21.104096      0.29556992    -20.808526      286.38775    
345 -21.102932064842267579
       345   8.9737969     -21.102932      0.29578834    -20.807144      287.67705    
346 -21.101418208172418645
       346   8.9801227     -21.101418      0.29599685    -20.805421      289.09148    
347 -21.099892974810426693
       347   8.9861678     -21.099893      0.29619611    -20.803697      290.51595    
348 -21.098694306833767342
       348   8.9919518     -21.098694      0.29638675    -20.802308      291.8354     
349 -21.097148146056788676
       349   8.9974945     -21.097148      0.29656945    -20.800579      293.2783     
350 -21.095592737645208814
       350   9.0028157     -21.095593      0.29674484    -20.798848      294.72949    
351 -21.094197071793669096
       351   9.0079305     -21.094197      0.29691343    -20.797284      296.13126    
352 -21.092793101577399284
       352   9.0128562     -21.092793      0.29707579    -20.795717      297.54028    
353 -21.091381614019390156
       353   9.0176136     -21.091382      0.2972326     -20.794149      298.95596    
354 -21.089963113416231977
       354   9.0222196     -21.089963      0.29738442    -20.792579      300.37775    
355 -21.088538233025211355
       355   9.0266923     -21.088538      0.29753185    -20.791006      301.80509    
356 -21.08710764042136887
       356   9.0310517     -21.087108      0.29767554    -20.789432      303.2374     
357 -21.086009463566682598
       357   9.0353206     -21.086009      0.29781625    -20.788193      304.55955    
358 -21.084232338210863844
       358   9.0395229     -21.084232      0.29795476    -20.786278      306.1145     
359 -21.082789066791590926
       359   9.0436763     -21.082789      0.29809166    -20.784697      307.55811    
360 -21.081342768674222299
       360   9.0477972     -21.081343      0.29822749    -20.783115      309.00436    
361 -21.079894116425784034
       361   9.0519062     -21.079894      0.29836293    -20.781531      310.45266    
362 -21.078106521974440568
       362   9.0560269     -21.078107      0.29849875    -20.779608      312.01693    
363 -21.076149489816316418
       363   9.0601836     -21.076149      0.29863577    -20.777514      313.63927    
364 -21.074866935646095811
       364   9.0643944     -21.074867      0.29877456    -20.776092      315.03289    
365 -21.073584798241405736
       365   9.068678      -21.073585      0.29891575    -20.774669      316.42623    
366 -21.072303711615003152
       366   9.0730556     -21.072304      0.29906004    -20.773244      317.8187     
367 -21.071024490704100884
       367   9.0775496     -21.071024      0.29920817    -20.771816      319.2097     
368 -21.069410288368796813
       368   9.0821804     -21.06941       0.29936081    -20.770049      320.71322    
369 -21.067799167057657428
       369   9.0869679     -21.067799      0.29951861    -20.768281      322.21414    
370 -21.066191947212047353
       370   9.0919372     -21.066192      0.29968241    -20.76651       323.71187    
371 -21.064589179823787646
       371   9.0971077     -21.064589      0.29985283    -20.764736      325.20587    
372 -21.063160339860061754
       372   9.1025029     -21.06316       0.30003067    -20.76313       326.63829    
373 -21.061568596658386099
       373   9.1081433     -21.061569      0.30021658    -20.761352      328.12311    
374 -21.059983353799911043
       374   9.1140464     -21.059983      0.30041115    -20.759572      329.6025     
375 -21.058573875366509043
       375   9.1202363     -21.058574      0.30061518    -20.757959      331.01867    
376 -21.057172001559681718
       376   9.1267314     -21.057172      0.30082927    -20.756343      332.42838    
377 -21.055609647751168723
       377   9.1335483     -21.05561       0.30105396    -20.754556      333.88833    
378 -21.054393380376563272
       378   9.1407063     -21.054393      0.3012899     -20.753103      335.22625    
379 -21.052849293771203065
       379   9.1482279     -21.052849      0.30153782    -20.751311      336.67058    
380 -21.051483820505339395
       380   9.1561316     -21.051484      0.30179834    -20.749685      338.0491     
381 -21.050297594173098759
       381   9.164437      -21.050298      0.3020721     -20.748225      339.36128    
382 -21.048785267907359042
       382   9.173167      -21.048785      0.30235985    -20.746425      340.77836    
383 -21.047790830496214909
       383   9.1823422     -21.047791      0.30266227    -20.745129      342.01357    
384 -21.046471416609559668
       384   9.1919791     -21.046471      0.30297992    -20.743491      343.35268    
385 -21.044996200805702102
       385   9.2020953     -21.044996      0.30331336    -20.741683      344.73798    
386 -21.043703161431459137
       386   9.2127133     -21.043703      0.30366335    -20.74004       346.05447    
387 -21.04242411352534603
       387   9.2238506     -21.042424      0.30403045    -20.738394      347.35896    
388 -21.041328185213185265
       388   9.2355232     -21.041328      0.30441519    -20.736913      348.59375    
389 -21.039909876392780319
       389   9.2477507     -21.03991       0.30481823    -20.735092      349.93015    
390 -21.038675771877628051
       390   9.2605503     -21.038676      0.30524012    -20.733436      351.19595    
391 -21.037289163693216665
       391   9.2739438     -21.037289      0.30568159    -20.731608      352.50518    
392 -21.036087844992032103
       392   9.2879515     -21.036088      0.3061433     -20.729945      353.74296    
393 -21.034903530646182901
       393   9.3025857     -21.034904      0.30662566    -20.728278      354.96613    
394 -21.033905317361572429
       394   9.3178617     -21.033905      0.30712918    -20.726776      356.11705    
395 -21.032924966294807234
       395   9.3337971     -21.032925      0.30765443    -20.725271      357.2526     
396 -21.031962922609935163
       396   9.3504094     -21.031963      0.30820199    -20.723761      358.37239    
397 -21.031188426578065531
       397   9.3677165     -21.031188      0.30877246    -20.722416      359.41877    
398 -21.029927066468832919
       398   9.3857343     -21.029927      0.30936635    -20.720561      360.62044    
399 -21.029022710598560764
       399   9.4044764     -21.029023      0.30998412    -20.719039      361.69075    
400 -21.027800939925882062
       400   9.423958      -21.027801      0.31062626    -20.717175      362.85842    
401 -21.027105531206185418
       401   9.4441944     -21.027106      0.31129327    -20.715812      363.83685    
402 -21.026430828495438874
       402   9.4651999     -21.026431      0.31198564    -20.714445      364.79749    
403 -21.025777334371301919
       403   9.4869932     -21.025777      0.31270398    -20.713073      365.74002    
404 -21.02480795135851821
       404   9.5095869     -21.024808      0.3134487     -20.711359      366.77868    
405 -21.023860317716650314
       405   9.5329991     -21.02386       0.3142204     -20.70964       367.79873    
406 -21.022935200623159346
       406   9.5572448     -21.022935      0.31501957    -20.707916      368.79975    
407 -21.021863783569351369
       407   9.582328      -21.021864      0.31584634    -20.706017      369.83887    
408 -21.020646269901646974
       408   9.6082611     -21.020646      0.31670113    -20.703945      370.91589    
409 -21.019620162392239848
       409   9.6350536     -21.01962       0.31758425    -20.702036      371.91611    
410 -21.019123219253383894
       410   9.6627191     -21.019123      0.31849614    -20.700627      372.72478    
411 -21.018480943492328095
       411   9.6912696     -21.018481      0.3194372     -20.699044      373.57073    
412 -21.017693353441334381
       412   9.7207103     -21.017693      0.32040761    -20.697286      374.45384    
413 -21.016760855694641918
       413   9.7510563     -21.016761      0.32140785    -20.695353      375.37389    
414 -21.015852261316108951
       414   9.7823177     -21.015852      0.32243827    -20.693414      376.27351    
415 -21.014967577274582311
       415   9.8144974     -21.014968      0.32349896    -20.691469      377.15258    
416 -21.014275576645353283
       416   9.8476046     -21.014276      0.32459021    -20.689685      377.95376    
417 -21.01343910369994461
       417   9.8816477     -21.013439      0.32571232    -20.687727      378.79143    
418 -21.012121172097767641
       418   9.9166413     -21.012121      0.32686576    -20.685255      379.77995    
419 -21.011333867448488633
       419   9.952593      -21.011334      0.32805077    -20.683283      380.57576    
420 -21.010739635548556947
       420   9.9895003     -21.01074       0.32926728    -20.681472      381.29337    
421 -21.010001088802297886
       421   10.027368     -21.010001      0.33051546    -20.679486      382.04726    
422 -21.009455833527514557
       422   10.066207     -21.009456      0.33179563    -20.67766       382.72286    
423 -21.009103974723455366
       423   10.106022     -21.009104      0.333108      -20.675996      383.32012    
424 -21.00843932271180492
       424   10.146815     -21.008439      0.3344526     -20.673987      384.01086    
425 -21.008305215981906144
       425   10.188589     -21.008305      0.33582951    -20.672476      384.50883    
426 -21.00785827699201036
       426   10.231348     -21.007858      0.33723892    -20.670619      385.10033    
427 -21.007435695120147301
       427   10.275095     -21.007436      0.33868086    -20.668755      385.67093    
428 -21.006868605466603839
       428   10.319825     -21.006869      0.34015524    -20.666713      386.27799    
429 -21.006325882952218365
       429   10.365551     -21.006326      0.34166241    -20.664663      386.86426    
430 -21.005976092484260676
       430   10.412271     -21.005976      0.34320238    -20.662774      387.37258    
431 -21.005987699477135067
       431   10.459984     -21.005988      0.34477505    -20.661213      387.74584    
432 -21.005348485350591403
       432   10.50869      -21.005348      0.34638048    -20.658968      388.32769    
433 -21.004732834065826808
       433   10.558386     -21.004733      0.34801852    -20.656714      388.88931    
434 -21.00447794260801615
       434   10.609068     -21.004478      0.34968907    -20.654789      389.31632    
435 -21.004077477106779526
       435   10.660733     -21.004077      0.35139201    -20.652685      389.78071    
436 -21.004206236044531408
       436   10.713386     -21.004206      0.35312751    -20.651079      390.05357    
437 -21.004358016922974883
       437   10.767026     -21.004358      0.35489557    -20.649462      390.30685    
438 -21.004194880359950304
       438   10.821643     -21.004195      0.35669581    -20.647499      390.65538    
439 -21.003885135031481468
       439   10.877229     -21.003885      0.358528      -20.645357      391.04214    
440 -21.003765955203771654
       440   10.933779     -21.003766      0.36039199    -20.643374      391.35285    
441 -21.003837013324837102
       441   10.991292     -21.003837      0.36228767    -20.641549      391.5878     
442 -21.00376096976500051
       442   11.049764     -21.003761      0.36421498    -20.639546      391.86166    
443 -21.003537090960126221
       443   11.109186     -21.003537      0.36617363    -20.637363      392.17487    
444 -21.003502377270418577
       444   11.169548     -21.003502      0.36816324    -20.635339      392.41319    
445 -21.003487907332118567
       445   11.230848     -21.003488      0.37018376    -20.633304      392.63421    
446 -21.003493416900028024
       446   11.293077     -21.003493      0.37223493    -20.631258      392.8382     
447 -21.003518231718881992
       447   11.356222     -21.003518      0.37431627    -20.629202      393.02559    
448 -21.003562010876589028
       448   11.420274     -21.003562      0.3764275     -20.627135      393.19672    
449 -21.003624142896438087
       449   11.48522      -21.003624      0.37856819    -20.625056      393.35203    
450 -21.003872920013925807
       450   11.55105      -21.003873      0.38073805    -20.623135      393.43462    
451 -21.003970725190328039
       451   11.617763     -21.003971      0.382937      -20.621034      393.55939    
452 -21.003917142349518343
       452   11.685345     -21.003917      0.38516459    -20.618753      393.72672    
453 -21.004048689968445984
       453   11.753774     -21.004049      0.38742012    -20.616629      393.8226     
454 -21.004027511941600892
       454   11.823039     -21.004028      0.38970319    -20.614324      393.96201    
455 -21.004021843380687784
       455   11.893132     -21.004022      0.39201355    -20.612008      394.08812    
456 -21.004200040967340612
       456   11.964041     -21.0042        0.39435079    -20.609849      394.14409    
457 -21.004392463014635695
       457   12.035745     -21.004392      0.39671424    -20.607678      394.18777    
458 -21.004429816423549227
       458   12.108226     -21.00443       0.39910331    -20.605327      394.27692    
459 -21.004648907784574163
       459   12.181469     -21.004649      0.40151749    -20.603131      394.29751    
460 -21.005049165230790464
       460   12.255458     -21.005049      0.40395627    -20.601093      394.25006    
461 -21.005461323518684225
       461   12.330179     -21.005461      0.40641919    -20.599042      394.19235    
462 -21.00571601172835301
       462   12.405615     -21.005716      0.40890565    -20.59681       394.18219    
463 -21.006318696222987086
       463   12.481749     -21.006319      0.41141513    -20.594904      394.04836    
464 -21.006425405103264836
       464   12.558566     -21.006425      0.41394711    -20.592478      394.07767    
465 -21.006710187030929404
       465   12.636045     -21.00671       0.41650094    -20.590209      394.04166    
466 -21.006834846835317876
       466   12.714168     -21.006835      0.41907596    -20.587759      394.05548    
467 -21.006798777765293806
       467   12.792914     -21.006799      0.42167154    -20.585127      394.1197     
468 -21.007107245092520031
       468   12.872261     -21.007107      0.42428693    -20.58282       394.06317    
469 -21.007422055889286128
       469   12.952186     -21.007422      0.42692137    -20.580501      394.00103    
470 -21.00774261353510397
       470   13.032671     -21.007743      0.42957427    -20.578168      393.93387    
471 -21.008068087829737891
       471   13.113695     -21.008068      0.43224492    -20.575823      393.86236    
472 -21.008397686480186906
       472   13.195233     -21.008398      0.43493251    -20.573465      393.78714    
473 -21.008393343590668678
       473   13.277265     -21.008393      0.43763641    -20.570757      393.82334    
474 -21.008560491933888414
       474   13.359772     -21.00856       0.44035593    -20.568205      393.79983    
475 -21.008898185619251819
       475   13.442726     -21.008898      0.44309024    -20.565808      393.71729    
476 -21.009236955739346797
       476   13.526108     -21.009237      0.44583861    -20.563398      393.63366    
477 -21.00974488287749864
       477   13.609895     -21.009745      0.44860034    -20.561145      393.49231    
478 -21.009915032604371987
       478   13.694063     -21.009915      0.45137464    -20.55854       393.4657     
479 -21.010421469915538495
       479   13.778591     -21.010421      0.45416077    -20.556261      393.32546    
480 -21.01058868523112011
       480   13.863451     -21.010589      0.45695789    -20.553631      393.30128    
481 -21.010921685678351167
       481   13.948617     -21.010922      0.45976506    -20.551157      393.22216    
482 -21.011082344345386019
       482   14.034062     -21.011082      0.46258143    -20.548501      393.20329    
483 -21.011575856540968488
       483   14.119766     -21.011576      0.46540635    -20.54617       393.07362    
484 -21.011726991091727257
       484   14.205704     -21.011727      0.46823899    -20.543488      393.06278    
485 -21.012209338270739778
       485   14.291846     -21.012209      0.47107835    -20.541131      392.94254    
486 -21.012347305420622234
       486   14.378165     -21.012347      0.47392353    -20.538424      392.94265    
487 -21.012477457888174115
       487   14.464634     -21.012477      0.47677368    -20.535704      392.94929    
488 -21.012936321047988031
       488   14.551229     -21.012936      0.47962797    -20.533308      392.84868    
489 -21.013217105462171475
       489   14.637925     -21.013217      0.48248558    -20.530732      392.81327    
490 -21.013487623099102564
       490   14.724696     -21.013488      0.48534565    -20.528142      392.78655    
491 -21.013241066645647948
       491   14.811513     -21.013241      0.48820729    -20.525034      392.94096    
492 -21.013151103371530581
       492   14.898348     -21.013151      0.49106947    -20.522082      393.04828    
493 -21.013385547723927971
       493   14.985168     -21.013386      0.49393118    -20.519454      393.05197    
494 -21.013437435588521396
       494   15.071947     -21.013437      0.49679151    -20.516646      393.12453    
495 -21.014149519698239743
       495   15.158659     -21.01415       0.49964965    -20.5145        392.98035    
496 -21.014508869386741452
       496   15.245277     -21.014509      0.5025047     -20.512004      392.9637     
497 -21.015020527722715116
       497   15.331772     -21.015021      0.5053557     -20.509665      392.90358    
498 -21.015346396239809934
       498   15.418116     -21.015346      0.50820172    -20.507145      392.91516    
499 -21.015991599187568539
       499   15.504283     -21.015992      0.5110419     -20.50495       392.82745    
500 -21.016449575944239569
       500   15.590247     -21.01645       0.51387539    -20.502574      392.81281    
501 -21.01655036106572183
       501   15.675973     -21.01655       0.51670104    -20.499849      392.92934    
502 -21.016630463954275143
       502   15.761434     -21.01663       0.51951794    -20.497113      393.06325    
503 -21.016689288667325997
       503   15.846603     -21.016689      0.52232522    -20.494364      393.21517    
504 -21.01672589747380826
       504   15.93145      -21.016726      0.52512189    -20.491604      393.38582    
505 -21.01623352926964472
       505   16.01595      -21.016234      0.52790713    -20.488326      393.74766    
506 -21.016392215143564925
       506   16.100079     -21.016392      0.53068012    -20.485712      393.90056    
507 -21.016189068238812609
       507   16.183805     -21.016189      0.53343986    -20.482749      394.18874    
508 -21.016128951771271716
       508   16.267095     -21.016129      0.53618521    -20.479944      394.44121    
509 -21.01604237372296069
       509   16.349919     -21.016042      0.53891518    -20.477127      394.71591    
510 -21.015760182493096409
       510   16.432255     -21.01576       0.54162909    -20.474131      395.07067    
511 -21.015450140853641159
       511   16.514079     -21.01545       0.54432612    -20.471124      395.44896    
512 -21.015617559150484794
       512   16.595361     -21.015618      0.5470053     -20.468612      395.67965    
513 -21.015586999063199158
       513   16.676075     -21.015587      0.54966573    -20.465921      395.99238    
514 -21.015188906350566356
       514   16.756189     -21.015189      0.5523064     -20.462883      396.44509    
515 -21.014759928321545601
       515   16.83568      -21.01476       0.55492654    -20.459833      396.92388    
516 -21.014805432436961752
       516   16.914523     -21.014805      0.55752529    -20.45728       397.25761    
517 -21.01414383131920971
       517   16.992689     -21.014144      0.56010174    -20.454042      397.8477     
518 -21.013786554012000352
       518   17.070153     -21.013787      0.56265507    -20.451131      398.35121    
519 -21.013395810427120125
       519   17.146895     -21.013396      0.56518457    -20.448211      398.88316    
520 -21.013139303113860024
       520   17.222884     -21.013139      0.56768928    -20.44545       399.38697    
521 -21.012847505936562698
       521   17.29809      -21.012848      0.57016818    -20.442679      399.92051    
522 -21.012688468285485754
       522   17.37249      -21.012688      0.57262051    -20.440068      400.42707    
523 -21.011986916584170615
       523   17.44606      -21.011987      0.57504546    -20.436941      401.1362     
524 -21.01124817368586406
       524   17.518776     -21.011248      0.57744227    -20.433806      401.87671    
525 -21.01064051211507433
       525   17.590623     -21.010641      0.57981044    -20.43083       402.59182    
526 -21.009657608880736746
       526   17.661582     -21.009658      0.58214937    -20.427508      403.45372    
527 -21.008973133466707139
       527   17.731623     -21.008973      0.584458      -20.424515      404.23403    
528 -21.00774313972258156
       528   17.80072      -21.007743      0.58673552    -20.421008      405.2195     
529 -21.007148083241684589
       529   17.868855     -21.007148      0.58898135    -20.418167      406.00973    
530 -21.006006287954470224
       530   17.936006     -21.006006      0.59119473    -20.414812      407.00611    
531 -21.004991846973357639
       531   18.002146     -21.004992      0.59337479    -20.411617      407.98009    
532 -21.00444193479745536
       532   18.06726      -21.004442      0.59552106    -20.408921      408.81749    
533 -21.003343952531640326
       533   18.131328     -21.003344      0.59763282    -20.405711      409.86228    
534 -21.002540480547111201
       534   18.194322     -21.00254       0.59970917    -20.402831      410.82868    
535 -21.001019123203612082
       535   18.25623      -21.001019      0.60174974    -20.399269      412.06059    
536 -20.999960330869331671
       536   18.317035     -20.99996       0.60375396    -20.396206      413.15756    
537 -20.998857478495136064
       537   18.376715     -20.998857      0.60572109    -20.393136      414.29177    
538 -20.997373038386189847
       538   18.435254     -20.997373      0.60765062    -20.389722      415.57801    
539 -20.996180919804725562
       539   18.492632     -20.996181      0.60954188    -20.386639      416.78771    
540 -20.994943359528384974
       540   18.548827     -20.994943      0.61139415    -20.383549      418.03569    
541 -20.993154097049675499
       541   18.603829     -20.993154      0.61320707    -20.379947      419.49399    
542 -20.991656326001784549
       542   18.657623     -20.991656      0.6149802     -20.376676      420.8766     
543 -20.989774983818055176
       543   18.710197     -20.989775      0.61671311    -20.373062      422.41281    
544 -20.98801576788636325
       544   18.761536     -20.988016      0.61840531    -20.36961       423.93112    
545 -20.986378213373921398
       545   18.811622     -20.986378      0.62005623    -20.366322      425.43183    
546 -20.984862253224633832
       546   18.860444     -20.984862      0.62166545    -20.363197      426.91508    
547 -20.983467457963655534
       547   18.907988     -20.983467      0.62323257    -20.360235      428.38116    
548 -20.98185609174386812
       548   18.954239     -20.981856      0.62475704    -20.357099      429.94477    
549 -20.980028237946960701
       549   18.999189     -20.980028      0.62623866    -20.35379       431.60602    
550 -20.978152253992263354
       550   19.042828     -20.978152      0.62767709    -20.350475      433.30785    
551 -20.976227953241906476
       551   19.085146     -20.976228      0.62907192    -20.347156      435.0504     
552 -20.974255238181076066
       552   19.126133     -20.974255      0.63042293    -20.343832      436.83376    
553 -20.972739978571777186
       553   19.16578      -20.97274       0.63172973    -20.34101       438.48628    
554 -20.970838637279733518
       554   19.204077     -20.970839      0.63299207    -20.337847      440.29433    
555 -20.968382566270285849
       555   19.241024     -20.968383      0.63420986    -20.334173      442.31521    
556 -20.965877877781490923
       556   19.276614     -20.965878      0.63538298    -20.330495      444.37714    
557 -20.963662093971468181
       557   19.310846     -20.963662      0.6365113     -20.327151      446.3656     
558 -20.961229010942012962
       558   19.343721     -20.961229      0.6375949     -20.323634      448.45243    
559 -20.959253615831794804
       559   19.375229     -20.959254      0.63863347    -20.32062       450.4085     
560 -20.956554759408906108
       560   19.405368     -20.956555      0.63962686    -20.316928      452.63469    
561 -20.953639128561182048
       561   19.434142     -20.953639      0.6405753     -20.313064      454.95902    
562 -20.95118118539319596
       562   19.461539     -20.951181      0.64147835    -20.309703      457.15248    
563 -20.948168821676098617
       563   19.487556     -20.948169      0.6423359     -20.305833      459.55855    
564 -20.945614212470395898
       564   19.512194     -20.945614      0.64314801    -20.302466      461.8336     
565 -20.942336585294786033
       565   19.535452     -20.942337      0.64391463    -20.298422      464.37835    
566 -20.939517188756028077
       566   19.557333     -20.939517      0.64463584    -20.294881      466.79176    
567 -20.936649876128718972
       567   19.577834     -20.93665       0.64531158    -20.291338      469.24552    
568 -20.933903774474131865
       568   19.596959     -20.933904      0.64594197    -20.287962      471.68212    
569 -20.931110115618174916
       569   19.61471      -20.93111       0.64652707    -20.284583      474.15871    
570 -20.92843794061417384
       570   19.631089     -20.928438      0.64706694    -20.281371      476.61778    
571 -20.925044386410505126
       571   19.646113     -20.925044      0.64756214    -20.277482      479.34532    
572 -20.922447946900202709
       572   19.659782     -20.922448      0.6480127     -20.274435      481.82574    
573 -20.919298994225641763
       573   19.672094     -20.919299      0.64841853    -20.27088       484.51694    
574 -20.916272894295023121
       574   19.683061     -20.916273      0.64878       -20.267493      487.18951    
575 -20.913369784959485287
       575   19.692683     -20.91337       0.64909716    -20.264273      489.8432     
576 -20.910421384728255845
       576   19.700968     -20.910421      0.64937025    -20.261051      492.53492    
577 -20.906753582112163059
       577   19.707936     -20.906754      0.64959991    -20.257154      495.49332    
578 -20.903547627336855896
       578   19.713595     -20.903548      0.64978645    -20.253761      498.3172     
579 -20.899792044559294624
       579   19.717959     -20.899792      0.64993029    -20.249862      501.34969    
580 -20.896330731275224224
       580   19.721038     -20.896331      0.65003179    -20.246299      504.30408    
581 -20.893164021588823687
       581   19.722841     -20.893164      0.65009122    -20.243073      507.17998    
582 -20.889786578702402409
       582   19.72339      -20.889787      0.65010929    -20.239677      510.14871    
583 -20.886030147849236727
       583   19.722692     -20.88603       0.65008631    -20.235944      513.26706    
584 -20.88290722844460845
       584   19.720758     -20.882907      0.65002254    -20.232885      516.19106    
585 -20.879406531809056702
       585   19.717603     -20.879407      0.64991857    -20.229488      519.26368    
586 -20.876034284657514206
       586   19.713239     -20.876034      0.64977471    -20.22626       522.31275    
587 -20.871442362766664758
       587   19.707691     -20.871442      0.64959184    -20.221851      525.7956     
588 -20.868161296009098749
       588   19.700978     -20.868161      0.64937058    -20.218791      528.85296    
589 -20.864335902312664217
       589   19.693105     -20.864336      0.64911107    -20.215225      532.11415    
590 -20.860304244313240929
       590   19.684091     -20.860304      0.64881396    -20.21149       535.46407    
591 -20.856404604620994547
       591   19.673952     -20.856405      0.64847978    -20.207925      538.78753    
592 -20.852637490376469742
       592   19.662714     -20.852637      0.64810935    -20.204528      542.084      
593 -20.848835375163613293
       593   19.650397     -20.848835      0.64770335    -20.201132      545.40996    
594 -20.844829902654879561
       594   19.637021     -20.84483       0.64726246    -20.197567      548.82219    
595 -20.841128343227364184
       595   19.622607     -20.841128      0.64678737    -20.194341      552.14808    
596 -20.836887752927935935
       596   19.607174     -20.836888      0.64627866    -20.190609      555.67333    
597 -20.832277589091685144
       597   19.590749     -20.832278      0.64573729    -20.18654       559.34004    
598 -20.827974070025817355
       598   19.573361     -20.827974      0.64516413    -20.18281       562.91825    
599 -20.823977554617986385
       599   19.555028     -20.823978      0.64455985    -20.179418      566.40739    
600 -20.820120099634895183
       600   19.535772     -20.82012       0.64392515    -20.176195      569.86401    
601 -20.815896896013889261
       601   19.515621     -20.815897      0.64326098    -20.172636      573.45902    
602 -20.811309109822346386
       602   19.494617     -20.811309      0.64256864    -20.16874       577.19161    
603 -20.807369475113009827
       603   19.472776     -20.807369      0.64184873    -20.165521      580.71752    
604 -20.803235291058214784
       604   19.450116     -20.803235      0.64110182    -20.162133      584.32228    
605 -20.798570212325817153
       605   19.426669     -20.79857       0.64032897    -20.158241      588.11958    
606 -20.793881362699902837
       606   19.40246      -20.793881      0.63953102    -20.15435       591.93678    
607 -20.789675483568778702
       607   19.377511     -20.789675      0.63870868    -20.150967      595.60136    
608 -20.785110167336064535
       608   19.351853     -20.78511       0.63786296    -20.147247      599.39874    
609 -20.780523886200196415
       609   19.325518     -20.780524      0.6369949     -20.143529      603.21352    
610 -20.775917560621234514
       610   19.298535     -20.775918      0.63610551    -20.139812      607.04487    
611 -20.771461221273291642
       611   19.270936     -20.771461      0.63519583    -20.136265      610.83454    
612 -20.766312520230698624
       612   19.242759     -20.766313      0.63426705    -20.132045      614.86793    
613 -20.761653338935076363
       613   19.214033     -20.761653      0.63332022    -20.128333      618.74333    
614 -20.757147083061664006
       614   19.184782     -20.757147      0.63235605    -20.124791      622.5744     
615 -20.752625989374354987
       615   19.155036     -20.752626      0.63137561    -20.12125       626.41752    
616 -20.747416827398012629
       616   19.12484      -20.747417      0.6303803     -20.117037      630.50068    
617 -20.743376571699251087
       617   19.094227     -20.743377      0.62937125    -20.114005      634.193      
618 -20.738818774509201859
       618   19.063221     -20.738819      0.62834924    -20.11047       638.06628    
619 -20.734588137771886807
       619   19.031852     -20.734588      0.6273153     -20.107273      641.83322    
620 -20.730010984042714028
       620   19.000158     -20.730011      0.6262706     -20.10374       645.72189    
621 -20.725426002185635355
       621   18.968175     -20.725426      0.6252164     -20.10021       649.61676    
622 -20.720834385024417656
       622   18.93594      -20.720834      0.62415391    -20.09668       653.51682    
623 -20.716068902904190452
       623   18.903493     -20.716069      0.62308441    -20.092984      657.47825    
624 -20.71113080041159904
       624   18.870876     -20.711131      0.6220093     -20.089121      661.50004    
625 -20.706190134125950664
       625   18.838129     -20.70619       0.62092991    -20.08526       665.52386    
626 -20.701922430007762443
       626   18.805279     -20.701922      0.61984713    -20.082075      669.31978    
627 -20.697485387276916668
       627   18.772358     -20.697485      0.618762      -20.078723      673.17306    
628 -20.692880284872881447
       628   18.739407     -20.69288       0.61767592    -20.075204      677.08265    
629 -20.688445811194963397
       629   18.706466     -20.688446      0.61659015    -20.071856      680.93297    
630 -20.683508870013742609
       630   18.673585     -20.683509      0.61550634    -20.068003      684.95192    
631 -20.678914315930111201
       631   18.640804     -20.678914      0.61442584    -20.064488      688.8521     
632 -20.674325652236500872
       632   18.608158     -20.674326      0.61334977    -20.060976      692.74707    
633 -20.669744382469886546
       633   18.575691     -20.669744      0.61227963    -20.057465      696.63573    
634 -20.665340464949878196
       634   18.543442     -20.66534       0.61121664    -20.054124      700.45974    
635 -20.661114843811418496
       635   18.511441     -20.661115      0.61016184    -20.050953      704.21811    
636 -20.656394384580234913
       636   18.479741     -20.656394      0.60911698    -20.047277      708.13873    
637 -20.652361457151958035
       637   18.448386     -20.652361      0.60808346    -20.044278      711.81966    
638 -20.647667353579457483
       638   18.417402     -20.647667      0.60706221    -20.040605      715.71799    
639 -20.64281941034617418
       639   18.38684      -20.642819      0.60605482    -20.036765      719.66093    
640 -20.638325284759488909
       640   18.356737     -20.638325      0.60506259    -20.033263      723.47551    
641 -20.633680090827663633
       641   18.327134     -20.63368       0.60408683    -20.029593      727.33247    
642 -20.629053893215953508
       642   18.298078     -20.629054      0.60312913    -20.025925      731.17348    
643 -20.625122574881771698
       643   18.269609     -20.625123      0.60219074    -20.022932      734.76848    
644 -20.620538527838380816
       644   18.241775     -20.620539      0.6012733     -20.019265      738.5743     
645 -20.616483538293643107
       645   18.214627     -20.616484      0.60037845    -20.016105      742.18921    
646 -20.611609571094522408
       646   18.188202     -20.61161       0.59950746    -20.012102      746.07014    
647 -20.606592772855499618
       647   18.162549     -20.606593      0.5986619     -20.007931      749.98699    
648 -20.602783897275081415
       648   18.137698     -20.602784      0.59784279    -20.004941      753.48063    
649 -20.598328502921226857
       649   18.113687     -20.598329      0.59705135    -20.001277      757.17987    
650 -20.594239559619573754
       650   18.090561     -20.59424       0.59628909    -19.99795       760.7403     
651 -20.590181305030750281
       651   18.068365     -20.590181      0.59555746    -19.994624      764.27528    
652 -20.586323663680410334
       652   18.047138     -20.586324      0.5948578     -19.991466      767.72655    
653 -20.582498822875070488
       653   18.026912     -20.582499      0.59419113    -19.988308      771.15043    
654 -20.578201939669590104
       654   18.007731     -20.578202      0.5935589     -19.984643      774.71771    
655 -20.57444656092862445
       655   17.989639     -20.574447      0.59296254    -19.981484      778.08378    
656 -20.570559021360828922
       656   17.972672     -20.570559      0.59240328    -19.978156      781.47674    
657 -20.566540786611241742
       657   17.956882     -20.566541      0.59188285    -19.974658      784.89556    
658 -20.562730696771737371
       658   17.942319     -20.562731      0.59140283    -19.971328      788.22471    
659 -20.558960943577055502
       659   17.929015     -20.558961      0.5909643     -19.967997      791.52056    
660 -20.555233171636555056
       660   17.917022     -20.555233      0.590569      -19.964664      794.78207    
661 -20.551211167561799442
       661   17.906386     -20.551211      0.59021842    -19.960993      798.12285    
662 -20.547064636953798811
       662   17.897135     -20.547065      0.58991351    -19.957151      801.48474    
663 -20.543300270207698333
       663   17.889304     -20.5433        0.58965539    -19.953645      804.69522    
664 -20.539582023428877733
       664   17.882931     -20.539582      0.58944532    -19.950137      807.86786    
665 -20.535742813540480256
       665   17.878068     -20.535743      0.58928502    -19.946458      811.05893    
666 -20.531783173625480998
       666   17.874752     -20.531783      0.58917574    -19.942607      814.26778    
667 -20.528210119013113655
       667   17.87301      -20.52821       0.58911832    -19.939092      817.32181    
668 -20.524855684238740849
       668   17.872874     -20.524856      0.58911382    -19.935742      820.27755    
669 -20.52121514606026409
       669   17.874386     -20.521215      0.58916365    -19.932051      823.30591    
670 -20.518132697741879866
       670   17.877578     -20.518133      0.58926887    -19.928864      826.1199     
671 -20.515102956960660663
       671   17.882478     -20.515103      0.58943037    -19.925673      828.89063    
672 -20.511789523297789373
       672   17.889124     -20.51179       0.58964945    -19.92214       831.73189    
673 -20.5090370347320885
       673   17.897557     -20.509037      0.5899274     -19.91911       834.35662    
674 -20.505665420292594092
       674   17.907811     -20.505665      0.5902654     -19.9154        837.16503    
675 -20.502687771002243267
       675   17.919917     -20.502688      0.59066443    -19.912023      839.81286    
676 -20.500273494147482012
       676   17.933905     -20.500273      0.59112549    -19.909148      842.24227    
677 -20.497073818908187803
       677   17.949814     -20.497074      0.59164988    -19.905424      844.91079    
678 -20.494270648415685798
       678   17.967673     -20.494271      0.59223852    -19.902032      847.41692    
679 -20.491526877451057942
       679   17.987505     -20.491527      0.5928922     -19.898635      849.87478    
680 -20.489349259421615557
       680   18.009337     -20.489349      0.59361182    -19.895737      852.11207    
681 -20.486388907463883413
       681   18.033198     -20.486389      0.5943983     -19.891991      854.58642    
682 -20.483827247221942258
       682   18.059114     -20.483827      0.59525253    -19.888575      856.89655    
683 -20.480484313224863513
       683   18.087115     -20.480484      0.59617551    -19.884309      859.44279    
684 -20.478047270717883777
[...]
4837 -15.711118011789812599
      4837   172.26069     -15.711118      5.6779427     -10.033175      5575.433     
4838 -15.713707549652582429
      4838   172.58558     -15.713708      5.6886513     -10.025056      5574.8391    
4839 -15.716268576637476784
      4839   172.92448     -15.716269      5.699822      -10.016447      5574.1558    
4840 -15.718461683009108398
      4840   173.27726     -15.718462      5.71145       -10.007012      5573.4981    
4841 -15.721634910261887086
      4841   173.64374     -15.721635      5.7235297     -9.9981052      5572.4087    
4842 -15.725280253542575082
      4842   174.02369     -15.72528       5.7360534     -9.9892268      5571.0602    
4843 -15.728381720737555582
      4843   174.41688     -15.728382      5.7490137     -9.9793681      5569.7981    
4844 -15.732116039303132737
      4844   174.82304     -15.732116      5.7624012     -9.9697148      5568.2237    
4845 -15.736141279384346703
      4845   175.24186     -15.736141      5.7762062     -9.9599351      5566.4539    
4846 -15.740621155055444902
      4846   175.67304     -15.740621      5.7904182     -9.950203       5564.4345    
4847 -15.744874256908422794
      4847   176.11621     -15.744874      5.8050257     -9.9398486      5562.398     
4848 -15.750583200501967696
      4848   176.57103     -15.750583      5.8200173     -9.9305659      5559.775     
4849 -15.755716023986742869
      4849   177.0371      -15.755716      5.8353795     -9.9203365      5557.2569    
4850 -15.761613510533626581
      4850   177.51398     -15.761614      5.851098      -9.9105155      5554.3904    
4851 -15.767763553374638974
      4851   178.00124     -15.767764      5.8671588     -9.9006048      5551.3515    
4852 -15.772807041792853866
      4852   178.49843     -15.772807      5.8835467     -9.8892603      5548.6037    
4853 -15.778931350679849643
      4853   179.00511     -15.778931      5.9002477     -9.8786836      5545.4069    
4854 -15.786126716862220576
      4854   179.52083     -15.786127      5.9172464     -9.8688803      5541.7671    
4855 -15.792525750742804291
      4855   180.04499     -15.792526      5.9345237     -9.8580021      5538.3203    
4856 -15.799973522112065183
      4856   180.57706     -15.799974      5.9520613     -9.8479123      5534.4429    
4857 -15.806267286786127357
      4857   181.11649     -15.806267      5.9698418     -9.8364255      5530.8851    
4858 -15.813083299930980274
      4858   181.66276     -15.813083      5.9878476     -9.8252357      5527.0809    
4859 -15.820918700237628585
      4859   182.21535     -15.820919      6.0060616     -9.8148571      5522.8645    
4860 -15.828749578159452938
      4860   182.7737      -15.82875       6.0244654     -9.8042842      5518.5863    
4861 -15.837578702003323627
      4861   183.33727     -15.837579      6.0430415     -9.7945372      5513.9091    
4862 -15.845202347945107846
      4862   183.90549     -15.845202      6.0617709     -9.7834315      5509.5839    
4863 -15.853970380497921511
      4863   184.47781     -15.85397       6.0806352     -9.7733352      5504.8161    
4864 -15.8620162109617997
      4864   185.05366     -15.862016      6.0996161     -9.7624001      5500.2424    
4865 -15.870678529901237397
      4865   185.63247     -15.870679      6.1186943     -9.7519842      5495.4116    
4866 -15.879103286226035507
      4866   186.2137      -15.879103      6.1378525     -9.7412508      5490.6169    
4867 -15.887449145093485825
      4867   186.79684     -15.887449      6.1570737     -9.7303754      5485.8078    
4868 -15.896042610747899815
      4868   187.38136     -15.896043      6.1763401     -9.7197025      5480.8769    
4869 -15.904703839331340021
      4869   187.96669     -15.904704      6.1956334     -9.7090704      5475.8885    
4870 -15.912747525753236033
      4870   188.55231     -15.912748      6.2149363     -9.6978112      5471.0788    
4871 -15.921007722791634009
      4871   189.13776     -15.921008      6.2342333     -9.6867744      5466.1685    
4872 -15.929980282903816402
      4872   189.72249     -15.92998       6.2535069     -9.6764733      5460.9927    
4873 -15.938808475812352938
      4873   190.30597     -15.938808      6.272739      -9.6660694      5455.8459    
4874 -15.947481872546362069
      4874   190.88764     -15.947482      6.291912      -9.6555699      5450.7353    
4875 -15.956325174575889392
      4875   191.46698     -15.956325      6.3110075     -9.6453177      5445.5546    
4876 -15.965326404465375987
      4876   192.04344     -15.965326      6.3300086     -9.6353178      5440.3117    
4877 -15.974137561545379782
      4877   192.61655     -15.974138      6.3488991     -9.6252384      5435.1289    
4878 -15.982071519003213211
      4878   193.18579     -15.982072      6.3676618     -9.6144097      5430.2437    
4879 -15.990126913255226171
      4879   193.7506      -15.990127      6.3862787     -9.6038483      5425.3213    
4880 -15.998797557981966122
      4880   194.31046     -15.998798      6.4047325     -9.5940651      5420.1987    
4881 -16.006890080483216821
      4881   194.86486     -16.00689       6.4230064     -9.5838837      5415.2855    
4882 -16.014896709798193797
      4882   195.4133      -16.014897      6.4410836     -9.5738132      5410.4194    
4883 -16.023479189984161764
      4883   195.95522     -16.023479      6.458946      -9.5645332      5405.3806    
4884 -16.031946377608019105
      4884   196.49003     -16.031946      6.4765742     -9.5553722      5400.4086    
4885 -16.039944404107998821
      4885   197.01714     -16.039944      6.4939485     -9.5459959      5395.6283    
4886 -16.048301157976279541
      4886   197.53599     -16.048301      6.5110503     -9.5372509      5390.764     
4887 -16.056157388668914621
      4887   198.04599     -16.056157      6.5278606     -9.5282968      5386.1126    
4888 -16.063497080590494193
      4888   198.54659     -16.063497      6.5443612     -9.5191359      5381.685     
4889 -16.070810507357720098
      4889   199.03725     -16.070811      6.5605338     -9.5102767      5377.3203    
4890 -16.078081739988160592
      4890   199.51739     -16.078082      6.5763599     -9.5017218      5373.0297    
4891 -16.084618244544795829
      4891   199.98647     -16.084618      6.5918213     -9.4927969      5369.0538    
4892 -16.091584861350444413
      4892   200.4439      -16.091585      6.6068989     -9.4846859      5365.003     
4893 -16.097782922687557061
      4893   200.8891      -16.097783      6.6215735     -9.4762095      5361.2898    
4894 -16.103699950374249283
      4894   201.3215      -16.1037        6.6358257     -9.4678743      5357.7541    
4895 -16.109151075394215979
      4895   201.74052     -16.109151      6.6496374     -9.4595137      5354.4645    
4896 -16.115469870571235589
      4896   202.14569     -16.11547       6.6629923     -9.4524776      5350.9739    
4897 -16.120953491950263725
      4897   202.53651     -16.120953      6.675874      -9.4450795      5347.8661    
4898 -16.126600730312393495
      4898   202.91251     -16.126601      6.6882675     -9.4383332      5344.8074    
4899 -16.131213690250088888
      4899   203.2732      -16.131214      6.7001565     -9.4310572      5342.2097    
4900 -16.135114081172908129
      4900   203.61809     -16.135114      6.7115244     -9.4235897      5339.9687    
4901 -16.139468708313732037
      4901   203.94675     -16.139469      6.7223574     -9.4171113      5337.6933    
4902 -16.142913081043232637
      4902   204.25873     -16.142913      6.7326409     -9.4102722      5335.851     
4903 -16.144928172566327618
      4903   204.55367     -16.144928      6.7423625     -9.4025657      5334.6224    
4904 -16.147022373861254607
      4904   204.83124     -16.147022      6.7515116     -9.3955108      5333.4997    
4905 -16.149015314672240606
      4905   205.09112     -16.149015      6.7600775     -9.3889378      5332.5477    
4906 -16.150392388369535723
      4906   205.33307     -16.150392      6.7680525     -9.3823399      5331.9447    
4907 -16.150473063341273416
      4907   205.55693     -16.150473      6.7754313     -9.3750418      5331.9251    
4908 -16.150598233818563187
      4908   205.76249     -16.150598      6.7822067     -9.3683916      5332.0363    
4909 -16.150760440122112982
      4909   205.94954     -16.15076       6.7883722     -9.3623883      5332.2829    
4910 -16.150617144539786807
      4910   206.118       -16.150617      6.7939247     -9.3566924      5332.7833    
4911 -16.149491905970283057
      4911   206.2678      -16.149492      6.7988625     -9.3506294      5333.7685    
4912 -16.147550891261090555
      4912   206.39894     -16.147551      6.8031849     -9.344366       5335.1834    
4913 -16.146311576345507177
      4913   206.51144     -16.146312      6.8068931     -9.3394185      5336.5134    
4914 -16.144087824666481623
      4914   206.60537     -16.144088      6.8099891     -9.3340987      5338.3312    
4915 -16.140881749432736569
      4915   206.68087     -16.140882      6.8124779     -9.3284039      5340.6361    
4916 -16.137712530893736584
      4916   206.73816     -16.137713      6.8143662     -9.3233463      5343.0817    
4917 -16.134077993472061507
      4917   206.77744     -16.134078      6.8156608     -9.3184172      5345.8376    
4918 -16.129983082662054272
      4918   206.79894     -16.129983      6.8163697     -9.3136134      5348.9006    
4919 -16.124928337779863341
      4919   206.80293     -16.124928      6.8165011     -9.3084272      5352.4385    
4920 -16.120609115797023492
      4920   206.78971     -16.120609      6.8160652     -9.3045439      5355.8736    
4921 -16.11568568230534737
      4921   206.75966     -16.115686      6.8150748     -9.3006109      5359.6584    
4922 -16.109495952909789196
      4922   206.71323     -16.109496      6.8135444     -9.2959516      5364.015     
4923 -16.103905604374226357
      4923   206.65084     -16.103906      6.8114879     -9.2924177      5368.3069    
4924 -16.097747608306555378
      4924   206.57293     -16.097748      6.80892       -9.2888276      5372.927     
4925 -16.090696577013726909
      4925   206.47999     -16.090697      6.8058564     -9.2848401      5377.982     
4926 -16.083103614408479132
      4926   206.3725      -16.083104      6.8023135     -9.2807901      5383.3487    
4927 -16.075490999562600081
      4927   206.25105     -16.075491      6.7983103     -9.2771807      5388.8462    
4928 -16.068043994879470659
      4928   206.1162      -16.068044      6.7938655     -9.2741784      5394.4072    
4929 -16.058923759310513191
      4929   205.96852     -16.058924      6.7889979     -9.2699259      5400.6516    
4930 -16.048989490077367748
      4930   205.80862     -16.048989      6.7837274     -9.2652621      5407.2833    
4931 -16.039775283427285757
      4931   205.63707     -16.039775      6.7780727     -9.2617026      5413.7769    
4932 -16.030284712640085587
      4932   205.45439     -16.030285      6.7720515     -9.2582332      5420.4658    
4933 -16.020364823415267352
      4933   205.26119     -16.020365      6.7656832     -9.2546816      5427.3971    
4934 -16.010032835577209909
      4934   205.05808     -16.010033      6.7589884     -9.2510445      5434.5602    
4935 -15.999811012578591729
      4935   204.84563     -15.999811      6.7519857     -9.2478253      5441.7732    
4936 -15.98920943416300311
      4936   204.62443     -15.989209      6.7446949     -9.2445145      5449.1976    
4937 -15.979088712792718141
      4937   204.3951      -15.979089      6.7371357     -9.241953       5456.5367    
4938 -15.969295519023708252
      4938   204.15813     -15.969296      6.7293251     -9.2399704      5463.838     
4939 -15.958154996840249851
      4939   203.91406     -15.958155      6.72128       -9.2368749      5471.6651    
4940 -15.947538904288469652
      4940   203.66345     -15.947539      6.7130197     -9.2345192      5479.3787    
4941 -15.936619310829533092
      4941   203.40682     -15.936619      6.7045608     -9.2320585      5487.2555    
4942 -15.925408593193166595
      4942   203.14468     -15.925409      6.6959203     -9.2294883      5495.2873    
4943 -15.914090054609197011
      4943   202.87754     -15.91409       6.6871148     -9.2269752      5503.408     
4944 -15.903347363453907093
      4944   202.60577     -15.903347      6.6781571     -9.2251903      5511.3816    
4945 -15.8925172298370736
      4945   202.32979     -15.892517      6.6690605     -9.2234568      5519.4295    
4946 -15.880933742386700303
      4946   202.04999     -15.880934      6.6598378     -9.221096       5527.7744    
4947 -15.869450794226613866
      4947   201.76674     -15.869451      6.6505015     -9.2189493      5536.1231    
4948 -15.857064742463915508
      4948   201.48044     -15.857065      6.6410646     -9.2160002      5544.8135    
4949 -15.844797696921169461
      4949   201.19141     -15.844798      6.6315378     -9.2132599      5553.4958    
4950 -15.832654321265783537
      4950   200.89992     -15.832654      6.6219301     -9.2107243      5562.1656    
4951 -15.820978913002237576
      4951   200.60629     -15.820979      6.6122514     -9.2087275      5570.7037    
4952 -15.809441393434559231
      4952   200.31076     -15.809441      6.6025104     -9.206931       5579.2197    
4953 -15.797707578531598571
      4953   200.01356     -15.797708      6.5927145     -9.2049931      5587.825     
4954 -15.785615381058766715
      4954   199.71495     -15.785615      6.5828718     -9.2027436      5596.5728    
4955 -15.773505604774834765
      4955   199.41512     -15.773506      6.5729889     -9.2005167      5605.3456    
4956 -15.76087641986714516
      4956   199.11427     -15.760876      6.5630725     -9.1978039      5614.3121    
4957 -15.749080257869144006
      4957   198.8126      -15.74908       6.553129      -9.1959513      5623.012     
4958 -15.737443638772338872
      4958   198.5102      -15.737444      6.5431617     -9.1942819      5631.6722    
4959 -15.725293253034321239
      4959   198.20722     -15.725293      6.5331751     -9.1921181      5640.5201    
4960 -15.713643997725149859
      4960   197.9038      -15.713644      6.5231737     -9.1904703      5649.2099    
4961 -15.701820712716799022
      4961   197.60001     -15.701821      6.5131604     -9.1886603      5657.9698    
4962 -15.68931731730000223
      4962   197.29595     -15.689317      6.5031383     -9.1861791      5666.9704    
4963 -15.677822124798028725
      4963   196.99171     -15.677822      6.4931102     -9.184712       5675.6376    
4964 -15.665818069645863986
      4964   196.6874      -15.665818      6.4830798     -9.1827383      5684.4856    
4965 -15.65364289419117938
      4965   196.38315     -15.653643      6.4730513     -9.1805916      5693.3988    
4966 -15.641467294251503617
      4966   196.07903     -15.641467      6.463027      -9.1784403      5702.3183    
4967 -15.629287829550950306
      4967   195.77504     -15.629288      6.4530071     -9.1762807      5711.2441    
4968 -15.617780576118537539
      4968   195.4713      -15.617781      6.4429955     -9.1747851      5719.9457    
4969 -15.606778796195447612
      4969   195.16794     -15.606779      6.4329962     -9.1737826      5728.4789    
4970 -15.595607669464023104
      4970   194.86502     -15.595608      6.4230116     -9.172596       5737.0713    
4971 -15.584101358691489381
      4971   194.56268     -15.584101      6.413046      -9.1710554      5745.7782    
4972 -15.570742466026947781
      4972   194.26104     -15.570742      6.4031037     -9.1676388      5755.1132    
4973 -15.558906125189752245
      4973   193.96023     -15.558906      6.3931885     -9.1657176      5763.929     
4974 -15.546739047820144819
      4974   193.66036     -15.546739      6.3833045     -9.1634345      5772.8531    
4975 -15.533908246895341776
      4975   193.36163     -15.533908      6.3734578     -9.1604505      5781.9965    
4976 -15.521598643228101011
      4976   193.06423     -15.521599      6.3636552     -9.1579434      5790.9551    
4977 -15.509815437218342993
      4977   192.7684      -15.509815      6.3539041     -9.1559114      5799.7249    
4978 -15.498562817946595516
      4978   192.47434     -15.498563      6.3442115     -9.1543513      5808.3018    
4979 -15.487004859069839924
      4979   192.18231     -15.487005      6.3345859     -9.152419       5816.9668    
4980 -15.475317431017398206
      4980   191.89263     -15.475317      6.3250376     -9.1502799      5825.6572    
4981 -15.463509473285775186
      4981   191.60563     -15.463509      6.3155778     -9.1479316      5834.3668    
4982 -15.451422542164550578
      4982   191.32167     -15.451423      6.3062179     -9.1452047      5843.1458    
4983 -15.438728746913135126
      4983   191.04111     -15.438729      6.2969705     -9.1417583      5852.1016    
4984 -15.427633755505976154
      4984   190.7644      -15.427634      6.2878497     -9.139784       5860.4815    
4985 -15.415619503414907498
      4985   190.49196     -15.41562       6.2788696     -9.1367499      5869.1358    
4986 -15.404048234205459877
      4986   190.22426     -15.404048      6.2700458     -9.1340025      5877.5973    
4987 -15.392261346752999174
      4987   189.96184     -15.392261      6.2613961     -9.1308652      5886.085     
4988 -15.381287208679021106
      4988   189.70525     -15.381287      6.2529385     -9.1283487      5894.2447    
4989 -15.36962292552088627
      4989   189.455       -15.369623      6.2446901     -9.1249328      5902.5811    
4990 -15.358298239808437557
      4990   189.2117      -15.358298      6.2366705     -9.1216278      5910.7392    
4991 -15.347501128424772432
      4991   188.97597     -15.347501      6.2289006     -9.1186006      5918.6497    
4992 -15.336742802992521462
      4992   188.7484      -15.336743      6.2213997     -9.1153431      5926.4726    
4993 -15.325705226735275133
      4993   188.52964     -15.325705      6.2141891     -9.1115161      5934.3101    
4994 -15.315082664965974146
      4994   188.32032     -15.315083      6.2072897     -9.107793       5941.9208    
4995 -15.304555210311024283
      4995   188.12104     -15.304555      6.200721      -9.1038342      5949.4071    
4996 -15.29464864138540392
      4996   187.93242     -15.294649      6.194504      -9.1001447      5956.5847    
4997 -15.285887939262840618
      4997   187.75512     -15.285888      6.1886597     -9.0972283      5963.2699    
4998 -15.276942459233893601
      4998   187.58972     -15.276942      6.1832081     -9.0937344      5969.9089    
4999 -15.268336800787524865
      4999   187.43682     -15.268337      6.1781683     -9.0901685      5976.3181    
5000 -15.25991777927234061
      5000   187.29699     -15.259918      6.1735593     -9.0863585      5982.5445    
Loop time of 7.62174 on 1 procs for 5000 steps with 256 atoms

Performance: 56.680 ns/day, 0.423 hours/ns, 656.018 timesteps/s, 167.941 katom-step/s
95.3% CPU use with 1 MPI tasks x no OpenMP threads

MPI task timing breakdown:
Section |  min time  |  avg time  |  max time  |%varavg| %total
---------------------------------------------------------------
Pair    | 0.54438    | 0.54438    | 0.54438    |   0.0 |  7.14
Neigh   | 0.96398    | 0.96398    | 0.96398    |   0.0 | 12.65
Comm    | 0.062933   | 0.062933   | 0.062933   |   0.0 |  0.83
Output  | 6.0057     | 6.0057     | 6.0057     |   0.0 | 78.80
Modify  | 0.037677   | 0.037677   | 0.037677   |   0.0 |  0.49
Other   |            | 0.007111   |            |       |  0.09

Nlocal:            256 ave         256 max         256 min
Histogram: 1 0 0 0 0 0 0 0 0 0
Nghost:           1792 ave        1792 max        1792 min
Histogram: 1 0 0 0 0 0 0 0 0 0
Neighs:          17344 ave       17344 max       17344 min
Histogram: 1 0 0 0 0 0 0 0 0 0

Total # of neighbors = 17344
Ave neighs/atom = 67.75
Neighbor list builds = 5000
Dangerous builds not checked
