LAMMPS (2 Aug 2023 - Development - patch_2Aug2023-219-g06e2d5d306)
units          metal
boundary       p p p
atom_style     atomic
neigh_modify   delay 0 every 1 check no
read_data     fcc_lj_Ar_smaller_DATA
Reading data file ...
  orthogonal box = (0 0 0) to (21.105599 21.105599 21.105599)
  1 by 1 by 1 MPI processor grid
  reading atoms ...
  256 atoms
  read_data CPU = 0.002 seconds
pair_style     lj/cut 8.51
pair_coeff     * * 0.01032 3.405
variable T        equal  100
variable Tdamp    equal  0.1
variable Tseed    equal  12280329
variable dumpf    equal  1
velocity     all create $T ${Tseed} mom yes rot yes dist gaussian
velocity     all create 100 ${Tseed} mom yes rot yes dist gaussian
velocity     all create 100 12280329 mom yes rot yes dist gaussian
thermo       1
thermo_style custom step temp pe ke etotal press
dump           run_forces all custom ${dumpf} dump_batch.custom id type x y z fx fy fz vx vy vz
dump           run_forces all custom 1 dump_batch.custom id type x y z fx fy fz vx vy vz
dump_modify    run_forces sort id format line "%4d %1d %32.27f %32.27f %32.27f %32.27f %32.27f %32.27f %32.27f %32.27f %32.27f" 
fix          nvt all nvt temp $T $T ${Tdamp}
fix          nvt all nvt temp 100 $T ${Tdamp}
fix          nvt all nvt temp 100 100 ${Tdamp}
fix          nvt all nvt temp 100 100 0.1
run 50
Generated 0 of 0 mixed pair_coeff terms from geometric mixing rule
Neighbor list info ...
  update: every = 1 steps, delay = 0 steps, check = no
  max neighbors/atom: 2000, page size: 100000
  master list distance cutoff = 10.51
  ghost atom cutoff = 10.51
  binsize = 5.255, bins = 5 5 5
  1 neighbor lists, perpetual/occasional/extra = 1 0 0
  (1) pair lj/cut, perpetual
      attributes: half, newton on
      pair build: half/bin/atomonly/newton
      stencil: half/bin/3d
      bin: standard
Per MPI rank memory allocation (min/avg/max) = 2.63 | 2.63 | 2.63 Mbytes
   Step          Temp          PotEng         KinEng         TotEng         Press     
         0   100           -21.39855       3.2961337     -18.102416      374.48195    
         1   99.99255      -21.398305      3.2958881     -18.102416      374.68139    
         2   99.970205     -21.397568      3.2951516     -18.102416      375.27959    
         3   99.93298      -21.396341      3.2939246     -18.102416      376.2763     
         4   99.880892     -21.394623      3.2922077     -18.102415      377.67119    
         5   99.813967     -21.392416      3.2900018     -18.102414      379.46386    
         6   99.732233     -21.389719      3.2873077     -18.102411      381.65386    
         7   99.635726     -21.386533      3.2841267     -18.102406      384.24062    
         8   99.524485     -21.38286       3.2804601     -18.102399      387.22354    
         9   99.398556     -21.378699      3.2763093     -18.102389      390.6019     
        10   99.257988     -21.374051      3.271676      -18.102375      394.37493    
        11   99.102838     -21.368918      3.266562      -18.102356      398.54178    
        12   98.933166     -21.363301      3.2609694     -18.102332      403.10152    
        13   98.749039     -21.3572        3.2549003     -18.1023        408.05313    
        14   98.550526     -21.350617      3.2483571     -18.10226       413.39552    
        15   98.337706     -21.343553      3.2413423     -18.102211      419.12753    
        16   98.110659     -21.336009      3.2338585     -18.102151      425.24788    
        17   97.869473     -21.327987      3.2259087     -18.102078      431.75525    
        18   97.61424      -21.319488      3.2174959     -18.101993      438.64819    
        19   97.345057     -21.310515      3.2086232     -18.101891      445.92521    
        20   97.062027     -21.301067      3.1992942     -18.101773      453.58468    
        21   96.765257     -21.291149      3.1895123     -18.101636      461.62493    
        22   96.454876     -21.280592      3.1792817     -18.101311      470.10129    
        23   96.131001     -21.269737      3.1686063     -18.101131      478.89741    
        24   95.793742     -21.258417      3.1574898     -18.100927      488.06866    
        25   95.44324      -21.246464      3.1459368     -18.100528      497.67017    
        26   95.07963      -21.234221      3.1339517     -18.100269      507.58516    
        27   94.70305      -21.22135       3.1215391     -18.099811      517.9258     
        28   94.313646     -21.208193      3.1087039     -18.099489      528.5754     
        29   93.911577     -21.194246      3.0954511     -18.098795      539.70296    
        30   93.49702      -21.179851      3.0817868     -18.098064      551.19127    
        31   93.070134     -21.165009      3.067716      -18.097293      563.03796    
        32   92.631092     -21.149556      3.0532446     -18.096311      575.29706    
        33   92.180093     -21.133327      3.0383791     -18.094948      588.02275    
        34   91.717329     -21.116664      3.0231258     -18.093538      601.09745    
        35   91.242971     -21.099738      3.0074903     -18.092247      614.46058    
        36   90.757188     -21.082553      2.9914782     -18.091075      628.10889    
        37   90.260179     -21.064606      2.9750962     -18.08951       642.21109    
        38   89.752166     -21.046071      2.9583514     -18.087719      656.70598    
        39   89.233365     -21.026952      2.941251      -18.085701      671.58974    
        40   88.704013     -21.006918      2.9238029     -18.083115      686.97283    
        41   88.164308     -20.987322      2.9060135     -18.081308      702.39338    
        42   87.614447     -20.966988      2.8878893     -18.079098      718.24795    
        43   87.054668     -20.946257      2.8694382     -18.076819      734.418      
        44   86.485181     -20.92564       2.8506672     -18.074973      750.72753    
        45   85.906247     -20.903457      2.8315848     -18.071872      767.74434    
        46   85.318135     -20.8814        2.8121998     -18.0692        784.89094    
        47   84.72107      -20.858968      2.7925197     -18.066449      802.33423    
        48   84.115321     -20.835663      2.7725534     -18.063109      820.24109    
        49   83.501163     -20.811996      2.75231       -18.059686      838.43428    
        50   82.878847     -20.788311      2.7317976     -18.056513      856.79409    
Loop time of 0.0749797 on 1 procs for 50 steps with 256 atoms

Performance: 57.616 ns/day, 0.417 hours/ns, 666.847 timesteps/s, 170.713 katom-step/s
94.0% CPU use with 1 MPI tasks x no OpenMP threads

MPI task timing breakdown:
Section |  min time  |  avg time  |  max time  |%varavg| %total
---------------------------------------------------------------
Pair    | 0.0047905  | 0.0047905  | 0.0047905  |   0.0 |  6.39
Neigh   | 0.0090318  | 0.0090318  | 0.0090318  |   0.0 | 12.05
Comm    | 0.00061855 | 0.00061855 | 0.00061855 |   0.0 |  0.82
Output  | 0.060329   | 0.060329   | 0.060329   |   0.0 | 80.46
Modify  | 0.00013151 | 0.00013151 | 0.00013151 |   0.0 |  0.18
Other   |            | 7.874e-05  |            |       |  0.11

Nlocal:            256 ave         256 max         256 min
Histogram: 1 0 0 0 0 0 0 0 0 0
Nghost:           1792 ave        1792 max        1792 min
Histogram: 1 0 0 0 0 0 0 0 0 0
Neighs:          17421 ave       17421 max       17421 min
Histogram: 1 0 0 0 0 0 0 0 0 0

Total # of neighbors = 17421
Ave neighs/atom = 68.050781
Neighbor list builds = 50
Dangerous builds not checked
