ITEM: TIMESTEP
0
ITEM: NUMBER OF ATOMS
2
ITEM: BOX BOUNDS pp pp pp
0.0000000000000000e+00 3.0321975749415837e+00
0.0000000000000000e+00 3.0321975749415837e+00
0.0000000000000000e+00 3.0321975749415837e+00
ITEM: ATOMS id type xs ys zs
1 1                     0                     0                     0
2 1    0.5000000008341172    0.5000000008341172    0.5000000008341172
ITEM: TIMESTEP
100
ITEM: NUMBER OF ATOMS
2
ITEM: BOX BOUNDS pp pp pp
0.0000000000000000e+00 3.0321975749415837e+00
0.0000000000000000e+00 3.0321975749415837e+00
0.0000000000000000e+00 3.0321975749415837e+00
ITEM: ATOMS id type xs ys zs
1 1 -0.008660093109565037 -0.008660093109565007 -0.008660093109564941
2 1    0.5086600939436821    0.5086600939436821    0.5086600939436819
ITEM: TIMESTEP
200
ITEM: NUMBER OF ATOMS
2
ITEM: BOX BOUNDS pp pp pp
0.0000000000000000e+00 3.0321975749415837e+00
0.0000000000000000e+00 3.0321975749415837e+00
0.0000000000000000e+00 3.0321975749415837e+00
ITEM: ATOMS id type xs ys zs
1 1 -2.805673195388493e-05 -2.805673195390101e-05 -2.805673195360313e-05
2 1    0.5000280575660709    0.5000280575660709    0.5000280575660706
ITEM: TIMESTEP
300
ITEM: NUMBER OF ATOMS
2
ITEM: BOX BOUNDS pp pp pp
0.0000000000000000e+00 3.0321975749415837e+00
0.0000000000000000e+00 3.0321975749415837e+00
0.0000000000000000e+00 3.0321975749415837e+00
ITEM: ATOMS id type xs ys zs
1 1   0.01512034636180408   0.01512034636180393   0.01512034636180411
2 1    0.4848796544723132    0.4848796544723131    0.4848796544723126
ITEM: TIMESTEP
400
ITEM: NUMBER OF ATOMS
2
ITEM: BOX BOUNDS pp pp pp
0.0000000000000000e+00 3.0321975749415837e+00
0.0000000000000000e+00 3.0321975749415837e+00
0.0000000000000000e+00 3.0321975749415837e+00
ITEM: ATOMS id type xs ys zs
1 1 -0.0003893782158707947 -0.0003893782158703196 -0.0003893782158708453
2 1    0.5003893790499883    0.5003893790499873    0.5003893790499876
ITEM: TIMESTEP
500
ITEM: NUMBER OF ATOMS
2
ITEM: BOX BOUNDS pp pp pp
0.0000000000000000e+00 3.0321975749415837e+00
0.0000000000000000e+00 3.0321975749415837e+00
0.0000000000000000e+00 3.0321975749415837e+00
ITEM: ATOMS id type xs ys zs
1 1  -0.01018880648707583  -0.01018880648707662  -0.01018880648707579
2 1     0.510188807321193    0.5101888073211935    0.5101888073211922
