ITEM: TIMESTEP
0
ITEM: NUMBER OF ATOMS
2
ITEM: BOX BOUNDS pp pp pp
0.0000000000000000e+00 3.0321975749415837e+00
0.0000000000000000e+00 3.0321975749415837e+00
0.0000000000000000e+00 3.0321975749415837e+00
ITEM: ATOMS id type x y z fx fy fz
   1 1    0.00000000000000000    0.00000000000000000    0.00000000000000000    0.00000005120123792    0.00000005120122788    0.00000005120125162
   2 1    1.51609879000000003    1.51609879000000003    1.51609879000000003   -0.00000005120123819   -0.00000005120122869   -0.00000005120125253
ITEM: TIMESTEP
100
ITEM: NUMBER OF ATOMS
2
ITEM: BOX BOUNDS pp pp pp
0.0000000000000000e+00 3.0321975749415837e+00
0.0000000000000000e+00 3.0321975749415837e+00
0.0000000000000000e+00 3.0321975749415837e+00
ITEM: ATOMS id type x y z fx fy fz
   1 1   -0.02625911332559142   -0.02625911332559133   -0.02625911332559113    1.06475587551205830    1.06475587551206008    1.06475587551208783
   2 1    1.54235790332559075    1.54235790332559075    1.54235790332559053   -1.06475587551205852   -1.06475587551206030   -1.06475587551208850
ITEM: TIMESTEP
200
ITEM: NUMBER OF ATOMS
2
ITEM: BOX BOUNDS pp pp pp
0.0000000000000000e+00 3.0321975749415837e+00
0.0000000000000000e+00 3.0321975749415837e+00
0.0000000000000000e+00 3.0321975749415837e+00
ITEM: ATOMS id type x y z fx fy fz
   1 1   -0.00008507355459136   -0.00008507355459140   -0.00008507355459050    0.00344450244791306    0.00344450244792429    0.00344450244787866
   2 1    1.51618386355459078    1.51618386355459078    1.51618386355458989   -0.00344450244791245   -0.00344450244792496   -0.00344450244787980
ITEM: TIMESTEP
300
ITEM: NUMBER OF ATOMS
2
ITEM: BOX BOUNDS pp pp pp
0.0000000000000000e+00 3.0321975749415837e+00
0.0000000000000000e+00 3.0321975749415837e+00
0.0000000000000000e+00 3.0321975749415837e+00
ITEM: ATOMS id type x y z fx fy fz
   1 1    0.04584787757053914    0.04584787757053868    0.04584787757053923   -1.86275232396454271   -1.86275232396451984   -1.86275232396457513
   2 1    1.47025091242946115    1.47025091242946093    1.47025091242945938    1.86275232396454182    1.86275232396452051    1.86275232396457513
ITEM: TIMESTEP
400
ITEM: NUMBER OF ATOMS
2
ITEM: BOX BOUNDS pp pp pp
0.0000000000000000e+00 3.0321975749415837e+00
0.0000000000000000e+00 3.0321975749415837e+00
0.0000000000000000e+00 3.0321975749415837e+00
ITEM: ATOMS id type x y z fx fy fz
   1 1   -0.00118067168189850   -0.00118067168189706   -0.00118067168189866    0.04780315084004272    0.04780315083992088    0.04780315084000847
   2 1    1.51727946168189920    1.51727946168189609    1.51727946168189742   -0.04780315084004300   -0.04780315083992075   -0.04780315084000757
ITEM: TIMESTEP
500
ITEM: NUMBER OF ATOMS
2
ITEM: BOX BOUNDS pp pp pp
0.0000000000000000e+00 3.0321975749415837e+00
0.0000000000000000e+00 3.0321975749415837e+00
0.0000000000000000e+00 3.0321975749415837e+00
ITEM: ATOMS id type x y z fx fy fz
   1 1   -0.03089447432166040   -0.03089447432166281   -0.03089447432166027    1.25331109348598924    1.25331109348610670    1.25331109348593950
   2 1    1.54699326432166018    1.54699326432166195    1.54699326432165774   -1.25331109348598835   -1.25331109348610603   -1.25331109348593883
