108
Lattice="10.9559999999999995 0.0000000000000000 0.0000000000000000 0.0000000000000000 10.9559999999999995 0.0000000000000000 0.0000000000000000 0.0000000000000000 10.6289999999999996" Properties=species:S:1:pos:R:3:forces:R:3 stress="59659.4870064615752199 -27090.0435854652569105 -16362.3212049453250074 -27090.0435854652569105 71305.2768444577668561 17463.7895050825427461 -16362.3212049453250074 17463.7895050825427461 46610.1735938445417560" pbc="T T T" energy=-1012.3968606035413131
Hf    1.780294033664912012326908552    1.873028421303749802007132530    2.429124599930903460887066103    1.300321234194905972714195741   -7.769030155255301828276515153    0.633081031358325718727542153
Hf    3.997274667090786604006780180    6.997070094736238310417775210   10.398836390111361183130611607   -2.590962622208546672908369146    1.358579348924728424918839664   -1.323463316503239450838691482
Hf    5.286989211125842302863020450    5.733854278494301404123234533    2.101847980933893911270615718    5.163235281455753167278999172   -0.253452420167368686065856309    2.143448299086759156750758848
Hf    8.757264605692354209054428793    5.212828526707947496277029131    8.191011800699987688290093502    1.102585288980588718033004625    1.250687362450197070984359016    0.801048937476012357095100924
Hf    0.465657754129587708735726892    6.805438151701066473719947680    5.364138164510094064496570354   -2.472929072134836925300760413    3.094456617403863241122508043   -2.216189368676663828949813251
Hf   10.619131586222268381902722467   10.757472725634000809691315226   10.448769944771381545933763846    1.208232996181950902325752395   -1.406690945969182982011602689    1.859670457894500472662002721
Hf    6.828487018851970624666591902    3.650847234034031441041179278    4.885388251582472918244093307   -2.785270180819058527532661174    1.771781996403355652347499927    0.731232123380338716600590487
Hf    7.290657831717112458136398345    7.023593556041304530879187951    5.474080162989418241181738267   -0.351701832148571646996515483    4.122282184503014867971160129    1.696835703088166669161296340
Hf    1.803486175753445497349503057    4.911072953265022356106328516    2.205511419848084742056926189   -0.602316559955928143565984101    7.838687720600665542747265135    0.249635629660723334932725948
Hf   10.725554379186233333598465833    3.487549311018231623648944151    5.328943941192791911021231499   -1.652912188920477198905700789    5.186542317476482644167390390   -2.209821884894410892741234420
Hf   10.725629205096959495335795509    3.498846150550859679384529954    0.231347543604873667755228439   -3.693959895610320565140227700    2.758333361054224219799380080   -2.985262664228846674063788669
Hf    1.459890774245902189676371563    5.120311444960957913963284227    7.845064407319097377069283539    0.283600478503733932633679160   -2.195331693300894393416911043    0.123291211395649302762222987
Hf    9.487228609198494311272042978    8.973708433633261094541921921    7.650663885511373329961770651   -0.279012363083684267195394568   -1.274257615996521320056444893    1.901744300132784948331732267
Hf    1.098997954695567491611996047    1.681448684396008808050737571    8.040870370172561010235767753    3.507863199466422443606461457   -0.100565039599827626970451888    2.154742123403665665648532013
Hf    7.260635320225723887688218383    7.043995294073722490679756447   10.177818926438751745422450767    2.488966067355927513915503368    1.925143054453519297908314911    3.613126202300930955857438676
Hf    9.496519001860846742602006998    8.966139065049109291294371360    2.367228704449543918997278524   -0.287929311432833179296153503    0.084881501708368833902795814    1.302127717704243847762768382
Hf    6.148430852026913306929145620    9.176177888641284141613141401    3.035823816750117920548746042   -3.901230363387455213342036586   -3.603488129367025560867432432    0.774293203034517985017259889
Hf    5.607205269689147009160024027    8.885771321103435482768873044    7.810610130693929953338283667   -0.529551219694438302099115390    3.414275839853256222511390661    2.346993263354133496534359438
Hf    0.231333426467067088116991158   10.831496503089496741267794278    5.090364230334434303415491740   -3.137958471761645995457001845   -0.274257811348968427722638808   -1.626754479310746237530338476
Hf    3.401598569841292718507475001    3.079008956536864349828874765    4.886351151002064518991119257   -0.899105665369598128222605737    1.781848971390806335435286201    4.173618451305967980147215712
Hf    0.226843802558043067252313563    7.057552237741226086598089751    0.114496447356702141240347714   -0.059390927977165830498051946   -0.056753913989416759910966448   -1.270670955896133547113890927
Hf    1.949489829267536222801027179    9.022877433841284045001884806    8.238054011710820745406635979   -3.822103872461938944837811505    1.150068982622190150166829881    1.188005578049944110929914132
Hf    6.946699308333188049857653823    3.407377098433077122763279476    0.050547012371767424676605174   -0.034034808207270013380441043   -1.252695948025800198877277580    1.040731227067871689229150434
Hf    9.135745286870601944428926799    5.487332306944391113745496114    2.775531107671691533056446133   -2.738230604985601779333137529    1.031154438184516575205407207   -1.231132690839806809179890479
Hf    3.490664582458874676262894354    6.930671083285162126230716240    4.793342241527965619241058448    2.093418222114074023210150699    2.642847998202441317516786512    0.569377099249728901853018215
Hf    3.515683208900629797000192411   10.950295283459695383498910815   10.501450456107665587524024886    1.113184994890267676126427432    1.384722449009840428146844715   -3.627651443424158017592162651
Hf    7.309262314608311328356649028   10.724417837153243482362086070    5.473995537291583168837405537   -1.911962702731230701047593357    0.062484997518030466201466311    0.880969991948978403684122895
Hf    5.429082715783617452132148173    1.180548544681715661397447548    2.337408941825673824865816641   -4.303257069016184210852316028    0.410168663759472584828813524   -0.839332480480162512748165682
Hf    4.999293349912718120720001025    2.164052350621682663245337608    7.757562473900863508902148169   -0.795332604308709334439697614   -6.485066993778112909296851285   -1.566548843123104273189483138
Hf    2.353591109141591086739708771    9.022876810502451050410854805    2.435773794163520467037642447   -1.310686278130476667413972791    0.560546239051737504865968731    0.487071864142253452278907844
Hf    3.117639452061353289025191771   10.930814429403081788905183203    5.751741360820648907292707008    5.575360801004652699930375093   -2.952122535914283307789673927   -0.216561066868667384532898268
Hf    3.702006988549092714180233088    3.459733107695859732899634764   10.159850256862743123065229156   -5.453670168978413279603500996   -1.331517804544326333271442309   -0.108955079727839687642187982
Hf    7.085635030271638434840042464   10.852855161030198871685570339    9.722094676418425507335996372    0.478416591755765896465391052    0.131989802477310291806134046   -3.980883353244679234705927229
Hf    8.795117043091549291489172901    2.112519062103042521982843027    2.763647540877447905671715489   -0.258132991158427471667380360   -3.804651550425032890956345000   -1.850607182782247450703039249
Hf    5.336046741374271817903718329    5.408648033488039352789655823    7.887408550463579359757204656   -2.871852931448616530474282627   -3.594543200504160651576057717   -2.334421167868902635689210001
Hf    8.816569309856287617321868311    1.646737718851380316564814166    7.428715949605843249514691706   -1.258562013476848928661411264    0.340943206376258522993794031    0.828089043003002345244567550
O   10.348443404909309251138438412    9.216772644890381727122985467    4.186140810807081891198322410    1.466850032352597477114386493    2.547527621396935337827471812    0.866017298689295444980018601
O    6.046644127061613360751834989    7.170243656037273538572662801    3.841965579170721678536892796   -0.357277596479208814361783197    1.852680132808186774795444762   -1.502685369617492439076045230
O    0.348305678341393976094053642    5.345952920166299193738268514    4.102366742584145242744853022   -1.880756513883102165607397183   -2.330793020785445257558876619   -2.587474712663797138390009422
O    0.581145505236362325263144157    2.153232420531267621299775783    4.435496556443207616382551350    1.654905750160411415095040866   -6.994201429997076502331765369   -5.116870203149572304823777813
O    1.773620189191590368338324879   10.220801842825499861078242247    4.091902724104159005946712568    0.669786671913620845764114620    0.737267525847404847638699721    0.467363439744527542352159344
O    0.423785417994092694637942031    0.273858293954509612877501468    1.676304002415919480739603387    1.663553473543242455789936685    0.947033655303109567213937225    2.576961242410829022730922588
O    2.930881242509657980122028675    4.845420777993306060693612380    0.607603727539786087064044295    0.962487270264393623975252012    1.851552027086021068313925753    0.601531713956558800049378988
O    0.192357866125847515315072656    1.727979793205828507041132980   10.590286969392266769318666775    0.284453332067340136646294013   -1.514584576514622193954551221   -2.813621043408976785116237807
O    3.197164292541601948727247873    1.500660830437278381310761688    9.292689331908466243703514920    0.400188800572575886782544785    2.210517782520828866665851820   -3.025061818056328455384118570
O    5.193392162099847553236031672    0.285124198836091691244831736    6.464464075511459739686870307   -0.924717818340955788336543719    0.757799152333738512687943967   -1.993216512152635733201577750
O   10.593781877968444504745093582    2.064698057255279994848251590    6.575763473032361972059334221   -0.632526125853375420504676185   -2.530973273156338798628439690    3.991889420212337391546952858
O    8.750125046921134241983963875    3.403079831912890096390356121    4.240987161384516035411706980    2.273267470479916063652581215    1.130421058691910562998828027    0.433549398323712753544612042
O    0.294349305516282133687866462    8.156035069582067364990507485    1.890471779550343622844366109    0.117433741555217352470208425   -0.350078971853121645452233679   -1.392025549978353149427334756
O    2.234169269465634766191897143    7.514850240218490462495992688    9.355423844668061761353783368   -1.090625116150251372459933918   -0.624645940207515737441212877    1.120793833755689972164759638
O    1.011433021292715839223319563    3.317432435622000852504243085    1.682179869279730954900742290   -3.454787563246079606926741690    0.094086499475654505886268453   -1.651512918149892650276910899
O    3.833136271749649992557351652    5.731346372503032249312582280    3.320009413416103338789753252   -2.564540742728847355635934946   -0.473689974719734008257177038   -1.906564827952438090363784795
O    3.214669564807024038088911766    4.979177594601928547035640804    8.608674472437257918500108644    4.649760237435937249017570139    2.994771390330511540156521733   -0.842567152591296442132318134
O    5.521125421567237623321489082    5.320907861116312531635230698   10.606018754744964027736386925   -5.343439602224290041476706392    3.029717858338292657549573050    4.170788277079932271362849860
O    9.103655723613822914330739877    6.512882380877679899811028008   10.095084919031686254697888216    2.669926822566060398145282306   -0.438336728480490211978803927   -4.394205527110242925914462830
O    3.424130599706664668246958172    9.125102055605275097605044721    7.080536429016719424112125125    2.564418926667427101051544014   -0.904364449940660897198085877   -1.228812054230053352199547589
O    1.345479584039849685339618190   10.864748504675986850998015143    9.161001901622437770811302471   -0.644875315726080255984697942   -0.342055862620619044456304891   -0.864261755586826052599747072
O    7.311835634271051098664884194   10.323172091408068240525608417    7.642013013407384924846610375    1.933296652957889438795291426    1.941522906560366079631307912   -3.469832218492922670805000962
O    5.931184659028201799912949355    0.057604196828149212272762725    3.900204975286010622426147165   -0.049402413692403307488021369    0.282020136692530953848034869   -0.472740590824840933859007919
O    6.525194006381751066214746970    0.229755942531688128749323141    0.792155600289251249357391771   -2.546782635425289598174458661   -1.119497172330378598203992624    3.451710730599100163118464479
O    2.926347127608269982346200777    2.093453771595003232164344809    0.867390891382396000963694860   -2.824269748611312635944159410   -1.899420691804936556223992739    2.474653702057046267270834505
O    3.014748206076876435588474124    1.849932030972222252174219648    6.477912006848411508030949335    0.941189376113842679494325694    0.823251489106557432506861005    3.473233169153433497200467173
O    5.218688403305528744624552928    0.398609515680454384867203999    8.774910216879369784237496788    1.909779251811564826368794456   -0.595181525546008893812199858    2.891104633660576350706605808
O    9.113496424386527294814186462    9.281534205644071278129558777    0.374086996293901352661492865    0.165271476148675100503737667    2.115267578011324811626536757    1.038234184406580107307149774
O    2.458735066127214707876191824    7.206307192995079269337566075    1.067172782695122501550599736    0.519547631539951204615590541    0.434451247072885682332099577    1.670226710218031263011084775
O    3.132128775950901999891584637    1.264097932066421625663110717    4.303271240014397314155303320    1.016649209715025037326086021    0.940150162930433186403433865   -5.014285853622592270539826131
O    4.913935838061608940563473880    2.545454841459686701199416348    0.620194627245577057017555944    6.854144200189686841895309044    0.115600116413007047988514842    1.389876465296641772084740296
O    9.005048721532860511729268183    7.103565500085092132565023348    6.722410719676660484367403114   -0.297833105999952219011817078    2.465842734152412951686983433    1.381574795345912765043294712
O    1.558937986055220825676315144   10.914020017004835594320866221    6.940793109476670608160020493   -2.419050553567521077980018163    0.092638330932477752632792090   -2.943338817926456130180667969
O    2.107879363082115098393387598    5.840505282312827617374750844    5.788120891168045289987276192    0.325350556170905136355031573    3.142111116824310101947048679    2.453918816302926408923212875
O    8.134033236955009016355688800    7.020054124928608807465479913    1.417282005935444733069061840   -0.335289570354421195830241231    0.166464543572857198716619109    3.105141808373741429960546157
O    9.601875393496085209221746481    0.623200907396571412988350858    8.744669750862620105635869550    2.175217201151914636625406274   -3.429034565883968710409135383    3.730192231255133883394137229
O    1.481597527168359684779375129    3.824229652838965876071597449    6.125621217549202413010789314    2.324798816852973182278674358   -0.968137774238119863667861864    2.454173966401399731296351092
O    5.213660566715605071408390359    3.677292845755871120161373256    8.954167551690925819229960325    2.524907810477307279484193714   -0.682559139677064496964931095   -0.701677338137831396736032730
O    6.897508194434003314654546557    2.190268016122753902408248905    1.968894440444528104450228057    5.178505210267466907225752948    2.167963293207320507605118109    1.074340848457118413605826390
O    7.922676029576629197492820822    9.476428777408406389781703183    3.728851427734888535070467697   -0.928634414109251182800619517   -1.544723275792438510478632452    0.225569806281447932105876930
O    9.647653264418474705621520116   10.557047427083938728742396052    6.400368913005187287978969835   -1.707298125798988319701265937   -0.692933743499134946475237484    1.417589021534421789283442195
O    3.712350988237770099686940739    6.295617822588684298068528733    8.476289248196490433429062250   -0.699092211169821897698284374    1.685842339927932753695927204    0.022491425755032851130366112
O   10.790236254280113570303001325    8.598012010516470127186039463    9.434538947062815594790663454   -0.332929273848729501139587228    1.074748126258676661493041138   -2.023722434664700475792642465
O    7.398405798517898368515943730    1.873395178897372170823132365    9.172241995892573385162904742   -0.536833792858815272985850697    0.595522478454747483667119923    0.909109903187442558447628471
O    7.561255004849413374756750272    8.800508943024455632553326723    9.038997862648351144798652967    0.483951849196485650583809957   -1.566344618369633012733288524    1.406287883055599818860059713
O    7.265282221386226702009025757    2.294159196362806518720844906    6.470174280429465518693632475   -0.107708335521500025988572702   -0.392522346432651159098270455   -1.911986708964650505393478852
O    9.201082806521926116261056450    7.091639097371578159823002352    3.870174297920159212083035527    0.371556912700691077677817020   -0.096484317767343563687632013   -0.248706356639184278378706949
O    4.900355197743194501924790529    3.521445786065002359066511417    3.834065930714201542173213966    4.137302266773740022642869008   -1.063944205132033804517277531   -1.275912234656406019084329273
O    9.705702561894614888160504051    0.524711372571782241891469312    1.892756660658343248471169318   -2.900050407135964292137941811    0.212633550755228606377045253   -0.305816523452016486572802023
O    5.263856960652383953913613368    8.121328136507177219982622773    1.510778287223297988717263252   -0.387433833612317035655081554   -2.228069084096476082379467698   -1.722391699914050722242109259
O    5.320689662185263735239004745    3.470293751436685170119744726    6.379019810324815686897181877   -1.964296772741683128060685704    1.299732837879887581422622134   -1.154215092297645961494367839
O    1.981174011762042885820278570   10.137277931734875124902828247    0.565553869258198171898754936   -0.108858800838570968227969615   -4.030443814557997050940230110    0.781334429025304810778607134
O    7.114618116810121684068235481    5.102721257089099182735481008    9.724734083757040181694719649    4.302677650957080324189973908   -0.929003011312786508568706267   -4.002073476092077086718745704
O    4.685207202528174796896109910    5.836290637801281100394135137    5.815442485855054854937407072    1.422094606696088225916696501    0.710453403089987389762427483    2.947494608090991619064880069
O    6.079216654999136437709239544    8.858482350819473438718887337    6.058222749583533683903624478    2.785584053271895399461755005   -1.911880050972309064150067570   -6.581905805267872722197353141
O   10.157980950484787996401792043    4.879480871844916300972272438    6.598354676019688724863954121   -0.456851258028508344644080807    2.431194984860285401850887865    3.210318449921520489453996561
O    0.484860151841855158139082960    8.306671505248953479849660653    6.930824155747258963344847871   -0.089555008247039158408853154    0.049535014523441028844175094    0.006750056403656029546667128
O    1.696956531082400188026326759    7.727442843838796981970062916    3.999520030401132242303674502    0.319924837130499739590305808   -1.363918151688903401819175087    0.465382160301900826837595559
O    4.068135845732185451595341874    9.088967738248161509773126454    4.248835549553972690262071410   -0.043606477147626748758213466   -1.087249012306503281877212430   -1.682015498276039577874030329
O   10.795326995654518142941924452    5.280023413956683064895969437    1.384222189639888744849827162   -0.225852135903021888907460379    3.170040364887901418455840030    2.969720600468044757747065887
O    4.749138601298565021124886698    9.163447711693734731852600817    9.500926707346868838044429140   -3.499229295649510795840342325   -0.663585261462033337842569836    4.630031727143677500180274365
O    2.305603061525286268107493015    3.555487215405800593970297996    3.322663986110706346721599402    2.720477266076781308612453358   -0.836560953021630027137689467    3.735574332604902014765002605
O    0.441380557195858835850543755    5.060425996957091498984482314    9.836643592495169841072311101    2.093762431950198177332822524    3.151252625138042162689089309   -3.450197518096839388590524322
O    7.100430254674468422138033930    4.594373134131794600421017094    2.382291227258468424565762689   -1.946630337957600431764149107    2.070024082020855082930665958   -0.167654150718655914342747337
O    8.949472278582017992221153690    3.560138885003362396730608452    1.289576822029529612478881972    0.601169343021726421127937101   -0.758358125845073449688982237   -0.222002798645427240620264797
O    8.621559208738117874304407451    0.770688237952417254383874479    4.425577533441936495250956796    0.292232800370204826023723399    2.142655759017821903711364939   -0.051131720193791196926724751
O    7.561547290992003844678492896    5.521309673138020457372476812    4.691238928209600089758168906    1.021730166575036680143284684   -7.872991655159752077963730699   -2.547716570697700078085290443
O    3.912150970342783917743645361   10.869985247341549694510831614    1.727448021250376664070813604    1.957822958809176672190233148   -0.939696647834777576413500810    3.499162586421566523142701044
O    7.090303417139268482571878849    5.262820400737567183568899054    7.057410846199088538810428872    2.597219229492207404064174625    0.160184943134786872409591751   -0.921267613951994523979749374
O    9.337157122651051466277749569    3.690098735742696423045572374    9.240113721211029584878815513   -0.545394666399269811840611055   -1.414079158434286220824560587   -1.914132847492958422463971146
O    1.935296067538945674613160008    3.390878226021384111987799770    8.770431907297448148597140971   -4.897473084063200587934261421   -3.771579355093543028942804085   -0.681362452490990588849228971
O    5.952188164785608748275080870    7.084378969360481725914269191    8.617180469807806275639450178    0.077577920820982956828792965    0.819441721738668915619996369   -0.370005389899407288734067834
108
Lattice="10.9559999999999995 0.0000000000000000 0.0000000000000000 0.0000000000000000 10.9559999999999995 0.0000000000000000 0.0000000000000000 0.0000000000000000 10.6289999999999996" Properties=species:S:1:pos:R:3:forces:R:3 stress="64328.8291121212314465 -27369.0324331707306555 -16110.6297567328892910 -27369.0324331707306555 72117.9485726090206299 16220.8008845836411638 -16110.6297567328892910 16220.8008845836411638 47997.5735071587696439" pbc="T T T" energy=-1012.1037774240878662
Hf    1.776466456014455630452175683    1.881722998106232225268286129    2.425181077384636729732392268    1.696908248130101881656628393   -8.875294725860189970489955158    1.022888085682761349914926541
Hf    3.997819301237763411904779787    6.995320324432975134243406501   10.401075056938402951800526353   -2.139628998765751077826280380    1.308091143773275177863979479   -1.462999997336154489602222384
Hf    5.289921049529184848836393940    5.731183980205859285206315690    2.106823072940081420512115074    4.889745199229235339544175076   -0.089289779175113048736989185    2.357207114811435744172740669
Hf    8.752360750048664428391020920    5.206512777808957714853477228    8.196509236712463675189610512    1.038531598762523655565814806    1.503913546725097472034349266    0.440630659192048246275419388
Hf    0.472743042102264754422691340    6.798084068351280428998961725    5.360174783446065127634483360   -2.813244730235750168390040926    3.382931142361493837000807616   -1.968989574755878546596932210
Hf   10.618386721897852709162179963   10.750864368123792758069612319   10.453103848891236893337008951    1.002677891673758647783643028   -1.523515473320855795336115079    1.940555655381281496829615207
Hf    6.828435907958395389982797496    3.650638194321375706863364030    4.883601666968908183719122462   -2.811613910807940985847608317    1.839211308472513461964581438    0.821789986878811551385126677
Hf    7.287725920175870619743818679    7.024487501732681771215993649    5.481418098829389684567559016   -0.396079265327965002185806043    3.996413735214846330023874543    1.479242820630504384737946566
Hf    1.805807314356162596169497192    4.923564680681626448688348319    2.209278696513762518804924184   -0.391069453637916564225918137    6.961344809154817347973676078    0.296187334844318972404408896
Hf   10.725812658557362766487131012    3.481650474169933229262596797    5.328772943883072876758433267   -2.366895828817273006450250250    5.368860847222206800211097288   -1.872331006550710608138388125
Hf   10.716115731541611566512983700    3.503292906910959736421773414    0.230981104256852448619596885   -2.859232096475358808618238982    1.624825637622794083370081353   -2.639206547483600395764824498
Hf    1.461666176110951287370198770    5.121896645510735091022525012    7.847343290678816529748473840   -0.788734376640368606281583652   -1.479171068900185348482523295   -0.517016415252560257442837610
Hf    9.484952365815260577619483229    8.974166252137917965114866092    7.644975506271627807564073009   -0.081490679600272786231585087   -1.117361302794741773070086310    1.799084434253899411615407189
Hf    1.105916193702009442390021832    1.677531073816000306564433231    8.048912509711970031389682845    3.236074291025404114918728737   -0.168699256591128443627525257    2.000426660583879634458526198
Hf    7.263896656628182846304753184    7.043742440773805846276900411   10.177790924201605804455539328    2.440071315163558018923595228    1.664345699248595433772379693    3.662031816281571927618188056
Hf    9.493189390645696335013781209    8.972133018037382612419605721    2.366951513294091480332781430   -0.401613759803069347853465842    0.232527041423392089036781272    1.343439763547789489450678957
Hf    6.152588219863322827052343200    9.174866750088529698814454605    3.037061005355472964595264784   -4.000719760672927449718372372   -3.538683060178799522077497386    0.598752635483163597740485784
Hf    5.609054923762316846591602371    8.886193350751554476119054016    7.808675796655753842401281872   -0.658782335549136122132551918    3.358214949214114675157816237    2.660135584283760401547169749
Hf    0.235127554185037529466129058   10.835166795408078144191676984    5.090242183133708131492767279   -2.875816421864192395929649138   -0.475140771387247973223111330   -1.785067698401806568497818262
Hf    3.407539900580293767973216745    3.075332608578373427832275411    4.888614087128683394212202984   -1.049121014172680332876552711    1.710787373752277407135125031    3.918482906349918692967548850
Hf    0.237796926358871202333844508    7.058779847268359830536610389    0.103215188925981568579537395   -0.322093219812604747431805663    0.035793642817865012339950681   -1.222582327195769202887731808
Hf    1.956923345962763960415031761    9.027470512538441127503574535    8.237095613114002290444659593   -4.208019252244675989516053960    1.204315981330896123679963239    1.098388595460554784111195659
Hf    6.947344567761165379238263995    3.411892134198205805972747839    0.051622311622033213718285793   -0.135836607427024136374171803   -1.903087080241333106656043128    1.312585201930318579144341129
Hf    9.133867775665217791924987978    5.492179233911506308629668638    2.770783453179680222433489689   -2.750237785187050310042877754    1.275137630313809111726186529   -1.027830018505281106655502299
Hf    3.490931142604194459266864214    6.936761440359427766111366509    4.796969731098196021434887371    2.305652509090056589968753542    2.669495204845599101162179068    0.170701549186737161489801906
Hf    3.504690190568930496795019280   10.944311410621534008669186733   10.488831649094823461609848891    1.298143773600952899371918647    1.253904262439407446549921588   -2.967167549820992622500170910
Hf    7.309475587140656926976589602   10.722731739392084904238799936    5.472296858728699753271484951   -1.966769066850957425884871554    0.180843375753490409607593392    0.704110972540343715841970607
Hf    5.431400780530583283223222679    1.175987542324901546919591055    2.327441178846781255629139196   -4.715010393222049955852526182    0.386558811615429598340654138   -0.992646631852586169841856645
Hf    4.997970868416082623753027292    2.160511634965593064094946385    7.766850828256596450671622733   -0.719227745463043244278367183   -6.580824225249677361659905728   -2.298047062573591148293417064
Hf    2.352889574888589852008635717    9.019224531867907401760930952    2.434178692026217838417778694   -1.126558442179665497917540051    0.721128278943180434090720610    0.694171447620075876550060912
Hf    3.121908258865517815650036937   10.934115567708643013133951172    5.756549791646889957519306336    5.730879924172169737062176864   -3.094335441007903142462964752   -0.229193573176302511917867832
Hf    3.699452181046082088755611039    3.468726827297722081766551128   10.156107023262483934900046734   -5.007116910428597300608544174   -2.102592825655465347267636389    0.364096268666945055425543387
Hf    7.077711845928488010315504653   10.850373318935195854351150047    9.719219514797634573710638506    0.438460402459798004315416620    0.060684929430334655364731589   -3.918391367784307632859963633
Hf    8.789556682305825319190262235    2.118977361298687522861428079    2.769551156725980511907891923   -0.009656388407024873998807379   -4.159905896019999715917947469   -2.012189666366853479928522574
Hf    5.343137951777814365073027147    5.406629967278970383404157474    7.886577560431333289159283595   -2.880973595221095973073488494   -4.166645656151069410100262758   -2.545994279898049938992699026
Hf    8.803258564921161877236954751    1.647944162037374260521005453    7.434707702708595711271755135   -1.494119603832593234926662262    0.358337960959871804078602509    0.731054703670771521828442019