108
Lattice="11.2330799968835429 0.0000000000000000 0.0000000000000000 0.0000000000000000 11.2330799968835429 0.0000000000000000 0.0000000000000000 0.0000000000000000 10.8978100845999926" Properties=species:S:1:pos:R:3:forces:R:3 stress="8407.3664774598819349 23553.8711861270166992 -1774.4001241736407337 23553.8711861270166992 -38722.3361096952212392 -10063.7136258869159064 -1774.4001241736407337 -10063.7136258869159064 -55884.7899882936326321" pbc="T T T" energy=-1023.1929552680420556
Hf    1.798372432088070294042836395    1.401614191267287923281514850    3.065418445192251262199079065    2.170653731897960181385087708    2.084574052183682635330796984   -1.878843480989661696156645121
Hf    3.807811512531187769781126917    7.964555818950460164273863484   10.579709624440344128970536985   -1.846637594086092182266156669   -4.379217678101115396316345141   -0.116952237932907654460734648
Hf    5.356031521848831467025320308    5.191137510491433459947074880    2.533586767915988247068526107   -0.494100229486602038342368814    0.387839292199490870416411781    1.605166145621489182104824067
Hf    8.838482892417191649769847572    5.229976592079232489140849793    8.109468616418290309866279131    0.706334533471624781419961892    3.307815687209511690269891915   -1.331247971755973313889853671
Hf    0.228697825468680171479007868    7.212973876785500948471963056    5.166312401846084867429453880   -0.323059800361098714560625922    0.757949403219554618260644929   -3.854713479820224719674115477
Hf    0.325048540145107978105443181   -0.123324817916942483519981977   10.435564138260186695106312982   -5.931408340931334066681301920    0.422351282006706352234459700    3.665189321885131246148148421
Hf    7.326696890150759422510873264    2.656929954982959252163254860    5.547914739597695543693589570    2.045141004568533205087987881   -2.998971380840195877226506127   -4.244625282450114056587153755
Hf    7.380108604785608150677944650    7.294891587141561828389058064    5.227883267154061819326216209   -2.000345918246612342272783280   -0.786085416322647945186474772   -4.423143174596958715483197011
Hf    1.518708026393654320074233510    5.124344040680371747953358863    2.397034566538851052541758690    2.661658844494501074962045095   -0.574541012496153857824765510   -0.436514643654496770075468248
Hf   10.597823302147673985018627718    3.136557430704633997464725326    4.828952519374765550708161754   -0.761973452183400956627679079    1.802596374860336858603204746   -1.012406094895908603703560402
Hf   -0.086290333305379593453743325    3.351279380876940550137987884   10.752387573200167025788687170    2.306319898183513128486765709    1.779164321679978844059633047   -2.477021862409055863452067570
Hf    0.927960879415893558075367764    5.021698364675368786436138180    7.627859297127967508345136594    0.658692845681304817162526888   -1.218205839334958628938920810    0.842425616103244068177957615
Hf    9.082670153394198919727386965    9.309061965501845392623181397    8.441558150989905584538064431   -6.435278772648123535304875986    4.964485548001136727691573469   -2.179572947808942284808608747
Hf    1.961230112765121713636062850    1.872280835645206309436616721    7.633301353341134465324557823   -3.117197731314154562909379820    1.994950189326370360021201122    3.397143255103879155853974225
Hf    7.409772233368304483747124323    7.210341414477778876346292236    0.400161970157411728266083628   -0.059378982060955459720830163    0.434098561749258593511768822   -2.342100353253547151410884908
Hf    9.254008923388669316523191810    8.890940699044291406494266994    2.757445026432204127075920042    1.573490482090693642902579086    1.566096911433523475309925743   -0.980741796467365478662259193
Hf    5.414338136912160592828513472    8.886032778177366253657964990    2.164304807721491030747529294   -0.693892470453470133762152727    1.756939397189066998095086092    1.666024670999640688862086790
Hf    5.207351810778950707003787102    9.461229073837383651834898046    8.402347335053896415502094897    1.646852548622223189056512638    5.006560637159169324661434075   -1.554517321888696512743877065
Hf   10.697263951034450712995749200   10.682337236650324641118459112    5.464858299006355224491926492    0.559316688345533274961951520   -1.415992837863559117295153555    0.111332214376418603407614683
Hf    4.124181791903059668413789041    3.837860700969828897655133915    5.423076709824552921190843335    1.375168752997545595917472383   -0.464190430543210241776108660   -3.433112876953471115371030464
Hf   -0.036580396431197245710187360    6.903538158174796102173331747   10.479976518394412465795539902    2.215206068963685659412021778    0.696519135685946366720600054    3.965258620256874699805393902
Hf    1.634791570388613335396144066    8.643205848194613238888450724    7.880454121031665870589222322   -0.212447815541595863564339197    3.118447615334155820221440081   -3.024221276265487645673601946
Hf    7.213268588184102547700149444    3.489617791233279309182080397   -0.132099194417108822818818226   -2.820026772041100304733163284   -0.709848421503747384342375426   -5.295706741112100601753809315
Hf    9.065560910636028424391952285    5.207079716118099277366582101    2.671606284583122992160042486    2.734136044457143643882091055   -1.055045216365851024065136698    1.469192543525677407956209208
Hf    3.394421661479904095415349730    7.264444849598247877509038517    5.081518591411201768437422288    6.589656214103958298267116334   -1.070267920361795743744437459   -1.672426722096467033296107729
Hf    3.377302012662909636020458493    0.183105557800850360372635350    0.086522148088668399124046005    1.240943929075157381447525040    0.568718986984296792641657703    0.725330850347616129525363249
Hf    7.095584558433701616309008386   10.566534946313174359033837391    5.531577276844720891801898688   -1.526347103695715023974344149   -0.465727504614691589779340575   -1.391679559681041844498849969
Hf    5.628240717566018069817346259    1.513322422228480901296165939    2.832288144111728023233354179   -1.924314486319316230833464942   -1.298497045195811994133805456    0.967514783025687497008959781
Hf    5.311314415421556134333513910    1.816469446121569353280733594    8.420556607701492168871482136    2.038747446462693346802552696   -2.849945915696066478517423093   -0.802180043920828311776460851
Hf    1.787786555260645116050000070    9.173448109325972765759615868    2.697526786366138740191900069   -2.985800232451629288021877073    0.302843393175171560205427568   -1.877095793106490217994064551
Hf    3.259695814083721998599685321   10.808895134933633741525227379    5.637593237625543096669389342    2.876002931729051859122137103   -1.082455044173588509792693912    1.211084686944280841558452266
Hf    3.481916719826270156801228950    3.765673451954155037668670047   10.389958661812674023394720280   -1.134237693159152460253835670    3.710434228827846681042501586    2.473908346574218874991402117
Hf    7.145325662368872343677139725   10.981670432392109049146711186    0.046113218485612061936507189   -0.738220803322894969511480667   -0.177186755166954146289981509   -0.998086451858719581053946968
Hf    9.077453207741214669113105629    1.459037817396130920499786043    2.073775885310062516708740077    3.082774962045202737925819747   -0.783235102339447264441218977    2.505684362298989942274829446
Hf    5.524756902057114338333576598    5.633268720664166728795407835    7.926630203707868638218769775    0.320268776377866437599095661   -0.295208615423785902809328263    4.526363547543777343662441126
Hf    8.997282001040945331737930246    1.652209302586592487571692800    8.304350961339672210215212544    0.399917173045342466686236094   -0.066386961544005279600710878    2.858813436873625324352587995
O   11.077255394710501690269666142    5.249318048695700511530048971    1.093656400195111455531105094   -1.773878751051217506073953700    0.860842191817256408015168745    1.525439304218089375808631303
O    5.464765994665274462249726639    7.069553610804192977923321450    0.780222443121656117348550197   -2.743623765008023518419122411    0.133021652113200106182233640    2.590756960932768748762100586
O   10.369703765112902260625560302    5.268709264334718866962248285    6.798960683839602836542326258    1.065893351470542205206015751   -0.898178808062252809207848259    0.424077935930718408208406345
O   10.625983234434841051552211866    1.756967085679401519016096245    0.817343232676394526592389411   -0.044564128062118429918214702   -1.319927308973032120675838996    2.443575831020887267897023776
O    1.697906236670083890416549366    0.957012559150682617925554041    9.897131204982063223951627151    3.432891329685310743968784664   -1.705301018671380841595919264   -1.024031484719820417339519736
O    4.056272266498215373076163814    2.187055162040784317412089877    4.064738538327019590212785261    1.072860430172380752367189416   -0.840439327422190296523751840   -0.567939079264742519015385369
O    8.838656049055872543362966098    2.966794094755750954561790422    3.673520530608515244352929585    0.640979926783801223777459199   -0.051752090763095948133809543   -0.619889376989623319680333680
O    1.909387599006931335310355280   10.850196687517517091237095883    4.073539088372238659019330953    0.779509789539199582364403796    0.581953590158800104781278151    0.755347400235398147572141170
O    1.555233249220254743150348986   -0.112499752205812542094065520    1.385541168365256092798176724   -0.274487154009198985882278521    0.094973144467214110076014322    0.024251498720873825715171890
O    9.336369185297668238376900263   10.643572314889258478842748445    1.744220514409203559580419096   -1.008965586624032351181767808    2.856977934080222158996775761    0.485856916931671045656315755
O    2.748182510489847185652934058    3.971789622560366161962974729    6.609655515918556822896334779   -4.586591327173629828450884816   -0.420396121500472896848066284    3.891309646646522679702684400
O    1.550174210150158549126331309    3.509821545021528432783952667    9.268819413553966768404279719   -0.806672128137452038032506607    1.755332324760631390603293767   -3.631141159004986906921885748
O    3.136242178796113666550127164    1.503451146284707329314755953    6.269017487181491432579605316    1.319978436124762399828114212   -0.754075540541902289426445805   -0.829676054476356616973475866
O    7.201252065997253204443495633    6.170500495578991717593453359    6.690376880270499704295161791   -0.488988947896206060939050531   -2.417544619079542655981640564    5.065623782698389199197208654
O   11.054094436774411391866124177    8.505021095409075471138748981    6.662346439519440721710452635    4.688027444129041043652250664    2.545349409845755861425686817    0.029711927038579721838118530
O    3.657148046192106427554335824    5.481135752827571927525696083    4.242477410716976038429493201   -0.176662668965989172464858825   -0.913217705761860898405757325   -1.969201332938492088331372543
O    3.578294972304341570179531118    2.179976718013167502618898652    9.259771393000693961994329584   -0.627752870034619991912450132   -2.163221065966640654920638553   -2.124428037153788029200995879
O    1.179606245342242232254648115    6.960056737402363857825093874    8.533710024583282205412615440   -2.058171059634120947379187783   -2.489213746030395579822425134    1.853662522886381669451338894
O    9.240181045525165615117657580    2.430090883714831839768066857    6.294306815695422940848402504   -1.221558859838201893666109754    1.960973946841608306357329639   -0.439890900249944372113475310
O    5.682241169016655213397370972    3.606465719152730731167366685    8.935437819126256897561688675    0.545111203182490067220555829    4.237206406798081026465752075    0.994141539734508472569984860
O    3.478849862510702717344202028    8.715895341288945274982324918    3.761051912666440344423790521    0.909522717043493189592595627    0.645866894039356931322970468   -0.106147704268257397908215012
O    7.634600577776520680117755546    6.114266493157838766592249158    2.062391953666247612630968433   -5.911075061585266077202049928    0.713809346961014390409161479   -4.626922504897259535994180624
O    1.548688352637234810771360571    7.216034469482321078714903706    3.026301124537406295189612138    0.108175882588345761980974657   -2.069290516694012538323477202    1.393807347435791044176767173
O   -0.121994579377375705897534885    8.943370083249874369357712567    1.139768005073671153226655406    2.201934034786110494508193369   -0.730678888552610539264264844   -0.295977934600821890320787588
O    7.196035854473961101973600307    0.755998714863518883610993271    4.014159857752632731830999546   -0.477659615435448381415284302    3.876982988789389406036889341   -0.445716518668261008073727680
O    4.946495690821446800100602559   10.813498429865619598899684206    4.845467505157635024204410001    1.403777901543926454053234920    0.261969343850560476560929146   -0.319377613927170789231979597
O    4.254598665715247918228669732    5.746077894898714788496363326    6.621922591960012205447583256    0.148447830847922568331398452    1.461904934133312794486414532   -2.106378864332658640279305473
O    2.157256101504533951640496525    6.642103491470617626646344434    0.039281455245547547416862244   -2.634836216977727296750799724    2.380975987912274938196333096    0.960619134949112329913134545
O    9.431098684876328519521848648    7.464484546043562041006680374    6.310891903053352791630459251   -1.282749386974540772854425086    0.745597312198971406971281795  -10.343879150746685624540077697
O    2.123507371223677608895741287    7.213909705911587977311683062    6.413802280682133094558139419   -5.079309140672390476822783967   -0.452387032381113329826405334    0.218118799783579064843763717
O    3.813843438574297639576116126    4.486077274785448487648409355    1.437930273820345883351023986   -0.345987192299376133952648615    2.873719539364070207909662713    2.539035713569743002437917312
O    7.365890705405402805183712189    9.189874113508098574243376788    6.976020949965559658778602170   -0.673434821502517433344792153   -1.475193054339450249301535223   -0.701090087999172939525749371
O    1.410924288921211022795887402   10.744950411780434862407673791    7.171747454594334492128382408    0.477037573274681103718819486    1.034641554044470224127394431   -1.059831833926709432347479378
O    7.927223119217018165727495216    5.549674715582889383824749530    4.136204162352878022090862942    2.047118614708376860278349341    0.699205488363058624834422972    4.470252721456470901273405616
O    4.963638118769969409527220705    0.090141849754003439132432618    7.428680350255034703366163740   -1.834830895169794473531510448   -2.068080937772505567551206695    0.876469933611310647592063106
O    9.857283940396271759709634352    7.040831888916438074943471292    3.217028895531469867563600928    0.218596570595310402129740623   -0.428590138556262156832588062    2.164391211397402869920369994
O    9.021188358736953460947916028   10.294148799157797569137073879    4.718181039985717362128525565    1.448823902893583870366001065   -0.060573936780208337271602659    0.298266894273056248909625765
O    6.155217854270876642885923502    3.985850127477714721635493333    3.912132691173540344209413888   -1.155286496928773498638065576   -2.283393035774085699785018733   -0.651415039748720059442632646
O    8.512035195804216414217080455    3.618126735265782656369992765    8.938200359718418752663637861   -0.183884871668274163525325093   -1.506341280205238497558184463    1.628863708319062464369153531
O    9.364576016272501135517813964    7.482334609424308169423056825    7.492318523616071423987250455   -1.411901151712477764377240419   -2.110317416683616720263216848    9.051380239395184545969641476
O    5.814520837817796383717450226    6.780025440918651113975101907    3.988140685452882472361579858   -1.516568310588208845501867472    1.387266780859634840439298387   -1.048516451058677967367316342
O    3.050200131222523758367515256    9.673355794953442554628963990    9.390760575976546675747158588    0.102026635555039851821490515   -1.730542390467026958589258356   -0.937033321439126543062059227
O    5.174026368559004218639074679    9.449563432135448692861245945    0.135265861406551224366268116    0.718790556562304172594224383    0.219894370119042170674816816   -1.242281137294182880026482962
O    6.969230626203096967685723939    0.894503582066428881702790932    6.606173173303998780170331884    0.756449617691460463042574247    5.346238177480388209517059295    0.869333253218476875723297326
O    4.036245550655597646994010574    8.894137690412593499900140159    6.574450837839726169420373481   -1.541688691788471121668635533    0.709814890940337894775780114    0.521609063415900076066122892
O    3.126850166386614393587706218    8.985903492543434012418401835    1.252113707493696992401055468    1.362907213058991429122102090    0.444255857492262262731230749   -0.098428388114244924622653343
O   10.626285454555480569638348243    5.281775614933242657400569442    9.378938455636724569330908707   -0.929634337113110831296580727   -0.091278971360663374579047513   -0.311012707694592327456462044
O    9.350955296923482151782991423    0.156309506213422433340554107    7.219052837402424316337601340    2.841750101450932319835374074   -5.767463389114452887440620543   -1.863974859875670908593292552
O    5.326225543510846982542261685    0.680655864218357109507451241   10.343118639822055371269016177   -0.446796080730709310735448980   -1.351210388412665164281634134   -0.526298131442498595689016838
O    7.079963635815285094565751933    9.134380430075221823926767684    4.173153225391773801788986020   -0.416028691500379577128398978   -3.614369118287260818078721059   -2.007947941987835438482079553
O    9.268969476127402629117568722    7.303988343102314928501073155    0.644454964240966265975885108    3.137730715942358639125586706   -0.464714597802222129097060588   -2.291091631476890544405478067
O    1.624730292506064266433440935    3.820335730930563222784712707    0.684331751406672461612856750    0.408699197526364743637827814   -0.976401467553863255943724653    1.034012065514015477063480830
O    7.249435877201744204967326368    9.418274508855979831878357800    9.479259197269129799678921700    0.918007489226608353050096412    0.297533272431055983986425417    0.472911588132006510676319522
O    7.045204516565187091714506096    5.933987288050893482704850612    9.669533515935615497483013314    2.206989151439308294300190028   -1.159790600529161386234022757   -0.118333767081172436252956004
O    5.139000726928423468109485839    7.697155217900182755386140343    8.733029702517633552361075999   -0.661938116515797481120841894   -4.179981574607054106706982566    0.535341470169680588853111658
O    8.940281952651611518945173884    0.380761862482695057074977285    9.936209390967302823582940619    0.046260473788664269179093935   -2.171506067224570291074314810    1.857695549094294795722248637
O   -0.086823572120438202714964859    9.100708764593630206718444242    3.865809515502541593434671086    0.248107683948446067212501021    0.667493745180230746427696431    2.600024681299518469757003913
O    5.344599114989178723078566691   10.953148724928462698358089256    2.043453633202640506993930103    0.038881443479303112731315650   -0.811842389711046164002539172    0.409497716377237586105053424
O   10.904693548425498761389462743    1.816655231837953854423517441    9.355825492082068706167774508   -1.996574982579094825752008546   -0.013683812352851321136881779   -2.604024394812795684117645578
O   10.514012243103897148444048071    9.432404684323113741584165837    9.517652988583677142742089927    5.697074895211315492815629113   -0.405185831640994087443630178    1.517827030750142469628372055
O    7.135027605285772622778495133    1.554290163570606786436201219    9.170936178135846716941159684    0.547102867621576338663658134    1.080825516407560193954395800    1.093051712578965162236954711
O   -0.086052919680334363783380525    1.265544773571043890569853829    4.073627981978295231613174110   -0.737944740561160772429616372   -0.161763708452643428792327995   -0.256359092643276831324783416
O    7.305453279213959483229245961    1.298495471486405650196616079    1.546591167921287146569397919   -2.036805133907535925175125158   -0.179085572057726571948421679   -3.070299173169822815054885723
O    3.827016810106346866859894362    5.542919709721803478430501855    9.572705643777307926711728214    1.451653806091435683356394293   -0.994885512387774451070754367   -0.980693251591183368098825213
O    5.918900126610314949004987284    3.362797440508285884419592549    6.516895460066606027282887226   -2.990450031416475695777990040    1.210155146803356229767700825    1.538038593225373951156598196
O    0.524218154152521154109933832    2.901131533541976281753704825    6.171113766561695967993728118    3.787029882251256029945807313   -1.604364692268059666702129107    5.780220117591302830817312497
O    0.526407739715583966599865562    5.328813417003874342015024013    4.534328058906775815728451562   -1.195106006142065302455534948   -0.789160918942837019685043742   -0.607940562208306722880024608
O    7.412915874734221866049210803    8.955528297348928745691409858    1.590636508667783166615095070   -1.292613215831208028916421426   -0.108291636318213008172151035   -0.634726946960773696915225628
O    2.045030889279995989227245445    3.423070345619648513491029007    3.500633421596432093281237030   -3.207549653585826554547111300   -0.932305636023028183601013552   -1.298475542630234347285522745
O    5.607541941200408608381167141    3.302316936221844301257988263    0.821011429052296182184988993    1.029682987152120254847886827    0.155676087868573870265365144    0.969594976152011511771888763
O    3.364157290859944193783803712    1.656039114105233078788614876    1.351758478212757186298631495    0.014751696209637787937651865   -0.533498036616320669978108526    0.766044496923288242840044404
O    8.464444006508916373832107638    3.506494118650898883515765192    1.202389876477933050580304553    3.753372057734725597555325294    0.987606146182998689830867534    1.446686405204918868250274500
108
Lattice="11.2383089746918365 0.0000000000000000 0.0000000000000000 0.0000000000000000 11.2383089746918365 0.0000000000000000 0.0000000000000000 0.0000000000000000 10.9028829948888148" Properties=species:S:1:pos:R:3:forces:R:3 stress="4128.2228221433060753 31175.6364437410120445 -11815.2530340623070515 31175.6364437410120445 -27802.1934706944593927 -13004.1520383911501995 -11815.2530340623070515 -13004.1520383911501995 -55364.6804889523991733" pbc="T T T" energy=-1022.0425093233142206
Hf    1.810264213578887115829729737    1.410296286475875904287136109    3.051304212540151716837044660    2.854023618443155108082009974    0.825374540377046383987647005   -2.360121091535601234312480301
Hf    3.834434227561466013156632471    7.904482076092583575643857330   10.557753632483786176976536808    0.690401609223275647408968325   -1.809205604802529787633602609   -0.424868448511159957359240025
Hf    5.321752698714357521225792880    5.187029553987950514226668020    2.515260829025129929448212351   -0.379680382826914020188979748    1.294227640239624443907473506    1.831513546841540440723861138
Hf    8.801567359160088699354673736    5.221897350342301180603499233    8.140927505448793510822724784    1.776818479884165302706833245    6.884675040713330140818015934   -2.775587822522622261089964013
Hf    0.252662895803879739009545347    7.260957163858690499580461619    5.113669649000975425678916508   -0.006261005877206127223644216   -0.234152983925167923473509290   -1.631095723528250163170127962
Hf    0.286798481356529133545762988   -0.123598750926162348484638187   10.459306709681776226261717966   -2.458506556556232069965517439    3.128034785945546403240768996    2.688748310203055602585209272
Hf    7.338380930993731787737033301    2.630434350635111773186736173    5.464700189077310810148446762   -0.322251564443899407574889437   -1.612349814883025977962915931   -3.162016175033710130293229668
Hf    7.358383245625343960227837670    7.259159721923851726899101777    5.232314093145268074636078381   -3.178427468781874765113570902   -2.089227059584338519471202744   -1.244503040707896523997533222
Hf    1.598999056637671278835455269    5.042094617680779045088002022    2.443050377172002018966168180    2.908035253675100406667297648   -0.316784573593099749722057368   -1.215306069525914356432849672
Hf   10.557524706600474928563926369    3.122000699124622080660174106    4.864552756143432965529882495    1.229946722417861515452841559    0.411018813638435287494132808   -1.791631382077791823093093626
Hf   -0.106161705811140011368465252    3.346862584344718616335967454   -0.136318741044252844663020596    2.905200771488515076867997777    0.899377113760389312879794943   -2.736399276462998297887452281
Hf    0.974760237837464904586681769    4.951340484466649094486001559    7.541549686501898719370728941   -0.403750402993206858326402653   -0.214952507285937399750253007    1.341977959053732183392071420
Hf    9.060779448647611644673816045    9.315900004015947644120387849    8.427091093526149379044909438   -3.534080171393686242709009093    7.426616398745902181133260456    2.487967530197275678460755444
Hf    1.959661169328442476000873285    1.860686429346312120713946570    7.608380946543110034951951093   -3.041614200058544437155205742    1.863353882095146074604485875    4.063300345968434257315493596
Hf    7.376577826571899088037298498    7.177327268739142063225244783    0.419331091644901565729242066   -0.653774268002035974234331661    2.832075807071112283352931627   -8.844471133758494474363942572
Hf    9.243518358489172470626726863    8.849690426437792467595500057    2.752881823151253293247009424    1.644994847241924240677235503    3.556486583994385330953491575   -1.835852990735798773158649055
Hf    5.442261603028082816990718129    8.881969535094654588647244964    2.108915887940189026750203993   -5.344343554718880895393340325    2.585610414033650883425252687    3.738649842508980469801826985
Hf    5.199070720152128011193326529    9.489620361253180647054250585    8.329465460540260934862999420    1.243955473453939530870115959   -1.167768477416305294980247709    0.064024730953930297783216474
Hf   10.713063133213342581484539551   10.667676596160919899602959049    5.502587069582308920701052557    7.366413453306298819711628312    0.433843226503429102436371068    3.067839231228366436710075504
Hf    4.087059119608214885488450818    3.857558039206380851027233803    5.413209823655093622107870033    0.303226229183975071190815243   -0.443026063549456894374856120   -1.202477003436180691409163046
Hf   -0.024621091357448401937269011    6.888426845567654055457751383   10.583121970526246258259561728    1.202695505086895044755124218    0.261803771666457407718553441    1.090497416953533083017191530
Hf    1.599461293547390416946996083    8.647279756088586566420417512    7.866035333221415015714228502    0.361881129877607565781261201    1.951639462268595082150568487   -0.732356260216284082886772921
Hf    7.175329607864159520147495641    3.550440613021883073940898612   10.707253149401738667734207411   -0.365911043277609371315861608   -0.344448213020002336204328230   -0.645923776498539714552293844
Hf    9.057484585957706002545819501    5.206722820304931609314280649    2.718265939298602607010479915   -1.476687335007493828697988647   -0.697284385355479097157171964   -0.653630204109633794473666057
Hf    3.401663722536053313660886488    7.234524743899456211693177465    5.081684622594234035375393432    3.968131055080957203529123944   -0.856826509919946799342937993    1.988547318194193280760373455
Hf    3.374496119349630340877865819    0.280159931803080686218976325    0.198027644621454057549669869    1.019396010615098990825799774   -3.733241187034797015087406180   -2.445676361969791212658265067
Hf    7.039766168158531733922700369   10.554323771674365417538865586    5.562824665842743598886954715   -1.237494661717894128827310851    1.671445835388810419175342759   -0.725531962869884305966650118
Hf    5.641305147411161513559818559    1.527886079758139947770700928    2.820629522202750205650545468   -1.274500787662102618824633282   -1.681801295225308967573596419    0.281244497123754710887766350
Hf    5.368944065234783735718337994    1.794165610183010572953321571    8.478548956566905658860378026    0.648773981119409204332271202    0.038051299650881331704255217    0.474691347040856248540308115
Hf    1.747014196632176386003720836    9.188044778777562981986193336    2.628805389810707993092364632   -1.523969071295714350355865463    1.891051763577828115359125150   -1.100628405015247501808062225
Hf    3.248933591091793804395138068   10.824407379062989775775349699    5.623126114214181292538796697    2.354225681230370348373526213   -2.969514301421865898333862788    1.107515791596339393976222709
Hf    3.488215840543734458378821728    3.752017878028473418794419558   10.415809697254200472116281162   -0.149501282637699905997408223    2.758377001960416130543762847    0.512424512177760416165028801
Hf    7.158207821364049650014749204   10.967619299925846831911258050    0.055776813469927438715600942   -1.331935740170972160001383600    0.664916506606844315285798075   -0.390984977949987211331972503
Hf    9.091959606857418663139469572    1.467318897204060501593403387    2.119493591940951660035352688   -0.328100606266654382103808985   -0.818028150193521597088874842    0.745563910164570464722544330
Hf    5.555920023804724827698464651    5.659353597697363014162874606    7.947743758236653022208884067   -1.211847793609453605157000311   -1.474404963405659518826951171    3.275448502884790169531470383
Hf    9.042870724567613649469421944    1.712255113125878525082157466    8.253009399025216907830326818    0.322303816274781995687703784   -2.560201516728173753989494799    2.090984547417850780703929559