LAMMPS (27 Jun 2024)
OMP_NUM_THREADS environment is not set. Defaulting to 1 thread. (src/comm.cpp:98)
  using 1 OpenMP thread(s) per MPI task
Reading data file ...
  orthogonal box = (0 0 0) to (22.422218 22.19224 20.321894)
  5 by 2 by 2 MPI processor grid
  reading atoms ...
  448 atoms
  read_data CPU = 0.004 seconds
**************** Begin of POD Potentials ****************
species: Hf 
periodic boundary conditions: 1 1 1
number of environment clusters: 8
number of principal compoments: 2
inner cut-off radius: 1
outer cut-off radius: 5
cut-off function type: 1
gaussian_exponents: 
polynomial_degrees: 
bessel polynomial degree: 4
inverse polynomial degree: 10
one-body potential: 1
two-body radial basis functions: 8
three-body radial basis functions: 8
three-body angular degree: 6
four-body radial basis functions: 7
four-body angular degree: 5
five-body radial basis functions: 0
five-body angular degree: 0
six-body radial basis functions: 0
six-body angular degree: 0
seven-body radial basis functions: 0
seven-body angular degree: 0
number of local descriptors per element for one-body potential: 1
number of local descriptors per element for two-body potential: 8
number of local descriptors per element for three-body potential: 56
number of local descriptors per element for four-body potential: 112
number of local descriptors per element for five-body potential: 0
number of local descriptors per element for six-body potential: 0
number of local descriptors per element for seven-body potential: 0
number of local descriptors per element for all potentials: 177
number of global descriptors: 1409
**************** End of POD Potentials ****************

**************** Begin of Model Coefficients ****************
total number of coefficients for POD potential: 1409
total number of elements for PCA projection matrix: 352
total number of elements for PCA centroids: 16
**************** End of Model Coefficients ****************


CITE-CITE-CITE-CITE-CITE-CITE-CITE-CITE-CITE-CITE-CITE-CITE-CITE

Your simulation uses code contributions which should be cited:
- Type Label Framework: https://doi.org/10.1021/acs.jpcb.3c08419
The log file lists these citations in BibTeX format.

CITE-CITE-CITE-CITE-CITE-CITE-CITE-CITE-CITE-CITE-CITE-CITE-CITE

Neighbor list info ...
  update: every = 1 steps, delay = 0 steps, check = no
  max neighbors/atom: 2000, page size: 100000
  master list distance cutoff = 7
  ghost atom cutoff = 7
  binsize = 3.5, bins = 7 7 6
  1 neighbor lists, perpetual/occasional/extra = 1 0 0
  (1) pair pod, perpetual
      attributes: full, newton on
      pair build: full/bin/atomonly
      stencil: full/bin/3d
      bin: standard
Setting up Verlet run ...
  Unit style    : metal
  Current step  : 0
  Time step     : 0.001
Per MPI rank memory allocation (min/avg/max) = 2.586 | 2.586 | 2.586 Mbytes
   Step          Temp          TotEng         PotEng         KinEng         Press          Volume    
         0   300           -3231.7429     -3249.0767      17.333785      27701.818      10112.159    
       100   303.36709     -3235.7838     -3253.3121      17.528334      9448.6601      10112.159    
       200   240.7599      -3236.1058     -3250.0168      13.910935      11197.246      10112.159    
       300   353.90538     -3234.9302     -3255.3786      20.4484        8735.3504      10112.159    
       400   340.89706     -3237.6254     -3257.3222      19.696788      8709.4313      10112.159    
       500   326.12034     -3240.0991     -3258.9421      18.843         7975.39        10112.159    
       600   277.75044     -3241.4384     -3257.4866      16.048222      8375.1973      10112.159    
       700   297.99934     -3240.7106     -3257.9288      17.218188      8529.003       10112.159    
       800   295.56934     -3239.711      -3256.7888      17.077785      8456.1756      10112.159    
       900   299.06968     -3238.6829     -3255.963       17.280032      8508.5522      10112.159    
      1000   323.32895     -3238.4095     -3257.0912      18.681716      8464.6562      10112.159    
      1100   282.5189      -3239.4804     -3255.8041      16.32374       8997.285       10112.159    
      1200   314.73193     -3240.329      -3258.5139      18.184986      8152.9274      10112.159    
      1300   284.06297     -3241.0049     -3257.4178      16.412955      7664.0837      10112.159    
      1400   301.18022     -3240.1341     -3257.5361      17.401978      8541.0473      10112.159    
      1500   297.93965     -3239.594      -3256.8087      17.21474       8611.5554      10112.159    
      1600   324.51212     -3238.3528     -3257.1029      18.750078      8658.9636      10112.159    
      1700   322.30801     -3237.3208     -3255.9435      18.622726      9179.4394      10112.159    
      1800   302.39203     -3237.6639     -3255.1359      17.471996      9284.5991      10112.159    
      1900   313.05675     -3239.8913     -3257.9795      18.088195      8659.4259      10112.159    
      2000   285.89056     -3240.8454     -3257.364       16.518552      7861.7406      10112.159    
      2100   316.99075     -3239.9525     -3258.268       18.315499      8415.6829      10112.159    
      2200   281.56746     -3239.7694     -3256.0382      16.268766      8608.6745      10112.159    
      2300   305.37825     -3239.2607     -3256.9053      17.644537      8861.6588      10112.159    
      2400   299.40158     -3239.0958     -3256.395       17.299209      8815.2164      10112.159    
      2500   312.94983     -3239.3985     -3257.4805      18.082017      8712.1691      10112.159    
      2600   293.736       -3240.7862     -3257.758       16.971856      8534.7501      10112.159    
      2700   296.92379     -3240.9609     -3258.1169      17.156044      8273.6328      10112.159    
      2800   294.24848     -3239.9989     -3257.0004      17.001467      8642.6136      10112.159    
      2900   309.83276     -3239.0011     -3256.903       17.901915      8742.3201      10112.159    
      3000   313.0007      -3239.0737     -3257.1587      18.084956      8487.7289      10112.159    
      3100   307.93803     -3239.4805     -3257.2729      17.792439      8558.9664      10112.159    
      3200   303.79222     -3239.8514     -3257.4043      17.552897      8674.8194      10112.159    
      3300   276.8836      -3240.8144     -3256.8125      15.998136      8651.7658      10112.159    
      3400   296.8919      -3241.6775     -3258.8318      17.154202      7943.7824      10112.159    
      3500   276.44903     -3242.4012     -3258.3742      15.973027      8213.493       10112.159    
      3600   292.7559      -3241.0088     -3257.9241      16.915226      8496.6274      10112.159    
      3700   295.47325     -3239.7258     -3256.798       17.072233      8584.2218      10112.159    
      3800   311.95775     -3239.1365     -3257.1612      18.024696      8234.4801      10112.159    
      3900   302.36569     -3239.3693     -3256.8398      17.470473      8683.7037      10112.159    
      4000   301.3814      -3240.1735     -3257.5871      17.413602      8794.1468      10112.159    
      4100   280.26995     -3241.725      -3257.9188      16.193797      8480.5584      10112.159    
      4200   296.94525     -3241.3041     -3258.4614      17.157284      8210.9636      10112.159    
      4300   287.03605     -3240.5388     -3257.1236      16.584738      8642.1675      10112.159    
      4400   317.97673     -3239.5497     -3257.9222      18.372468      8690.0775      10112.159    
      4500   293.29526     -3239.8766     -3256.823       16.94639       8548.9998      10112.159    
      4600   295.36191     -3239.6451     -3256.7109      17.0658        8959.0957      10112.159    
      4700   307.50081     -3239.0327     -3256.7999      17.767177      9202.4289      10112.159    
      4800   297.89742     -3239.6607     -3256.873       17.2123        8234.6917      10112.159    
      4900   294.37228     -3241.1261     -3258.1348      17.00862       7952.9061      10112.159    
      5000   284.85686     -3241.495      -3257.9539      16.458826      8530.7703      10112.159    
      5100   296.85909     -3240.3224     -3257.4747      17.152306      8470.5097      10112.159    
      5200   303.80917     -3239.4413     -3256.9951      17.553876      8910.8961      10112.159    
      5300   284.1556      -3239.7116     -3256.1299      16.418307      9128.601       10112.159    
      5400   321.98587     -3239.5272     -3258.1314      18.604113      8316.5131      10112.159    
      5500   278.33233     -3240.6566     -3256.7384      16.081843      8789.9719      10112.159    
      5600   314.07667     -3240.5715     -3258.7186      18.147126      8635.7052      10112.159    
      5700   286.96907     -3240.1629     -3256.7437      16.580868      8446.4721      10112.159    
      5800   323.07984     -3238.7151     -3257.3824      18.667322      8627.3147      10112.159    
      5900   295.17848     -3238.5885     -3255.6438      17.055201      8944.4694      10112.159    
      6000   314.06841     -3239.0345     -3257.1811      18.146648      9003.0893      10112.159    
      6100   284.47559     -3240.7136     -3257.1504      16.436796      8472.8377      10112.159    
      6200   305.61882     -3240.6754     -3258.3339      17.658437      8274.5542      10112.159    
      6300   290.35613     -3240.3828     -3257.1594      16.77657       8871.6106      10112.159    
      6400   315.03157     -3239.0738     -3257.2761      18.202299      8895.6596      10112.159    
      6500   290.27146     -3238.7914     -3255.5631      16.771677      9343.6212      10112.159    
      6600   326.58509     -3238.247      -3257.1168      18.869853      9240.8167      10112.159    
      6700   299.33142     -3239.453      -3256.7482      17.295156      9095.4681      10112.159    
      6800   305.93702     -3240.3595     -3258.0363      17.676822      8409.9796      10112.159    
      6900   286.50356     -3241.1087     -3257.6627      16.553971      8429.6162      10112.159    
      7000   297.97837     -3240.6637     -3257.8807      17.216977      8638.088       10112.159    
      7100   289.09425     -3239.425      -3256.1286      16.703659      9235.8233      10112.159    
      7200   325.64277     -3238.355      -3257.1704      18.815406      8901.2037      10112.159    
      7300   318.70789     -3238.8573     -3257.2721      18.414714      8931.147       10112.159    
      7400   304.19518     -3239.491      -3257.0672      17.57618       9115.0596      10112.159    
      7500   292.08871     -3240.1564     -3257.033       16.876677      8884.4572      10112.159    
      7600   294.48852     -3240.6076     -3257.623       17.015336      8763.8822      10112.159    
      7700   287.5384      -3241.0428     -3257.6566      16.613763      8360.0287      10112.159    
      7800   305.48437     -3240.405      -3258.0556      17.650668      8799.1081      10112.159    
      7900   301.23469     -3239.5288     -3256.934       17.405125      9152.6299      10112.159    
      8000   317.84526     -3238.7358     -3257.1006      18.364872      8969.876       10112.159    
      8100   296.0979      -3239.1394     -3256.2477      17.108325      9054.6903      10112.159    
      8200   295.69176     -3240.7992     -3257.8841      17.084859      8332.459       10112.159    
      8300   295.40585     -3241.285      -3258.3533      17.068339      8983.2631      10112.159    
      8400   287.13103     -3240.8114     -3257.4016      16.590225      8673.6732      10112.159    
      8500   300.57955     -3239.8754     -3257.2427      17.367271      8605.0168      10112.159    
      8600   295.10113     -3239.6394     -3256.6902      17.050732      9232.062       10112.159    
      8700   300.07234     -3239.7397     -3257.0777      17.337965      9115.6107      10112.159    
      8800   318.08627     -3239.6173     -3257.9961      18.378797      8649.9082      10112.159    
      8900   277.99224     -3240.4073     -3256.4695      16.062193      9155.8248      10112.159    
      9000   292.21278     -3241.5182     -3258.402       16.883845      8728.9922      10112.159    
      9100   280.50836     -3241.7958     -3258.0033      16.207573      8231.2648      10112.159    
      9200   303.29587     -3239.9197     -3257.4439      17.524219      8765.6869      10112.159    
      9300   296.00654     -3239.4453     -3256.5483      17.103046      8827.2636      10112.159    
      9400   305.25542     -3239.3577     -3256.9952      17.63744       8538.4842      10112.159    
      9500   296.10698     -3239.8627     -3256.9715      17.10885       8729.2622      10112.159    
      9600   297.06556     -3240.7217     -3257.8859      17.164235      9001.1745      10112.159    
      9700   282.61764     -3241.8641     -3258.1936      16.329445      8211.3239      10112.159    
      9800   298.88376     -3241.2787     -3258.548       17.26929       8374.9223      10112.159    
      9900   281.58555     -3240.1265     -3256.3963      16.269811      8895.3719      10112.159    
     10000   312.24957     -3239.3689     -3257.4104      18.041557      9028.261       10112.159    
     10100   299.83011     -3239.6479     -3256.9719      17.323969      8840.3472      10112.159    
     10200   294.61613     -3240.0917     -3257.1144      17.022709      8558.2995      10112.159    
     10300   298.34151     -3240.6726     -3257.9105      17.237959      8677.4314      10112.159    
     10400   290.70567     -3241.5809     -3258.3776      16.796766      8399.7483      10112.159    
     10500   271.69417     -3241.2279     -3256.9262      15.698295      8656.4991      10112.159    
     10600   313.4774      -3239.6914     -3257.8039      18.1125        8775.8117      10112.159    
     10700   299.18629     -3239.3742     -3256.661       17.28677       8822.7247      10112.159    
     10800   314.77491     -3239.1292     -3257.3167      18.187469      9115.8971      10112.159    
     10900   296.34125     -3240.3086     -3257.431       17.122385      8784.1564      10112.159    
     11000   285.64777     -3241.3753     -3257.8798      16.504524      8360.6092      10112.159    
     11100   277.25131     -3242.0232     -3258.0426      16.019382      8281.9094      10112.159    
     11200   283.23111     -3241.9037     -3258.2686      16.364891      8377.4136      10112.159    
     11300   300.27213     -3240.3368     -3257.6863      17.349509      8700.4373      10112.159    
     11400   300.0833      -3239.2746     -3256.6132      17.338599      8868.1234      10112.159    
     11500   316.83457     -3238.8716     -3257.1781      18.306475      9232.032       10112.159    
     11600   283.95539     -3240.0122     -3256.419       16.406739      8731.0423      10112.159    
     11700   303.12164     -3240.142      -3257.6562      17.514151      8846.8933      10112.159    
     11800   308.74569     -3240.1325     -3257.9716      17.839105      8918.7874      10112.159    
     11900   291.77588     -3240.1405     -3256.9991      16.858602      8878.1516      10112.159    
     12000   298.85213     -3239.8516     -3257.1191      17.267462      8691.5513      10112.159    
     12100   291.27024     -3240.2012     -3257.0305      16.829386      9010.3749      10112.159    
     12200   308.79173     -3240.2106     -3258.0524      17.841765      8666.3896      10112.159    
     12300   301.2681      -3239.2277     -3256.6348      17.407055      9028.8872      10112.159    
     12400   325.5361      -3237.777      -3256.5863      18.809243      9302.5933      10112.159    
     12500   312.67127     -3238.386      -3256.4519      18.065922      9415.1258      10112.159    
     12600   291.81568     -3239.7529     -3256.6138      16.860902      8987.478       10112.159    
     12700   318.38954     -3239.7462     -3258.1425      18.39632       8589.2955      10112.159    
     12800   294.13876     -3240.4613     -3257.4564      16.995127      8609.5762      10112.159    
     12900   304.85176     -3240.3383     -3257.9525      17.614116      8917.4676      10112.159    
     13000   308.09518     -3239.0098     -3256.8113      17.801519      8900.0338      10112.159    
     13100   299.37645     -3237.8144     -3255.1121      17.297757      9843.5375      10112.159    
     13200   314.80349     -3237.7753     -3255.9645      18.189121      9769.663       10112.159    
     13300   306.06234     -3240.1694     -3257.8534      17.684063      8783.7093      10112.159    
     13400   289.94734     -3240.3826     -3257.1356      16.75295       8895.6893      10112.159    
     13500   310.00041     -3239.5569     -3257.4685      17.911602      9050.0686      10112.159    
     13600   295.69283     -3239.4319     -3256.5168      17.08492       9197.9769      10112.159    
     13700   297.52504     -3239.7096     -3256.9004      17.190784      8828.2156      10112.159    
     13800   301.99632     -3240.3932     -3257.8424      17.449131      8803.7111      10112.159    
     13900   290.18627     -3241.1698     -3257.9365      16.766755      8627.6112      10112.159    
     14000   290.92605     -3241.3415     -3258.1509      16.809499      8392.1032      10112.159    
     14100   280.51693     -3240.2648     -3256.4728      16.208068      9045.2602      10112.159    
     14200   310.11285     -3239.0653     -3256.9834      17.918098      8931.9785      10112.159    
     14300   319.7756      -3239.0781     -3257.5545      18.476406      8998.5741      10112.159    
     14400   293.5083      -3239.9706     -3256.9293      16.9587        9024.1273      10112.159    
     14500   283.48813     -3241.1588     -3257.5385      16.379741      8812.8591      10112.159    
     14600   290.71399     -3241.4245     -3258.2217      16.797246      8475.2983      10112.159    
     14700   302.4369      -3239.4368     -3256.9114      17.474588      9228.6287      10112.159    
     14800   320.34032     -3238.5531     -3257.0621      18.509034      9291.0565      10112.159    
     14900   298.30178     -3239.2812     -3256.5169      17.235663      9127.8907      10112.159    
     15000   300.67662     -3240.0622     -3257.4351      17.37288       8922.9295      10112.159    
     15100   283.77931     -3241.103      -3257.4996      16.396565      9114.6914      10112.159    
     15200   289.39523     -3241.599      -3258.3201      16.721049      8518.4251      10112.159    
     15300   285.52907     -3241.1516     -3257.6493      16.497666      8639.1015      10112.159    
     15400   313.55436     -3239.5832     -3257.7001      18.116947      8884.3783      10112.159    
     15500   295.48917     -3239.0858     -3256.159       17.073153      9020.4359      10112.159    
     15600   304.29377     -3238.5895     -3256.1714      17.581876      9247.9262      10112.159    
     15700   314.71619     -3239.5165     -3257.7006      18.184076      9236.0439      10112.159    
     15800   293.98942     -3240.8104     -3257.7969      16.986498      8717.7012      10112.159    
     15900   302.02242     -3240.5805     -3258.0311      17.450639      8874.0449      10112.159    
     16000   298.70607     -3239.8469     -3257.1059      17.259023      8943.7553      10112.159    
     16100   303.92856     -3238.9058     -3256.4666      17.560775      9329.9996      10112.159    
     16200   302.65153     -3238.6194     -3256.1064      17.486989      9141.128       10112.159    
     16300   322.04759     -3238.1777     -3256.7853      18.607679      9130.4394      10112.159    
     16400   301.45413     -3239.5198     -3256.9376      17.417804      9072.9823      10112.159    
     16500   298.90247     -3240.4849     -3257.7553      17.270371      8641.9355      10112.159    
     16600   284.45515     -3240.9499     -3257.3855      16.435615      8622.7525      10112.159    
     16700   301.08686     -3240.2586     -3257.6552      17.396584      9176.9403      10112.159    
     16800   309.5339      -3238.4114     -3256.296       17.884647      9053.7584      10112.159    
     16900   316.29016     -3237.9072     -3256.1823      18.275019      9286.4213      10112.159    
     17000   310.23424     -3239.2219     -3257.1471      17.925113      8971.5365      10112.159    
     17100   289.20571     -3239.8771     -3256.5872      16.710099      9030.0552      10112.159    
     17200   297.80147     -3240.0077     -3257.2145      17.206756      9280.9181      10112.159    
     17300   294.51073     -3240.3842     -3257.4008      17.016619      8294.0805      10112.159    
     17400   301.10461     -3239.8597     -3257.2573      17.397609      9076.2791      10112.159    
     17500   316.52556     -3238.6409     -3256.9295      18.288621      9269.0808      10112.159    
     17600   291.66674     -3238.8257     -3255.678       16.852296      9192.7613      10112.159    
     17700   291.28467     -3240.0236     -3256.8538      16.83022       9159.966       10112.159    
     17800   296.75986     -3241.0236     -3258.1701      17.146572      8625.7937      10112.159    
     17900   310.59221     -3240.6279     -3258.5737      17.945796      8495.8261      10112.159    
     18000   280.37135     -3240.1815     -3256.3812      16.199656      8975.4543      10112.159    
     18100   306.37774     -3238.451      -3256.1533      17.702287      9511.444       10112.159    
     18200   317.70932     -3238.2611     -3256.6181      18.357017      9450.761       10112.159    
     18300   311.55383     -3239.0538     -3257.0552      18.001358      9144.2479      10112.159    
     18400   301.42435     -3240.0002     -3257.4163      17.416084      8903.6134      10112.159    
     18500   294.55159     -3240.4767     -3257.4957      17.01898       8953.66        10112.159    
     18600   293.34521     -3240.4052     -3257.3545      16.949277      8893.861       10112.159    
     18700   299.29117     -3239.6101     -3256.903       17.29283       8985.2526      10112.159    
     18800   311.57745     -3237.5832     -3255.5859      18.002722      9458.2         10112.159    
     18900   320.11061     -3237.8492     -3256.345       18.495762      9276.6797      10112.159    
     19000   288.68091     -3239.4696     -3256.1494      16.679777      8973.071       10112.159    
     19100   303.65256     -3239.8825     -3257.4274      17.544828      9070.7066      10112.159    
     19200   306.34308     -3240.3998     -3258.1001      17.700284      8724.0383      10112.159    
     19300   280.37363     -3241.0801     -3257.2799      16.199788      8536.2732      10112.159    
     19400   302.82362     -3240.0984     -3257.5953      17.496932      9021.7873      10112.159    
     19500   308.81504     -3238.7287     -3256.5718      17.843112      9221.5063      10112.159    
     19600   310.78416     -3238.6781     -3256.635       17.956887      9112.0562      10112.159    
     19700   312.85178     -3239.7208     -3257.7971      18.076352      8484.5317      10112.159    
     19800   280.8057      -3241.1427     -3257.3675      16.224753      8782.9821      10112.159    
     19900   296.31979     -3240.7526     -3257.8737      17.121145      8977.5753      10112.159    
     20000   283.14243     -3240.1523     -3256.512       16.359767      8800.3369      10112.159    
     20100   326.67169     -3238.9158     -3257.7907      18.874857      8888.7188      10112.159    
     20200   299.53431     -3239.1544     -3256.4612      17.306878      9183.554       10112.159    
     20300   285.19646     -3239.7023     -3256.1807      16.478448      9128.4201      10112.159    
     20400   304.89618     -3240.6179     -3258.2346      17.616683      8673.3098      10112.159    
     20500   287.32061     -3242.1995     -3258.8007      16.601179      8155.1105      10112.159    
     20600   296.85047     -3241.3411     -3258.4929      17.151808      8696.6478      10112.159    
     20700   294.18194     -3240.1154     -3257.1131      16.997622      8976.9348      10112.159    
     20800   294.3054      -3239.6574     -3256.6622      17.004755      9184.7195      10112.159    
     20900   313.0883      -3239.3457     -3257.4357      18.090018      8853.397       10112.159    
     21000   304.74253     -3239.5784     -3257.1862      17.607806      8962.6918      10112.159    
     21100   304.23799     -3240.8831     -3258.4617      17.578654      8587.0948      10112.159    
     21200   280.03528     -3241.6505     -3257.8307      16.180238      8426.6814      10112.159    
     21300   302.33474     -3240.4743     -3257.943       17.468685      8862.3097      10112.159    
     21400   296.87383     -3239.8432     -3256.9964      17.153157      8822.4276      10112.159    
     21500   306.63573     -3239.4824     -3257.1996      17.717193      8730.4301      10112.159    
     21600   306.13772     -3239.5182     -3257.2067      17.688419      9297.2396      10112.159    
     21700   286.1019      -3240.6917     -3257.2225      16.530763      8485.7878      10112.159    
     21800   276.22555     -3241.9737     -3257.9338      15.960114      8349.8029      10112.159    
     21900   300.45826     -3241.2928     -3258.6531      17.360264      8547.5088      10112.159    
     22000   286.20259     -3240.4088     -3256.9454      16.536581      8812.6374      10112.159    
     22100   299.68699     -3239.9411     -3257.2568      17.3157        9096.7184      10112.159    
     22200   296.34812     -3239.7177     -3256.8405      17.122783      8903.1087      10112.159    
     22300   314.76125     -3239.2053     -3257.392       18.18668       8845.8392      10112.159    
     22400   301.28088     -3239.6436     -3257.0514      17.407794      8882.5737      10112.159    
     22500   287.23787     -3240.7611     -3257.3575      16.596399      8753.2412      10112.159    
     22600   274.60104     -3241.7089     -3257.5752      15.866252      8834.1299      10112.159    
     22700   297.43236     -3241.0359     -3258.2214      17.185429      8449.6889      10112.159    
     22800   306.47446     -3239.5872     -3257.295       17.707875      8831.5658      10112.159    
     22900   303.61811     -3239.4229     -3256.9657      17.542837      9060.9259      10112.159    
     23000   290.27216     -3239.8079     -3256.5796      16.771718      8868.7624      10112.159    
     23100   278.45362     -3240.468      -3256.5568      16.088851      8491.5577      10112.159    
     23200   306.21804     -3240.8184     -3258.5115      17.693059      8515.0268      10112.159    
     23300   286.14651     -3241.4148     -3257.9482      16.533341      8780.6263      10112.159    
     23400   293.58206     -3240.5992     -3257.5622      16.962962      8685.9167      10112.159    
     23500   293.27566     -3239.1885     -3256.1337      16.945258      8821.9056      10112.159    
     23600   321.42543     -3238.691      -3257.2628      18.571732      9052.4346      10112.159    
     23700   281.22933     -3239.7985     -3256.0477      16.24923       9331.3686      10112.159    
     23800   316.28321     -3239.9663     -3258.2409      18.274618      8133.1207      10112.159    
     23900   290.66614     -3240.2637     -3257.0582      16.794481      8835.7463      10112.159    
     24000   286.30963     -3239.9168     -3256.4595      16.542766      9068.178       10112.159    
     24100   306.90601     -3239.6118     -3257.3447      17.73281       8619.5604      10112.159    
     24200   307.53831     -3239.5602     -3257.3295      17.769344      8463.9233      10112.159    
     24300   304.13599     -3239.8532     -3257.4259      17.57276       8384.4879      10112.159    
     24400   300.83884     -3240.3495     -3257.7317      17.382253      8512.712       10112.159    
     24500   290.2887      -3240.437      -3257.2097      16.772674      8693.5549      10112.159    
     24600   295.78795     -3238.6794     -3255.7698      17.090416      9522.5552      10112.159    
     24700   299.99385     -3238.1745     -3255.5079      17.33343       9082.6626      10112.159    
     24800   334.37046     -3238.6267     -3257.9464      19.319686      8612.939       10112.159    
     24900   293.37866     -3240.2301     -3257.1813      16.951209      8674.6492      10112.159    
     25000   299.28032     -3240.5332     -3257.8254      17.292203      8583.3483      10112.159    
     25100   280.32732     -3240.6516     -3256.8487      16.197112      8604.5404      10112.159    
     25200   316.38622     -3239.1899     -3257.4705      18.28057       8791.4671      10112.159    
     25300   297.39487     -3239.1228     -3256.306       17.183263      8795.1084      10112.159    
     25400   313.38759     -3239.1112     -3257.2185      18.107311      8852.9197      10112.159    
     25500   294.24043     -3239.8675     -3256.8685      17.001001      8995.441       10112.159    
     25600   309.75076     -3240.6102     -3258.5074      17.897177      8577.4958      10112.159    
     25700   263.00699     -3242.744      -3257.9404      15.196356      8159.3156      10112.159    
     25800   294.35109     -3241.7975     -3258.8049      17.007395      8120.2678      10112.159    
     25900   289.12428     -3240.4766     -3257.182       16.705394      8821.2049      10112.159    
     26000   308.38322     -3239.4772     -3257.2954      17.818162      8600.4672      10112.159    
     26100   298.73005     -3239.2863     -3256.5467      17.260409      9149.8508      10112.159    
     26200   311.0146      -3239.1361     -3257.1063      17.970201      8988.7159      10112.159    
     26300   290.33258     -3240.5416     -3257.3168      16.775209      8841.8333      10112.159    
     26400   289.06116     -3241.1858     -3257.8876      16.701747      8722.3457      10112.159    
     26500   304.32257     -3240.5795     -3258.1631      17.58354       8430.5949      10112.159    
     26600   311.54003     -3239.169      -3257.1695      18.00056       8910.967       10112.159    
     26700   317.29448     -3237.782      -3256.1151      18.333048      9320.7882      10112.159    
     26800   312.90596     -3238.202      -3256.2815      18.079482      9368.0937      10112.159    
     26900   289.05181     -3239.5861     -3256.2873      16.701207      9269.2398      10112.159    
     27000   313.15876     -3239.9551     -3258.0492      18.094089      8509.1424      10112.159    
     27100   288.06527     -3240.6935     -3257.3378      16.644205      8729.5013      10112.159    
     27200   284.94946     -3240.7502     -3257.2143      16.464176      8929.6532      10112.159    
     27300   318.17202     -3239.1703     -3257.554       18.383752      8490.2864      10112.159    
     27400   299.05424     -3238.6214     -3255.9005      17.27914       9238.8149      10112.159    
     27500   329.25953     -3238.2164     -3257.2408      19.02438       9303.4621      10112.159    
     27600   289.0075      -3240.1181     -3256.8167      16.698646      9096.4948      10112.159    
     27700   294.70821     -3240.6428     -3257.6709      17.028029      8798.0575      10112.159    
     27800   305.92426     -3240.3328     -3258.0089      17.676085      8608.714       10112.159    
     27900   298.88987     -3239.8204     -3257.0901      17.269643      8934.9151      10112.159    
     28000   298.0052      -3238.5675     -3255.786       17.218527      9252.148       10112.159    
     28100   322.96193     -3237.7418     -3256.4023      18.66051       9309.222       10112.159    
     28200   303.15006     -3238.7178     -3256.2336      17.515794      9162.8727      10112.159    
     28300   319.84865     -3239.4857     -3257.9663      18.480626      8863.2128      10112.159    
     28400   286.18198     -3239.9813     -3256.5167      16.53539       8772.9046      10112.159    
     28500   302.88195     -3239.8587     -3257.359       17.500303      9020.1426      10112.159    
     28600   301.77161     -3240.5154     -3257.9516      17.436148      8454.7766      10112.159    
     28700   290.17405     -3241.2        -3257.9661      16.766049      8823.9957      10112.159    
     28800   283.5968      -3240.5516     -3256.9376      16.38602       8904.5672      10112.159    
     28900   304.16183     -3238.9779     -3256.5522      17.574253      8841.8927      10112.159    
     29000   325.98849     -3238.3079     -3257.1433      18.835382      9064.8093      10112.159    
     29100   287.48774     -3239.6428     -3256.2536      16.610836      9143.6286      10112.159    
     29200   308.98173     -3239.8309     -3257.6836      17.852743      8890.907       10112.159    
     29300   285.98712     -3240.305      -3256.8292      16.524132      8784.5323      10112.159    
     29400   293.19658     -3240.0951     -3257.0357      16.940689      8914.4373      10112.159    
     29500   327.88527     -3238.5334     -3257.4784      18.944976      8852.908       10112.159    
     29600   311.02626     -3237.8476     -3255.8185      17.970875      9132.7764      10112.159    
     29700   327.40499     -3237.4407     -3256.3579      18.917226      9689.1731      10112.159    
     29800   292.82861     -3239.6226     -3256.5421      16.919427      8949.9466      10112.159    
     29900   294.93477     -3240.3356     -3257.3767      17.04112       8865.3478      10112.159    
     30000   316.39239     -3240.3866     -3258.6675      18.280926      8527.2056      10112.159    
     30100   271.81148     -3240.9279     -3256.6329      15.705073      8792.5395      10112.159    
     30200   319.40096     -3239.7116     -3258.1664      18.454759      8564.4595      10112.159    
     30300   301.00633     -3238.9216     -3256.3136      17.391931      9088.1809      10112.159    
     30400   302.36025     -3238.7252     -3256.1954      17.470159      9484.3825      10112.159    
     30500   283.2582      -3240.7031     -3257.0695      16.366456      8849.8594      10112.159    
     30600   298.62406     -3241.243      -3258.4973      17.254285      8695.8013      10112.159    
     30700   302.98461     -3240.656      -3258.1623      17.506234      8319.7045      10112.159    
     30800   286.76433     -3239.6589     -3256.2279      16.569038      9180.7903      10112.159    
     30900   311.19159     -3238.7102     -3256.6906      17.980428      9167.3493      10112.159    
     31000   301.92503     -3239.0037     -3256.4487      17.445012      9138.6301      10112.159    
     31100   299.69236     -3239.6352     -3256.9512      17.31601       9040.848       10112.159    
     31200   300.23395     -3240.448      -3257.7953      17.347303      8755.4093      10112.159    
     31300   317.87186     -3240.5256     -3258.892       18.366409      8696.1068      10112.159    
     31400   282.69545     -3240.5067     -3256.8407      16.333941      9017.2756      10112.159    
     31500   293.94744     -3239.6972     -3256.6813      16.984073      8864.2557      10112.159    
     31600   299.83689     -3239.3619     -3256.6863      17.324361      9214.0031      10112.159    
     31700   318.81594     -3238.8573     -3257.2783      18.420957      9110.1637      10112.159    
     31800   312.19223     -3238.7124     -3256.7506      18.038244      8950.1427      10112.159    
     31900   293.75188     -3240.2159     -3257.1887      16.972773      9072.2592      10112.159    
     32000   287.51238     -3241.1683     -3257.7806      16.612259      8741.1623      10112.159    
     32100   294.00231     -3240.7426     -3257.7298      16.987243      8663.9676      10112.159    
     32200   312.25788     -3239.5262     -3257.5683      18.042037      8960.7803      10112.159    
     32300   301.72534     -3239.2346     -3256.668       17.433475      9010.1337      10112.159    
     32400   287.89195     -3239.8276     -3256.4618      16.634191      9057.4452      10112.159    
     32500   318.00152     -3239.8126     -3258.1865      18.3739        8857.834       10112.159    
     32600   289.08057     -3240.256      -3256.9588      16.702869      8833.424       10112.159    
     32700   304.68102     -3240.0325     -3257.6367      17.604251      9122.1379      10112.159    
     32800   297.65644     -3239.3841     -3256.5825      17.198376      9042.6833      10112.159    
     32900   317.55229     -3238.6114     -3256.9593      18.347944      9117.2701      10112.159    
     33000   309.31812     -3239.08       -3256.9522      17.87218       9064.55        10112.159    
     33100   293.44824     -3240.2221     -3257.1774      16.95523       8910.6152      10112.159    
     33200   299.7515      -3240.9477     -3258.2671      17.319427      8845.3607      10112.159    
     33300   284.25986     -3241.3294     -3257.7537      16.424331      8403.1674      10112.159    
     33400   299.8438      -3239.0885     -3256.4133      17.32476       9069.6236      10112.159    
     33500   314.29571     -3238.4611     -3256.6209      18.159781      8986.9171      10112.159    
     33600   309.99109     -3239.0833     -3256.9944      17.911064      9018.2477      10112.159    
     33700   298.80346     -3240.3099     -3257.5745      17.26465       8749.7241      10112.159    
     33800   296.01575     -3240.9511     -3258.0547      17.103579      8526.057       10112.159    
     33900   281.38242     -3240.6498     -3256.9079      16.258075      8915.7664      10112.159    
     34000   294.66855     -3240.2585     -3257.2842      17.025738      8813.6474      10112.159    
     34100   307.78767     -3239.8396     -3257.6234      17.783751      8718.1645      10112.159    
     34200   295.91231     -3239.366      -3256.4636      17.097602      9197.18        10112.159    
     34300   287.21239     -3239.224      -3255.8189      16.594927      9333.6633      10112.159    
     34400   320.80924     -3240.0418     -3258.5779      18.536128      8944.6032      10112.159    
     34500   283.81395     -3241.4494     -3257.848       16.398567      8417.2287      10112.159    
     34600   295.16538     -3240.8841     -3257.9385      17.054444      8591.3314      10112.159    
     34700   296.62994     -3239.7097     -3256.8488      17.139066      8946.9196      10112.159    
     34800   312.92101     -3239.0062     -3257.0866      18.080352      9186.2162      10112.159    
     34900   301.86627     -3239.342      -3256.7837      17.441617      8936.442       10112.159    
     35000   311.43317     -3239.7832     -3257.7775      17.994386      8549.2069      10112.159    
     35100   289.15064     -3240.2221     -3256.929       16.706917      9140.0738      10112.159    
     35200   299.03415     -3239.985      -3257.263       17.277979      9021.8895      10112.159    
     35300   303.65378     -3239.8253     -3257.3702      17.544898      8871.6712      10112.159    
     35400   307.1428      -3239.8061     -3257.5525      17.746491      9085.9902      10112.159    
     35500   289.83032     -3240.0211     -3256.7673      16.746189      9262.8595      10112.159    
     35600   314.62149     -3239.6437     -3257.8223      18.178605      9003.8245      10112.159    
     35700   281.53213     -3239.8962     -3256.163       16.266725      9325.552       10112.159    
     35800   315.63822     -3239.4096     -3257.647       18.237351      9225.8576      10112.159    
     35900   303.40336     -3239.6929     -3257.2234      17.530429      8781.0515      10112.159    
     36000   297.18233     -3240.347      -3257.5179      17.170983      8551.7701      10112.159    
     36100   282.17538     -3241.3004     -3257.6043      16.303892      8998.1025      10112.159    
     36200   288.61448     -3241.609      -3258.2849      16.675938      8407.7402      10112.159    
     36300   296.90302     -3240.3063     -3257.4611      17.154844      8897.7528      10112.159    
     36400   308.29519     -3239.166      -3256.979       17.813076      9330.3376      10112.159    
     36500   304.43058     -3239.3013     -3256.8911      17.589781      9059.0541      10112.159    
     36600   302.74111     -3240.0932     -3257.5854      17.492165      9113.5375      10112.159    
     36700   278.61222     -3241.1307     -3257.2287      16.098015      8860.7314      10112.159    
     36800   301.06589     -3240.7649     -3258.1603      17.395372      8698.8459      10112.159    
     36900   307.49916     -3238.8355     -3256.6026      17.767081      8947.9697      10112.159    
     37000   320.54784     -3238.2261     -3256.7471      18.521025      9296.7188      10112.159    
     37100   301.71776     -3239.4331     -3256.8661      17.433036      9205.9736      10112.159    
     37200   284.0268      -3240.5007     -3256.9116      16.410865      8641.1565      10112.159    
     37300   302.80829     -3240.0976     -3257.5937      17.496046      8646.417       10112.159    
     37400   304.6691      -3239.749      -3257.3526      17.603563      8983.9337      10112.159    
     37500   310.99381     -3239.2951     -3257.2641      17.969         8964.1406      10112.159    
     37600   303.27077     -3237.9914     -3255.5142      17.522768      9149.7808      10112.159    
     37700   304.08609     -3237.9871     -3255.5569      17.569877      9312.216       10112.159    
     37800   305.76933     -3239.7952     -3257.4623      17.667133      8978.149       10112.159    
     37900   304.90088     -3240.4328     -3258.0498      17.616955      8536.0263      10112.159    
     38000   285.74172     -3240.5913     -3257.1013      16.509952      8918.2093      10112.159    
     38100   308.09277     -3239.8017     -3257.603       17.80138       8844.8393      10112.159    
     38200   305.36506     -3238.7922     -3256.436       17.643775      9354.7261      10112.159    
     38300   319.55705     -3237.8468     -3256.3105      18.463778      9352.3725      10112.159    
     38400   315.8448      -3238.9808     -3257.2301      18.249287      8880.2187      10112.159    
     38500   281.59996     -3240.8547     -3257.1253      16.270644      8890.3237      10112.159    
     38600   290.93978     -3240.7256     -3257.5359      16.810293      9002.7272      10112.159    
     38700   314.09228     -3239.8631     -3258.0111      18.148027      8652.7681      10112.159    
     38800   299.35021     -3239.2115     -3256.5077      17.296241      9330.4804      10112.159    
     38900   314.11164     -3238.2539     -3256.4031      18.149146      9250.0078      10112.159    
     39000   306.33807     -3238.1262     -3255.8262      17.699994      9516.6519      10112.159    
     39100   309.87493     -3239.8203     -3257.7246      17.904352      8926.3249      10112.159    
     39200   297.63415     -3240.7961     -3257.9932      17.197088      8514.125       10112.159    
     39300   292.00607     -3240.8127     -3257.6846      16.871902      8963.3367      10112.159    
     39400   296.77067     -3240.0202     -3257.1674      17.147197      8963.5128      10112.159    
     39500   319.83425     -3238.4481     -3256.9279      18.479794      9335.9333      10112.159    
     39600   315.60961     -3238.4692     -3256.7049      18.235698      9452.1505      10112.159    
     39700   299.15006     -3239.2868     -3256.5715      17.284677      9213.4117      10112.159    
     39800   294.5572      -3239.9498     -3256.9691      17.019305      8750.1161      10112.159    
     39900   305.59287     -3239.9126     -3257.5695      17.656938      8926.1358      10112.159    
     40000   296.00364     -3240.0205     -3257.1234      17.102878      9057.0415      10112.159    
     40100   290.35401     -3240.1777     -3256.9542      16.776447      8702.5458      10112.159    
     40200   312.98107     -3239.9252     -3258.009       18.083822      8496.6238      10112.159    
     40300   299.70673     -3239.565      -3256.8818      17.31684       9029.5852      10112.159    
     40400   313.31991     -3239.0593     -3257.1627      18.1034        9155.2843      10112.159    
     40500   297.2109      -3239.5679     -3256.7405      17.172633      8867.2559      10112.159    
     40600   293.57193     -3240.3554     -3257.3178      16.962376      8933.3842      10112.159    
     40700   274.52727     -3241.472      -3257.3339      15.861989      8854.9481      10112.159    
     40800   289.04213     -3241.5203     -3258.2209      16.700648      8563.7216      10112.159    
     40900   301.78659     -3239.8861     -3257.3231      17.437013      8910.4129      10112.159    
     41000   313.59142     -3238.8037     -3256.9228      18.119088      9144.7339      10112.159    
     41100   308.443       -3238.825      -3256.6466      17.821616      9257.0773      10112.159    
     41200   283.77576     -3239.988      -3256.3843      16.396361      8813.8813      10112.159    
     41300   301.71487     -3240.7276     -3258.1604      17.432869      8668.3688      10112.159    
     41400   297.34426     -3240.896      -3258.0763      17.180338      8676.5867      10112.159    
     41500   293.39443     -3240.4433     -3257.3955      16.95212       8815.2833      10112.159    
     41600   298.73922     -3240.0867     -3257.3477      17.260938      8608.5324      10112.159    
     41700   299.70427     -3239.7837     -3257.1004      17.316698      9248.858       10112.159    
     41800   301.49315     -3239.3784     -3256.7984      17.420059      9194.1144      10112.159    
     41900   303.53419     -3239.2169     -3256.7549      17.537988      9043.6112      10112.159    
     42000   305.33526     -3239.7437     -3257.3858      17.642053      8875.7612      10112.159    
     42100   296.01677     -3240.6332     -3257.7368      17.103637      8854.301       10112.159    
     42200   270.32776     -3241.5646     -3257.1839      15.619344      8591.3652      10112.159    
     42300   299.58327     -3240.7036     -3258.0133      17.309707      8729.6173      10112.159    
     42400   315.33032     -3239.2838     -3257.5034      18.21956       8885.2063      10112.159    
     42500   308.17675     -3239.1203     -3256.9266      17.806232      9075.7799      10112.159    
     42600   297.32981     -3239.6753     -3256.8548      17.179504      8962.8702      10112.159    
     42700   288.68937     -3240.6492     -3257.3294      16.680265      8728.2967      10112.159    
     42800   300.87783     -3240.7241     -3258.1086      17.384506      8673.2232      10112.159    
     42900   310.55032     -3239.4814     -3257.4248      17.943375      8764.448       10112.159    
     43000   310.77496     -3238.1343     -3256.0907      17.956355      9463.9411      10112.159    
     43100   322.73426     -3238.0623     -3256.7096      18.647355      9104.7617      10112.159    
     43200   283.49573     -3239.5219     -3255.9021      16.380181      8836.4284      10112.159    
     43300   314.61512     -3240.0368     -3258.215       18.178236      8498.3974      10112.159    
     43400   292.3329      -3240.4317     -3257.3225      16.890786      8788.3314      10112.159    
     43500   304.42681     -3239.8586     -3257.4481      17.589563      9036.9702      10112.159    
     43600   292.64617     -3239.624      -3256.5329      16.908886      8736.9483      10112.159    
     43700   301.53642     -3238.5171     -3255.9396      17.422559      9268.7742      10112.159    
     43800   322.96031     -3237.9657     -3256.6261      18.660416      9138.6932      10112.159    
     43900   312.19245     -3239.1169     -3257.1552      18.038257      9147.2337      10112.159    
     44000   285.3863      -3240.2615     -3256.7509      16.489416      8843.2964      10112.159    
     44100   296.15075     -3240.4905     -3257.6019      17.111378      8336.9186      10112.159    
     44200   292.71381     -3240.5004     -3257.4132      16.912795      8497.3031      10112.159    
     44300   318.8838      -3239.42       -3257.8449      18.424878      8660.6323      10112.159    
     44400   300.04812     -3238.2424     -3255.579       17.336566      9292.101       10112.159    
     44500   335.43333     -3236.279      -3255.6601      19.381098      9436.8862      10112.159    
     44600   314.74591     -3237.5425     -3255.7283      18.185794      9666.6408      10112.159    
     44700   301.22716     -3238.3927     -3255.7974      17.40469       8947.3327      10112.159    
     44800   313.01887     -3239.5298     -3257.6158      18.086006      8744.5783      10112.159    
     44900   293.833       -3240.8196     -3257.797       16.97746       8587.9038      10112.159    
     45000   295.16858     -3241.0669     -3258.1215      17.054629      8436.2195      10112.159    
     45100   284.71836     -3240.4393     -3256.8901      16.450823      8680.1816      10112.159    
     45200   324.45357     -3238.8271     -3257.5738      18.746695      8797.5472      10112.159    
     45300   297.70209     -3239.19       -3256.391       17.201014      8861.9661      10112.159    
     45400   304.31937     -3239.6997     -3257.2831      17.583355      9104.8897      10112.159    
     45500   286.79556     -3241.0478     -3257.6186      16.570842      8616.2727      10112.159    
     45600   290.69906     -3241.1921     -3257.9885      16.796384      8389.5342      10112.159    
     45700   298.19398     -3240.6102     -3257.8397      17.229435      9067.7398      10112.159    
     45800   290.42814     -3240.1383     -3256.919       16.78073       8757.706       10112.159    
     45900   319.91129     -3239.4408     -3257.9251      18.484245      9057.4782      10112.159    
     46000   292.74085     -3239.7008     -3256.6152      16.914357      8907.6431      10112.159    
     46100   284.08509     -3240.1418     -3256.556       16.414233      8930.9448      10112.159    
     46200   294.98963     -3241.1979     -3258.2422      17.04429       8651.6665      10112.159    
     46300   292.25716     -3241.601      -3258.4875      16.88641       8557.1074      10112.159    
     46400   304.16246     -3240.0105     -3257.5848      17.574289      8737.9507      10112.159    
     46500   290.66538     -3239.2415     -3256.036       16.794438      9223.8779      10112.159    
     46600   320.49636     -3238.8688     -3257.3869      18.518051      9182.1839      10112.159    
     46700   292.24593     -3239.788      -3256.6738      16.885761      9159.8854      10112.159    
     46800   298.63626     -3240.3886     -3257.6436      17.254989      9131.1445      10112.159    
     46900   301.70719     -3241.0113     -3258.4437      17.432426      8415.1937      10112.159    
     47000   279.67947     -3242.2241     -3258.3838      16.15968       8794.4404      10112.159    
     47100   282.50598     -3241.5883     -3257.9113      16.322994      8848.3792      10112.159    
     47200   291.76996     -3240.0275     -3256.8858      16.85826       9138.5722      10112.159    
     47300   313.33278     -3239.3977     -3257.5019      18.104144      8855.3439      10112.159    
     47400   291.65047     -3239.5629     -3256.4142      16.851356      9326.8836      10112.159    
     47500   297.00793     -3239.3827     -3256.5436      17.160906      9285.5671      10112.159    
     47600   303.31686     -3240.0881     -3257.6136      17.525431      8807.935       10112.159    
     47700   287.33467     -3241.3176     -3257.9196      16.601992      8812.0304      10112.159    
     47800   294.04484     -3241.2629     -3258.2526      16.989701      8820.1897      10112.159    
     47900   287.65343     -3239.9305     -3256.5509      16.62041       8960.6028      10112.159    
     48000   315.39719     -3238.7207     -3256.9441      18.223424      9575.2837      10112.159    
     48100   304.33095     -3239.2003     -3256.7843      17.584025      9076.4145      10112.159    
     48200   290.09977     -3240.0459     -3256.8077      16.761757      9243.4461      10112.159    
     48300   302.447       -3240.83       -3258.3051      17.475171      8653.3884      10112.159    
     48400   274.26858     -3241.94       -3257.787       15.847042      8598.3351      10112.159    
     48500   304.29741     -3240.651      -3258.2331      17.582087      8764.5102      10112.159    
     48600   290.85586     -3239.0921     -3255.8976      16.805444      9691.9752      10112.159    
     48700   300.91476     -3238.7542     -3256.1409      17.38664       9336.4284      10112.159    
     48800   310.37996     -3239.5359     -3257.4695      17.933532      8822.5555      10112.159    
     48900   312.27607     -3240.2059     -3258.249       18.043088      8677.7362      10112.159    
     49000   278.93858     -3240.5917     -3256.7086      16.116871      9153.6624      10112.159    
     49100   297.12351     -3240.1191     -3257.2866      17.167584      8949.8999      10112.159    
     49200   319.26654     -3238.6316     -3257.0786      18.446992      9356.2749      10112.159    
     49300   330.37488     -3237.307      -3256.3959      19.088824      9502.9351      10112.159    
     49400   306.52853     -3238.1334     -3255.8444      17.710999      9640.382       10112.159    
     49500   317.55954     -3239.2214     -3257.5698      18.348363      8983.1725      10112.159    
     49600   282.37629     -3240.0431     -3256.3586      16.3155        9023.4375      10112.159    
     49700   295.52803     -3240.0626     -3257.138       17.075398      9089.1254      10112.159    
     49800   294.60977     -3240.6399     -3257.6622      17.022342      8849.5677      10112.159    
     49900   298.21466     -3241.0591     -3258.2897      17.23063       8557.7425      10112.159    
     50000   297.86682     -3239.927      -3257.1375      17.210532      8829.0466      10112.159    
     50100   299.25345     -3238.7644     -3256.055       17.29065       9672.883       10112.159    
     50200   307.89103     -3238.8848     -3256.6745      17.789724      9423.5135      10112.159    
     50300   298.58379     -3240.1449     -3257.3968      17.251958      8704.5253      10112.159    
     50400   301.03005     -3240.6751     -3258.0684      17.393301      8782.6274      10112.159    
     50500   292.0717      -3240.5854     -3257.4611      16.875694      8910.0373      10112.159    
     50600   283.66826     -3239.9673     -3256.3575      16.390149      9379.9721      10112.159    
     50700   300.80001     -3239.4234     -3256.8034      17.380009      8989.4467      10112.159    
     50800   317.80643     -3239.3474     -3257.71        18.362628      8934.2289      10112.159    
     50900   300.97002     -3239.8268     -3257.2166      17.389833      8818.6729      10112.159    
     51000   284.0828      -3241.7525     -3258.1666      16.414101      8557.8332      10112.159    
     51100   280.30737     -3241.7593     -3257.9552      16.195959      8660.3438      10112.159    
     51200   295.07799     -3240.3818     -3257.4312      17.049395      8832.8778      10112.159    
     51300   308.6088      -3239.4687     -3257.2999      17.831196      9204.3819      10112.159    
     51400   310.86922     -3239.0316     -3256.9934      17.961801      9165.9622      10112.159    
     51500   299.45778     -3239.4286     -3256.731       17.302456      9226.5203      10112.159    
     51600   284.79992     -3241.3683     -3257.8238      16.455536      8970.5606      10112.159    
     51700   284.61021     -3241.4258     -3257.8703      16.444574      8783.1097      10112.159    
     51800   294.78499     -3240.5327     -3257.5652      17.032466      8723.3683      10112.159    
     51900   309.72843     -3239.4731     -3257.369       17.895887      9104.8959      10112.159    
     52000   302.62635     -3239.2286     -3256.7141      17.485534      9641.1137      10112.159    
     52100   301.25284     -3239.571      -3256.9771      17.406173      8984.9772      10112.159    
     52200   299.30853     -3240.0754     -3257.3692      17.293833      9111.7361      10112.159    
     52300   284.45276     -3240.9394     -3257.3748      16.435477      8847.061       10112.159    
     52400   298.55053     -3242.2004     -3259.4504      17.250036      8261.8399      10112.159    
     52500   269.47643     -3242.0438     -3257.6139      15.570155      8815.4376      10112.159    
     52600   281.77114     -3240.5069     -3256.7874      16.280535      8895.3504      10112.159    
     52700   321.22093     -3239.5059     -3258.0658      18.559915      8815.3875      10112.159    
     52800   304.51908     -3239.5283     -3257.1232      17.594895      9237.9978      10112.159    
     52900   280.66391     -3240.2658     -3256.4823      16.21656       9153.9656      10112.159    
     53000   298.25351     -3240.5284     -3257.7613      17.232874      9036.4161      10112.159    
     53100   294.70638     -3239.751      -3256.779       17.027924      9131.5583      10112.159    
     53200   320.739       -3238.3777     -3256.9097      18.53207       9410.5781      10112.159    
     53300   311.6932      -3238.4619     -3256.4713      18.00941       9493.6405      10112.159    
     53400   294.99162     -3240.2532     -3257.2976      17.044405      9052.1119      10112.159    
     53500   281.62912     -3240.6647     -3256.937       16.272329      9027.1424      10112.159    
     53600   302.55478     -3239.9288     -3257.4102      17.481399      9007.7381      10112.159    
     53700   308.55353     -3239.0409     -3256.869       17.828002      9191.8017      10112.159    
     53800   324.86662     -3238.3731     -3257.1437      18.770561      8865.5637      10112.159    
     53900   292.58015     -3239.9788     -3256.8838      16.905072      8931.7585      10112.159    
     54000   288.86385     -3241.0389     -3257.7293      16.690347      8749.6391      10112.159    
     54100   283.17861     -3240.8136     -3257.1754      16.361857      9115.1516      10112.159    
     54200   305.58003     -3239.6237     -3257.2799      17.656196      9003.2065      10112.159    
     54300   303.63502     -3239.0171     -3256.5609      17.543814      9453.1709      10112.159    
     54400   303.99305     -3239.205      -3256.7695      17.564501      9692.028       10112.159    
     54500   281.17092     -3240.9491     -3257.195       16.245855      8862.3984      10112.159    
     54600   290.92331     -3241.4497     -3258.259       16.809341      8624.1171      10112.159    
     54700   289.55212     -3240.8343     -3257.5644      16.730114      8819.1597      10112.159    
     54800   307.7649      -3239.654      -3257.4364      17.782436      9272.7643      10112.159    
     54900   288.48735     -3239.6512     -3256.3198      16.668593      9464.1909      10112.159    
     55000   313.29872     -3239.2679     -3257.3701      18.102176      9178.686       10112.159    
     55100   296.69706     -3239.2446     -3256.3875      17.142944      9486.093       10112.159    
     55200   294.67454     -3240.2173     -3257.2434      17.026084      9129.648       10112.159    
     55300   299.70201     -3241.0196     -3258.3362      17.316568      8647.7644      10112.159    
     55400   291.69178     -3241.0492     -3257.903       16.853742      8836.6589      10112.159    
     55500   304.65345     -3239.7413     -3257.344       17.602659      8984.5638      10112.159    
     55600   307.36862     -3238.7836     -3256.5431      17.759539      9243.0636      10112.159    
     55700   309.89253     -3238.6955     -3256.6008      17.905369      9800.6781      10112.159    
     55800   308.41397     -3239.2994     -3257.1193      17.819939      9042.3257      10112.159    
     55900   295.61667     -3239.9063     -3256.9868      17.08052       9376.9668      10112.159    
     56000   303.76716     -3239.829      -3257.3805      17.551449      9058.3         10112.159    
     56100   311.31675     -3240.0118     -3257.9994      17.987659      8571.7278      10112.159    
     56200   274.41119     -3241.2921     -3257.1474      15.855282      9091.4696      10112.159    
     56300   296.63031     -3241.1993     -3258.3384      17.139087      8928.1466      10112.159    
     56400   299.42027     -3239.5197     -3256.82        17.300289      9062.1376      10112.159    
     56500   302.92452     -3239.1329     -3256.6357      17.502762      9659.763       10112.159    
     56600   295.4786      -3239.7857     -3256.8582      17.072542      9287.77        10112.159    
     56700   300.16092     -3240.4243     -3257.7674      17.343084      9016.4835      10112.159    
     56800   288.41869     -3241.2976     -3257.9622      16.664625      8730.5961      10112.159    
     56900   292.95925     -3241.1464     -3258.0734      16.926976      8822.8854      10112.159    
     57000   299.01362     -3239.2151     -3256.4919      17.276793      9219.3974      10112.159    
     57100   297.29073     -3239.0526     -3256.2299      17.177246      9247.1185      10112.159    
     57200   303.77879     -3239.467      -3257.0191      17.552121      8939.2711      10112.159    
     57300   301.54382     -3240.3418     -3257.7648      17.422986      8969.9876      10112.159    
     57400   284.225       -3241.634      -3258.0563      16.422317      8605.1901      10112.159    
     57500   295.49299     -3241.4251     -3258.4985      17.073374      8673.3062      10112.159    
     57600   293.47135     -3239.6954     -3256.652       16.956565      9168.1797      10112.159    
     57700   309.94497     -3238.8809     -3256.7893      17.908399      9207.3676      10112.159    
     57800   303.78091     -3239.3883     -3256.9406      17.552244      9015.1662      10112.159    
     57900   292.72949     -3240.5287     -3257.4424      16.913701      8591.2474      10112.159    
     58000   295.83935     -3241.0468     -3258.1402      17.093386      8513.8657      10112.159    
     58100   298.21407     -3240.3527     -3257.5833      17.230595      8847.0759      10112.159    
     58200   300.58645     -3239.1824     -3256.55        17.36767       9189.5736      10112.159    
     58300   302.06715     -3239.0079     -3256.4611      17.453224      9338.4064      10112.159    
     58400   315.55638     -3239.2422     -3257.4748      18.232622      9188.6414      10112.159    
     58500   290.38845     -3239.8131     -3256.5915      16.778437      8765.2644      10112.159    
     58600   306.78632     -3239.7852     -3257.5111      17.725894      9113.6565      10112.159    
     58700   285.67171     -3240.3339     -3256.8398      16.505907      8742.6568      10112.159    
     58800   296.6067      -3240.2437     -3257.3814      17.137723      8832.1014      10112.159    
     58900   313.56395     -3238.8306     -3256.9481      18.117501      8986.747       10112.159    
     59000   323.98025     -3238.1817     -3256.9011      18.719347      9073.0845      10112.159    
     59100   289.89566     -3239.2328     -3255.9828      16.749964      9290.2811      10112.159    
     59200   304.54478     -3240.2413     -3257.8377      17.596379      8508.9127      10112.159    
     59300   290.4794      -3240.7593     -3257.543       16.783692      8845.9363      10112.159    
     59400   304.09016     -3240.3718     -3257.9419      17.570112      9013.7718      10112.159    
     59500   283.88796     -3240.169      -3256.5719      16.402843      8748.6019      10112.159    
     59600   325.4793      -3238.7657     -3257.5716      18.805961      9031.9041      10112.159    
     59700   308.81317     -3238.7905     -3256.6335      17.843004      9001.1351      10112.159    
     59800   302.83977     -3239.7699     -3257.2678      17.497866      8904.4681      10112.159    
     59900   283.80104     -3241.1767     -3257.5745      16.397821      8645.9492      10112.159    
     60000   287.93559     -3241.5436     -3258.1803      16.636712      8887.9776      10112.159    
     60100   272.8349      -3242.4151     -3258.1794      15.764205      8629.3719      10112.159    
     60200   285.94095     -3241.3289     -3257.8503      16.521464      8511.8413      10112.159    
     60300   310.02017     -3239.8142     -3257.7269      17.912744      8935.4048      10112.159    
     60400   287.58671     -3239.2592     -3255.8758      16.616554      9323.9809      10112.159    
     60500   309.04392     -3238.7771     -3256.6334      17.856337      8883.5874      10112.159    
     60600   304.92413     -3239.7773     -3257.3956      17.618298      9057.3985      10112.159    
     60700   302.37589     -3240.7767     -3258.2477      17.471062      8465.3215      10112.159    
     60800   284.74081     -3241.0577     -3257.5098      16.452121      8611.6076      10112.159    
     60900   305.2247      -3239.3703     -3257.006       17.635665      8823.8899      10112.159    
     61000   311.6307      -3238.3779     -3256.3837      18.005799      9433.3923      10112.159    
     61100   302.93177     -3239.2705     -3256.7737      17.503181      9172.6376      10112.159    
     61200   299.30261     -3240.279      -3257.5725      17.293491      9006.8197      10112.159    
     61300   290.18078     -3241.0277     -3257.7941      16.766438      8602.3505      10112.159    
     61400   290.68528     -3240.7382     -3257.5338      16.795587      8698.2389      10112.159    
     61500   315.00853     -3238.8524     -3257.0533      18.200967      9032.4426      10112.159    
     61600   305.24806     -3239.0777     -3256.7147      17.637015      8971.5928      10112.159    
     61700   303.29681     -3239.747      -3257.2713      17.524273      9201.7473      10112.159    
     61800   288.60097     -3240.6789     -3257.3541      16.675157      8759.3321      10112.159    
     61900   288.02821     -3241.1733     -3257.8154      16.642064      8568.4956      10112.159    
     62000   291.71484     -3240.5887     -3257.4438      16.855075      8507.9744      10112.159    
     62100   306.17428     -3239.2495     -3256.9401      17.690531      9097.1878      10112.159    
     62200   307.97045     -3238.9472     -3256.7415      17.794312      9641.4768      10112.159    
     62300   314.04819     -3239.3496     -3257.4951      18.14548       8795.6544      10112.159    
     62400   289.83527     -3240.8596     -3257.6061      16.746474      8366.9707      10112.159    
     62500   293.66116     -3240.9319     -3257.8994      16.967532      8629.5208      10112.159    
     62600   294.60302     -3240.4677     -3257.4896      17.021952      8904.009       10112.159    
     62700   318.87815     -3238.9034     -3257.328       18.424551      8846.3313      10112.159    
     62800   308.28559     -3238.0444     -3255.8569      17.812521      9378.9266      10112.159    
     62900   304.3774      -3238.8387     -3256.4255      17.586708      9343.762       10112.159    
     63000   293.96543     -3239.8136     -3256.7987      16.985112      8928.3175      10112.159    
     63100   290.42744     -3240.4251     -3257.2058      16.78069       8726.3144      10112.159    
     63200   293.77539     -3240.923      -3257.8971      16.974132      8591.0796      10112.159    
     63300   290.00731     -3241.6502     -3258.4066      16.756415      8435.5935      10112.159    
     63400   273.95014     -3241.3578     -3257.1864      15.828643      8498.5603      10112.159    
     63500   309.91942     -3239.858      -3257.7649      17.906922      8934.7886      10112.159    
     63600   292.44124     -3239.4198     -3256.3169      16.897046      9390.7912      10112.159    
     63700   315.6661      -3238.7583     -3256.9973      18.238961      9168.3262      10112.159    
     63800   311.53578     -3239.3947     -3257.395       18.000315      8781.6914      10112.159    
     63900   282.6267      -3241.2926     -3257.6226      16.329969      8676.528       10112.159    
     64000   293.25398     -3241.0946     -3258.0386      16.944005      8752.3708      10112.159    
     64100   279.69095     -3240.3794     -3256.5398      16.160343      8946.8457      10112.159    
     64200   326.04427     -3239.0638     -3257.9024      18.838605      9139.9572      10112.159    
     64300   307.34651     -3239.1784     -3256.9367      17.758262      9128.0868      10112.159    
     64400   288.55433     -3239.6371     -3256.3096      16.672463      9023.4878      10112.159    
     64500   315.32556     -3239.7361     -3257.9554      18.219285      8994.9016      10112.159    
     64600   276.88341     -3241.2499     -3257.248       15.998126      9268.6133      10112.159    
     64700   293.79324     -3241.5657     -3258.5408      16.975163      8613.4587      10112.159    
     64800   304.60944     -3240.5708     -3258.1709      17.600116      8853.0201      10112.159    
     64900   301.62338     -3238.6595     -3256.0871      17.427583      9076.0889      10112.159    
     65000   320.0849      -3238.6445     -3257.1388      18.494276      9341.3457      10112.159    
     65100   288.41384     -3239.7525     -3256.4168      16.664345      9284.4757      10112.159    
     65200   295.15028     -3240.2901     -3257.3437      17.053572      8892.9835      10112.159    
     65300   313.28779     -3240.659      -3258.7606      18.101545      8556.9574      10112.159    
     65400   275.74828     -3241.4056     -3257.3381      15.932538      9036.0544      10112.159    
     65500   295.89829     -3240.8421     -3257.9388      17.096791      8974.5862      10112.159    
     65600   291.9179      -3239.7262     -3256.593       16.866807      9289.5659      10112.159    
     65700   306.52079     -3238.4091     -3256.1197      17.710552      9838.9857      10112.159    
     65800   328.03258     -3238.7945     -3257.748       18.953488      9007.1633      10112.159    
     65900   304.48682     -3239.6221     -3257.2151      17.593031      9005.142       10112.159    
     66000   278.63269     -3239.9035     -3256.0027      16.099197      9508.2641      10112.159    
     66100   310.38143     -3239.8107     -3257.7443      17.933617      8925.3225      10112.159    
     66200   301.37775     -3240.7764     -3258.1898      17.413391      8696.2188      10112.159    
     66300   283.77363     -3241.8358     -3258.232       16.396238      8349.4793      10112.159    
     66400   292.8052      -3241.8233     -3258.7414      16.918075      8598.187       10112.159    
     66500   278.23946     -3240.1955     -3256.272       16.076477      9455.3446      10112.159    
     66600   302.03687     -3239.1611     -3256.6126      17.451474      9617.1836      10112.159    
     66700   317.37601     -3239.1765     -3257.5143      18.337759      9234.0906      10112.159    
     66800   283.17261     -3240.4599     -3256.8214      16.361511      8867.7931      10112.159    
     66900   303.98371     -3240.5944     -3258.1584      17.563961      8863.7383      10112.159    
     67000   289.46399     -3240.3606     -3257.0856      16.725022      9118.986       10112.159    
     67100   316.57715     -3238.282      -3256.5736      18.291601      9422.2539      10112.159    
     67200   304.02933     -3238.1845     -3255.7511      17.566597      9627.1955      10112.159    
     67300   313.67001     -3238.997      -3257.1207      18.123629      9175.6402      10112.159    
     67400   300.44987     -3239.9204     -3257.2802      17.359779      8788.7124      10112.159    
     67500   295.56954     -3240.1733     -3257.2511      17.077796      9001.5199      10112.159    
     67600   300.87153     -3240.16       -3257.5442      17.384142      8935.3069      10112.159    
     67700   287.07791     -3239.9627     -3256.5499      16.587156      9393.0664      10112.159    
     67800   311.30829     -3238.7832     -3256.7704      17.98717       9388.5289      10112.159    
     67900   315.13686     -3238.8192     -3257.0276      18.208383      9080.7234      10112.159    
     68000   301.38414     -3239.998      -3257.4118      17.41376       8880.518       10112.159    
     68100   295.6686      -3241.004      -3258.0876      17.08352       8883.9534      10112.159    
     68200   285.17466     -3241.0864     -3257.5636      16.477188      8997.2738      10112.159    
     68300   291.1489      -3239.8118     -3256.6341      16.822375      9205.2674      10112.159    
     68400   313.36805     -3238.1079     -3256.2141      18.106182      9488.5103      10112.159    
     68500   316.68212     -3238.6969     -3256.9945      18.297666      9149.6885      10112.159    
     68600   303.63936     -3240.1417     -3257.6857      17.544065      8970.4773      10112.159    
     68700   285.06893     -3240.9825     -3257.4535      16.471079      8919.7083      10112.159    
     68800   288.86576     -3240.4944     -3257.1848      16.690457      9127.3705      10112.159    
     68900   298.51289     -3239.2602     -3256.5081      17.247861      9493.84        10112.159    
     69000   331.93585     -3238.7296     -3257.9086      19.179016      8744.0673      10112.159    
     69100   302.24181     -3239.3455     -3256.8088      17.463316      8882.1259      10112.159    
     69200   307.82476     -3239.73       -3257.5159      17.785894      9227.5489      10112.159    
     69300   295.64375     -3240.425      -3257.5071      17.082084      8715.384       10112.159    
     69400   292.16842     -3240.7265     -3257.6078      16.881282      8846.0949      10112.159    
     69500   303.68693     -3239.7741     -3257.3209      17.546813      8969.0061      10112.159    
     69600   322.81455     -3238.4269     -3257.0789      18.651994      9424.278       10112.159    
     69700   290.75147     -3239.157      -3255.9564      16.799412      9316.0691      10112.159    
     69800   301.08675     -3240.036      -3257.4326      17.396577      9301.0803      10112.159    
     69900   286.16639     -3240.7843     -3257.3188      16.534489      9048.1243      10112.159    
     70000   297.16437     -3240.5496     -3257.7196      17.169945      8703.3377      10112.159    
     70100   303.21815     -3240.0817     -3257.6015      17.519728      9096.0068      10112.159    
     70200   287.15652     -3239.8103     -3256.402       16.591698      9245.7525      10112.159    
     70300   323.68427     -3239.0611     -3257.7633      18.702246      8858.2469      10112.159    
     70400   302.69109     -3239.5074     -3256.9967      17.489275      9013.4233      10112.159    
     70500   287.07169     -3240.7775     -3257.3643      16.586797      9134.9695      10112.159    
     70600   291.623       -3241.2801     -3258.1299      16.849768      8533.8877      10112.159    
     70700   287.72963     -3240.6389     -3257.2637      16.624812      8853.9294      10112.159    
     70800   311.50073     -3239.2303     -3257.2286      17.99829       9375.4667      10112.159    
     70900   295.41773     -3239.1915     -3256.2605      17.069025      9250.838       10112.159    
     71000   317.33727     -3239.1946     -3257.5301      18.33552       8752.4044      10112.159    
     71100   282.73746     -3240.6514     -3256.9878      16.336368      9293.6106      10112.159    
     71200   287.13737     -3240.8549     -3257.4455      16.590592      9116.4477      10112.159    
     71300   304.03852     -3240.5489     -3258.1161      17.567128      8848.8383      10112.159    
     71400   296.96628     -3240.3413     -3257.4998      17.158499      8828.5559      10112.159    
     71500   301.07987     -3239.5233     -3256.9195      17.39618       9159.9709      10112.159    
     71600   301.35588     -3238.2838     -3255.6959      17.412127      9620.8751      10112.159    
     71700   332.1075      -3237.3055     -3256.4945      19.188934      9965.7536      10112.159    
     71800   296.26712     -3239.4251     -3256.5432      17.118102      9129.4036      10112.159    
     71900   304.72669     -3240.2258     -3257.8327      17.60689       9116.1914      10112.159    
     72000   288.13982     -3241.0207     -3257.6692      16.648513      8834.505       10112.159    
     72100   290.49467     -3240.6926     -3257.4772      16.784574      8836.5783      10112.159    
     72200   302.0485      -3239.4569     -3256.909       17.452146      9554.0536      10112.159    
     72300   317.52772     -3238.8677     -3257.2143      18.346525      9304.3927      10112.159    
     72400   287.17654     -3239.3975     -3255.9904      16.592855      9411.6047      10112.159    
     72500   315.94407     -3239.5118     -3257.7668      18.255022      9058.0461      10112.159    
     72600   303.65986     -3239.9347     -3257.4799      17.54525       8908.5469      10112.159    
     72700   295.23686     -3240.5263     -3257.5848      17.058575      8810.3048      10112.159    
     72800   289.58299     -3241.0946     -3257.8265      16.731898      8782.6011      10112.159    
     72900   294.18008     -3240.4047     -3257.4022      16.997515      9207.1749      10112.159    
     73000   310.24618     -3238.8754     -3256.8012      17.925802      8994.8753      10112.159    
     73100   306.59454     -3238.7368     -3256.4516      17.714813      9569.0785      10112.159    
     73200   297.39109     -3239.696      -3256.879       17.183045      9206.5922      10112.159    
     73300   291.15636     -3240.9352     -3257.758       16.822806      8959.5529      10112.159    
     73400   292.83227     -3241.1621     -3258.0817      16.919639      8706.6474      10112.159    
     73500   286.79074     -3240.7825     -3257.3531      16.570564      8690.1702      10112.159    
     73600   309.8882      -3239.8919     -3257.797       17.905119      9160.3485      10112.159    
     73700   301.12937     -3239.4477     -3256.8468      17.39904       8934.6764      10112.159    
     73800   308.40278     -3239.0761     -3256.8954      17.819292      9205.8192      10112.159    
     73900   285.34476     -3239.7303     -3256.2173      16.487016      8956.0421      10112.159    
     74000   297.9488      -3240.9217     -3258.1369      17.215268      8929.3337      10112.159    
     74100   284.02227     -3241.5024     -3257.913       16.410603      8741.8332      10112.159    
     74200   304.18722     -3240.3404     -3257.9162      17.57572       9020.1143      10112.159    
     74300   302.70634     -3239.6744     -3257.1645      17.490156      9385.2262      10112.159    
     74400   296.54557     -3239.6165     -3256.7507      17.134191      9202.8637      10112.159    
     74500   301.43651     -3239.3807     -3256.7974      17.416786      9134.459       10112.159    
     74600   301.83884     -3239.7367     -3257.1767      17.440032      8828.0405      10112.159    
     74700   295.1221      -3241.464      -3258.516       17.051944      8704.7763      10112.159    
     74800   277.47576     -3241.71       -3257.7423      16.032351      8593.9444      10112.159    
     74900   285.04755     -3240.6443     -3257.1141      16.469844      9048.5096      10112.159    
     75000   299.16754     -3240.0019     -3257.2876      17.285687      9146.4572      10112.159    
     75100   314.22566     -3239.3937     -3257.5495      18.155734      8556.8857      10112.159    
     75200   317.04371     -3239.1218     -3257.4403      18.318559      9179.173       10112.159    
     75300   280.25154     -3240.449      -3256.6417      16.192734      9382.8392      10112.159    
     75400   275.84588     -3241.6245     -3257.5626      15.938178      8914.1725      10112.159    
[...]
    281800   297.11105     -3240.7999     -3257.9667      17.166864      8934.0597      10112.159    
    281900   292.14902     -3241.8076     -3258.6878      16.880162      8553.3166      10112.159    
    282000   280.86014     -3241.5377     -3257.7656      16.227898      8868.6196      10112.159    
    282100   297.85544     -3239.5283     -3256.7382      17.209874      9559.8161      10112.159    
    282200   314.09738     -3238.8583     -3257.0066      18.148322      9252.0488      10112.159    
    282300   303.19106     -3239.2655     -3256.7837      17.518163      8979.7683      10112.159    
    282400   296.52129     -3240.2302     -3257.363       17.132788      9103.2465      10112.159    
    282500   292.10082     -3241.2891     -3258.1665      16.877376      8651.1551      10112.159    
    282600   280.57205     -3241.7861     -3257.9973      16.211253      8738.2479      10112.159    
    282700   299.11383     -3240.0093     -3257.2919      17.282583      9005.7977      10112.159    
    282800   317.39353     -3238.7415     -3257.0802      18.338771      9215.1288      10112.159    
    282900   315.40754     -3238.7382     -3256.9622      18.224022      9311.2203      10112.159    
    283000   283.62943     -3240.1324     -3256.5203      16.387906      8925.518       10112.159    
    283100   299.42126     -3240.5917     -3257.892       17.300346      9113.744       10112.159    
    283200   300.23808     -3240.3892     -3257.7368      17.347541      8976.0173      10112.159    
    283300   302.23671     -3239.7168     -3257.1798      17.463021      9389.7159      10112.159    
    283400   315.23935     -3238.0565     -3256.2708      18.214304      9396.5144      10112.159    
    283500   308.0525      -3237.2534     -3255.0524      17.799053      9759.2171      10112.159    
    283600   315.38651     -3238.6291     -3256.8519      18.222807      9541.8526      10112.159    
    283700   304.24404     -3239.86       -3257.439       17.579003      9128.3394      10112.159    
    283800   316.97935     -3239.9964     -3258.3112      18.31484       8881.951       10112.159    
    283900   280.36383     -3240.1224     -3256.3216      16.199221      9386.2479      10112.159    
    284000   300.59689     -3239.3538     -3256.7221      17.368273      9240.8197      10112.159    
    284100   319.91133     -3239.0513     -3257.5356      18.484248      9071.8119      10112.159    
    284200   311.08359     -3239.8998     -3257.874       17.974187      8931.345       10112.159    
    284300   275.96343     -3241.0106     -3256.9555      15.94497       8914.0286      10112.159    
    284400   298.54448     -3240.3861     -3257.6358      17.249686      9087.5325      10112.159    
    284500   303.82399     -3239.4254     -3256.9801      17.554733      9190.0068      10112.159    
    284600   317.5877      -3237.7939     -3256.1439      18.34999       9826.8421      10112.159    
    284700   306.61903     -3238.0018     -3255.718       17.716228      9863.506       10112.159    
    284800   307.66466     -3239.1023     -3256.879       17.776644      9360.6279      10112.159    
    284900   294.06413     -3239.8849     -3256.8758      16.990815      9235.7421      10112.159    
    285000   301.81299     -3240.2496     -3257.6882      17.438538      9023.5846      10112.159    
    285100   292.58368     -3240.3113     -3257.2166      16.905276      9203.681       10112.159    
    285200   299.23386     -3239.9163     -3257.2058      17.289518      9011.7351      10112.159    
    285300   319.37274     -3238.9664     -3257.4195      18.453129      9359.8224      10112.159    
    285400   307.53055     -3238.8006     -3256.5695      17.768895      9093.7448      10112.159    
    285500   301.08944     -3239.9119     -3257.3086      17.396732      9005.5749      10112.159    
    285600   281.0493      -3241.3014     -3257.5403      16.238827      8991.5352      10112.159    
    285700   290.64274     -3241.1132     -3257.9063      16.79313       8698.6031      10112.159    
    285800   311.72339     -3240.2314     -3258.2426      18.011155      8858.1504      10112.159    
    285900   283.79664     -3240.1879     -3256.5855      16.397567      9071.152       10112.159    
    286000   309.79258     -3239.7606     -3257.6602      17.899594      8925.2544      10112.159    
    286100   300.49798     -3239.9782     -3257.3408      17.362559      9192.0721      10112.159    
    286200   296.61694     -3240.3093     -3257.4476      17.138315      8916.9335      10112.159    
    286300   304.79247     -3240.2145     -3257.8252      17.610691      8942.0489      10112.159    
    286400   294.08041     -3239.6917     -3256.6835      16.991756      9256.8257      10112.159    
    286500   307.8917      -3238.7574     -3256.5471      17.789763      9320.0853      10112.159    
    286600   315.21104     -3238.7244     -3256.9371      18.212668      9366.4336      10112.159    
    286700   296.16658     -3240.5814     -3257.6937      17.112293      8902.2741      10112.159    
    286800   301.08742     -3240.7788     -3258.1754      17.396616      8807.1824      10112.159    
    286900   284.70533     -3240.3943     -3256.8444      16.45007       9348.8931      10112.159    
    287000   306.47766     -3239.2322     -3256.9403      17.70806       9180.6646      10112.159    
    287100   319.99377     -3238.7965     -3257.2856      18.489011      8898.4951      10112.159    
    287200   300.68966     -3239.4937     -3256.8673      17.373633      9250.9854      10112.159    
    287300   275.37979     -3242.0517     -3257.9629      15.911247      8686.2455      10112.159    
    287400   289.03134     -3241.4868     -3258.1868      16.700024      8527.4534      10112.159    
    287500   303.75503     -3239.9114     -3257.4622      17.550749      9111.4308      10112.159    
    287600   306.13832     -3238.9983     -3256.6867      17.688453      9184.4685      10112.159    
    287700   304.68888     -3238.7383     -3256.343       17.604705      9406.8155      10112.159    
    287800   306.57649     -3239.7175     -3257.4313      17.71377       9232.0954      10112.159    
    287900   295.90938     -3240.796      -3257.8934      17.097432      8687.8515      10112.159    
    288000   287.25138     -3240.6801     -3257.2773      16.597179      8848.5662      10112.159    
    288100   294.39508     -3239.9228     -3256.9327      17.009937      9147.6173      10112.159    
    288200   323.08665     -3238.3876     -3257.0554      18.667715      9319.5985      10112.159    
    288300   301.53843     -3238.136      -3255.5587      17.422675      9484.4704      10112.159    
    288400   316.70077     -3238.6775     -3256.9762      18.298744      9184.6634      10112.159    
    288500   291.85898     -3239.7265     -3256.5899      16.863403      9497.5322      10112.159    
    288600   292.79819     -3240.4517     -3257.3694      16.91767       8669.5748      10112.159    
    288700   297.55512     -3240.9183     -3258.1109      17.192522      8617.4197      10112.159    
    288800   319.89383     -3240.188      -3258.6713      18.483237      8942.6171      10112.159    
    288900   291.20803     -3238.8292     -3255.655       16.825792      9360.2141      10112.159    
    289000   299.14158     -3238.7268     -3256.011       17.284187      9379.5878      10112.159    
    289100   303.14576     -3239.2788     -3256.7943      17.515545      8949.5482      10112.159    
    289200   308.73789     -3239.7616     -3257.6002      17.838654      8997.5574      10112.159    
    289300   302.76292     -3240.072      -3257.5654      17.493425      8981.0867      10112.159    
    289400   291.7726      -3240.0959     -3256.9543      16.858412      9308.0093      10112.159    
    289500   297.20497     -3240.0117     -3257.184       17.17229       9344.1757      10112.159    
    289600   296.55976     -3239.8544     -3256.9894      17.135011      8802.3068      10112.159    
    289700   312.74603     -3239.696      -3257.7663      18.070242      8781.336       10112.159    
    289800   295.72809     -3240.2498     -3257.3368      17.086958      9152.5768      10112.159    
    289900   277.79707     -3241.3618     -3257.4127      16.050916      8708.8102      10112.159    
    290000   292.82637     -3241.5693     -3258.4886      16.919298      8440.0283      10112.159    
    290100   284.96003     -3240.4025     -3256.8673      16.464787      9192.8023      10112.159    
    290200   311.10563     -3239.2046     -3257.18        17.975461      8602.6455      10112.159    
    290300   303.92846     -3239.2766     -3256.8373      17.560769      9188.2746      10112.159    
    290400   303.8455      -3239.5638     -3257.1198      17.555976      9010.4164      10112.159    
    290500   299.01928     -3240.9063     -3258.1834      17.27712       8889.7082      10112.159    
    290600   277.34899     -3241.7691     -3257.7942      16.025026      8667.5102      10112.159    
    290700   292.92266     -3240.8911     -3257.816       16.924862      8800.4422      10112.159    
    290800   302.04266     -3240.0397     -3257.4915      17.451809      9174.5792      10112.159    
    290900   298.86541     -3239.594      -3256.8623      17.268229      9019.437       10112.159    
    291000   310.0088      -3239.5393     -3257.4514      17.912087      8770.4356      10112.159    
    291100   288.60797     -3240.3324     -3257.008       16.675562      8693.4028      10112.159    
    291200   286.37858     -3241.8423     -3258.3891      16.54675       8413.5948      10112.159    
    291300   280.95258     -3242.3836     -3258.6168      16.233239      8606.7691      10112.159    
    291400   300.34032     -3240.918      -3258.2715      17.353449      8463.4212      10112.159    
    291500   293.41096     -3240.1602     -3257.1132      16.953075      9041.9739      10112.159    
    291600   283.4636      -3239.5917     -3255.97        16.378324      9575.7206      10112.159    
    291700   321.10099     -3238.4857     -3257.0387      18.552986      9228.9381      10112.159    
    291800   314.42002     -3239.1748     -3257.3418      18.166964      9206.6279      10112.159    
    291900   292.27825     -3240.0966     -3256.9843      16.887628      8824.5668      10112.159    
    292000   294.61368     -3240.2681     -3257.2906      17.022568      8916.2228      10112.159    
    292100   294.31333     -3240.3484     -3257.3536      17.005214      8748.3357      10112.159    
    292200   309.52733     -3239.3443     -3257.2286      17.884268      9244.1862      10112.159    
    292300   309.54828     -3238.4653     -3256.3508      17.885478      9401.2614      10112.159    
    292400   303.57402     -3238.8781     -3256.4184      17.54029       9095.3576      10112.159    
    292500   291.81322     -3240.8099     -3257.6706      16.860759      8849.5318      10112.159    
    292600   294.23529     -3241.5546     -3258.5553      17.000705      8651.2513      10112.159    
    292700   292.22215     -3240.8558     -3257.7401      16.884387      8579.5496      10112.159    
    292800   289.79594     -3239.6857     -3256.4299      16.744202      9442.8121      10112.159    
    292900   321.87204     -3238.8744     -3257.4719      18.597536      8925.5964      10112.159    
    293000   314.77539     -3239.3447     -3257.5322      18.187497      9212.233       10112.159    
    293100   279.3498      -3240.5196     -3256.6603      16.140632      8912.2627      10112.159    
    293200   307.7929      -3240.6085     -3258.3925      17.784053      9018.1213      10112.159    
    293300   272.85418     -3241.4742     -3257.2395      15.765319      8776.7545      10112.159    
    293400   299.13847     -3242.0624     -3259.3464      17.284007      8104.458       10112.159    
    293500   298.56862     -3241.3677     -3258.6188      17.251081      8383.0768      10112.159    
    293600   284.3403      -3239.8829     -3256.3119      16.428979      9095.5428      10112.159    
    293700   312.7249      -3239.2012     -3257.2702      18.069021      8970.224       10112.159    
    293800   297.78084     -3239.7422     -3256.9478      17.205564      9471.6397      10112.159    
    293900   293.74759     -3240.3619     -3257.3345      16.972526      8878.1582      10112.159    
    294000   293.80848     -3241.3766     -3258.3527      16.976044      8427.3056      10112.159    
    294100   269.84476     -3242.1876     -3257.779       15.591437      8425.7451      10112.159    
    294200   289.9128      -3240.6322     -3257.3832      16.750954      8831.2133      10112.159    
    294300   307.21265     -3239.4919     -3257.2424      17.750527      8869.0401      10112.159    
    294400   316.25649     -3239.3409     -3257.6139      18.273074      8786.8508      10112.159    
    294500   293.80636     -3239.8972     -3256.8731      16.975921      8747.035       10112.159    
    294600   281.82103     -3240.6982     -3256.9816      16.283417      8785.1987      10112.159    
    294700   296.63128     -3241.4987     -3258.6378      17.139143      8376.4606      10112.159    
    294800   293.00853     -3241.7032     -3258.633       16.929823      8268.412       10112.159    
    294900   302.73677     -3239.9223     -3257.4143      17.491914      9273.1323      10112.159    
    295000   292.03631     -3239.5255     -3256.3991      16.873649      9240.0341      10112.159    
    295100   310.65156     -3239.1497     -3257.0989      17.949225      8691.6476      10112.159    
    295200   302.31215     -3239.4991     -3256.9665      17.46738       8976.9253      10112.159    
    295300   287.7932      -3240.9473     -3257.5757      16.628485      8922.9908      10112.159    
    295400   290.84751     -3241.224      -3258.0289      16.804961      8644.3041      10112.159    
    295500   312.24569     -3240.0732     -3258.1145      18.041333      8642.1859      10112.159    
    295600   318.31354     -3238.1348     -3256.5268      18.391929      9453.586       10112.159    
    295700   290.08654     -3238.8341     -3255.5951      16.760993      9356.3277      10112.159    
    295800   303.40949     -3239.5088     -3257.0395      17.530783      8756.5618      10112.159    
    295900   321.49339     -3239.8818     -3258.4574      18.575658      8820.2515      10112.159    
    296000   273.27918     -3241.0821     -3256.872       15.789875      8876.0095      10112.159    
    296100   294.1576      -3240.8389     -3257.8352      16.996216      8753.7858      10112.159    
    296200   312.36346     -3239.1594     -3257.2075      18.048138      8950.2791      10112.159    
    296300   318.31855     -3237.8462     -3256.2384      18.392218      9307.1044      10112.159    
    296400   312.69312     -3238.1671     -3256.2342      18.067185      9274.6103      10112.159    
    296500   295.53835     -3239.3094     -3256.3854      17.075994      9351.1479      10112.159    
    296600   291.32794     -3240.112      -3256.9447      16.83272       9083.7838      10112.159    
    296700   308.97095     -3240.3594     -3258.2116      17.852121      8854.5073      10112.159    
    296800   299.96836     -3240.8056     -3258.1376      17.331957      8635.4663      10112.159    
    296900   281.23619     -3240.9251     -3257.1748      16.249626      8731.0472      10112.159    
    297000   280.0269      -3240.1449     -3256.3247      16.179754      9408.6575      10112.159    
    297100   323.32771     -3238.76       -3257.4417      18.681644      8994.2321      10112.159    
    297200   305.17992     -3238.9518     -3256.5849      17.633077      8577.9701      10112.159    
    297300   298.54301     -3239.6631     -3256.9127      17.249601      9161.0498      10112.159    
    297400   284.27518     -3241.3093     -3257.7345      16.425216      8954.8435      10112.159    
    297500   282.13816     -3241.8546     -3258.1563      16.301741      8548.5141      10112.159    
    297600   285.46998     -3241.0959     -3257.5902      16.494251      8549.3042      10112.159    
    297700   294.77686     -3240.0765     -3257.1085      17.031996      9427.9016      10112.159    
    297800   303.01351     -3239.6209     -3257.1288      17.507904      9144.7745      10112.159    
    297900   305.90835     -3239.6154     -3257.2906      17.675166      8838.2953      10112.159    
    298000   291.65523     -3239.8684     -3256.7201      16.851631      9307.3782      10112.159    
    298100   280.3471      -3240.6607     -3256.8589      16.198255      8945.249       10112.159    
    298200   300.83721     -3240.7337     -3258.1158      17.382159      8598.7215      10112.159    
    298300   308.51176     -3240.0099     -3257.8355      17.825589      8831.942       10112.159    
    298400   301.53656     -3238.9317     -3256.3542      17.422567      9171.5313      10112.159    
    298500   313.4367      -3237.9873     -3256.0975      18.110148      9616.8089      10112.159    
    298600   304.35538     -3238.889      -3256.4744      17.585436      9000.0778      10112.159    
    298700   318.76247     -3239.313      -3257.7309      18.417867      8790.1145      10112.159    
    298800   285.95826     -3240.2096     -3256.7321      16.522464      8981.7317      10112.159    
    298900   306.78271     -3240.1325     -3257.8582      17.725686      8840.1572      10112.159    
    299000   310.30744     -3239.9879     -3257.9172      17.929342      8848.4463      10112.159    
    299100   298.15434     -3239.9549     -3257.1821      17.227145      9100.4532      10112.159    
    299200   301.34701     -3239.5556     -3256.9672      17.411615      8920.7962      10112.159    
    299300   311.31456     -3238.8295     -3256.8171      17.987533      9330.0972      10112.159    
    299400   302.32453     -3239.046      -3256.5141      17.468095      9122.5945      10112.159    
    299500   291.24803     -3240.5842     -3257.4123      16.828103      9011.5288      10112.159    
    299600   298.02217     -3241.1136     -3258.3332      17.219508      8643.0789      10112.159    
    299700   289.21617     -3240.7134     -3257.4241      16.710704      9226.1937      10112.159    
    299800   306.24083     -3239.6424     -3257.3368      17.694376      8943.6989      10112.159    
    299900   289.40457     -3239.3738     -3256.0954      16.721589      9031.1222      10112.159    
    300000   312.89615     -3239.2754     -3257.3544      18.078916      9055.38        10112.159    
Loop time of 2284.69 on 20 procs for 300000 steps with 448 atoms

Performance: 11.345 ns/day, 2.115 hours/ns, 131.309 timesteps/s, 58.826 katom-step/s
99.9% CPU use with 20 MPI tasks x 1 OpenMP threads

MPI task timing breakdown:
Section |  min time  |  avg time  |  max time  |%varavg| %total
---------------------------------------------------------------
Pair    | 1704.1     | 1995.9     | 2198.8     | 402.8 | 87.36
Neigh   | 19.921     | 27.001     | 35.315     | 103.7 |  1.18
Comm    | 47.356     | 258.61     | 557.81     |1151.9 | 11.32
Output  | 0.34442    | 0.5578     | 0.62211    |   7.5 |  0.02
Modify  | 2.0475     | 2.3065     | 2.5235     |   8.3 |  0.10
Other   |            | 0.2748     |            |       |  0.01

Nlocal:           22.4 ave          25 max          17 min
Histogram: 1 1 1 2 0 1 1 2 10 1
Nghost:          495.3 ave         522 max         465 min
Histogram: 4 0 0 6 2 0 0 0 1 7
Neighs:              0 ave           0 max           0 min
Histogram: 20 0 0 0 0 0 0 0 0 0
FullNghs:       1279.8 ave        1463 max         965 min
Histogram: 1 1 1 2 1 1 2 0 10 1

Total # of neighbors = 25596
Ave neighs/atom = 57.133929
Neighbor list builds = 300000
Dangerous builds not checked
Total wall time: 0:38:04
