ITEM: TIMESTEP
0
ITEM: NUMBER OF ATOMS
108

