LAMMPS (27 Jun 2024)
OMP_NUM_THREADS environment is not set. Defaulting to 1 thread. (src/comm.cpp:98)
  using 1 OpenMP thread(s) per MPI task
Reading data file ...
  orthogonal box = (0 0 0) to (22.422218 22.19224 20.321894)
  5 by 2 by 2 MPI processor grid
  reading atoms ...
  448 atoms
  read_data CPU = 0.005 seconds
**************** Begin of POD Potentials ****************
species: Hf 
periodic boundary conditions: 1 1 1
number of environment clusters: 8
number of principal compoments: 2
inner cut-off radius: 1
outer cut-off radius: 5
cut-off function type: 1
gaussian_exponents: 
polynomial_degrees: 
bessel polynomial degree: 4
inverse polynomial degree: 10
one-body potential: 1
two-body radial basis functions: 8
three-body radial basis functions: 8
three-body angular degree: 6
four-body radial basis functions: 7
four-body angular degree: 5
five-body radial basis functions: 0
five-body angular degree: 0
six-body radial basis functions: 0
six-body angular degree: 0
seven-body radial basis functions: 0
seven-body angular degree: 0
number of local descriptors per element for one-body potential: 1
number of local descriptors per element for two-body potential: 8
number of local descriptors per element for three-body potential: 56
number of local descriptors per element for four-body potential: 112
number of local descriptors per element for five-body potential: 0
number of local descriptors per element for six-body potential: 0
number of local descriptors per element for seven-body potential: 0
number of local descriptors per element for all potentials: 177
number of global descriptors: 1409
**************** End of POD Potentials ****************

**************** Begin of Model Coefficients ****************
total number of coefficients for POD potential: 1409
total number of elements for PCA projection matrix: 352
total number of elements for PCA centroids: 16
**************** End of Model Coefficients ****************


CITE-CITE-CITE-CITE-CITE-CITE-CITE-CITE-CITE-CITE-CITE-CITE-CITE

Your simulation uses code contributions which should be cited:
- Type Label Framework: https://doi.org/10.1021/acs.jpcb.3c08419
The log file lists these citations in BibTeX format.

CITE-CITE-CITE-CITE-CITE-CITE-CITE-CITE-CITE-CITE-CITE-CITE-CITE

Neighbor list info ...
  update: every = 1 steps, delay = 0 steps, check = no
  max neighbors/atom: 2000, page size: 100000
  master list distance cutoff = 7
  ghost atom cutoff = 7
  binsize = 3.5, bins = 7 7 6
  1 neighbor lists, perpetual/occasional/extra = 1 0 0
  (1) pair pod, perpetual
      attributes: full, newton on
      pair build: full/bin/atomonly
      stencil: full/bin/3d
      bin: standard
Setting up Verlet run ...
  Unit style    : metal
  Current step  : 0
  Time step     : 0.001
Per MPI rank memory allocation (min/avg/max) = 2.57 | 2.57 | 2.571 Mbytes
   Step          Temp          TotEng         PotEng         KinEng         Press          Volume    
         0   300           -3263.9145     -3281.2483      17.333785      1830.9177      10112.159    
       100   89.959082     -3263.0473     -3268.2451      5.1977714      3981.1934      10112.159    
       200   165.77831     -3259.7801     -3269.3587      9.5785521      4654.4809      10112.159    
       300   202.64954     -3255.855      -3267.564       11.708946      5172.717       10112.159    
       400   288.77908     -3251.8429     -3268.5284      16.685449      4876.8582      10112.159    
       500   318.27987     -3248.0185     -3266.4085      18.389984      5983.8277      10112.159    
       600   272.34968     -3245.3965     -3261.1327      15.73617       7476.4148      10112.159    
       700   312.06975     -3243.4713     -3261.5024      18.031167      8033.263       10112.159    
       800   301.57198     -3245.1771     -3262.6017      17.424613      7401.055       10112.159    
       900   302.65567     -3246.9194     -3264.4066      17.487228      6645.1869      10112.159    
      1000   306.76392     -3248.2649     -3265.9895      17.7246        6209.1251      10112.159    
      1100   280.24702     -3248.3577     -3264.5502      16.192472      6522.3928      10112.159    
      1200   288.90033     -3246.6189     -3263.3114      16.692454      7162.8493      10112.159    
      1300   283.46053     -3245.5415     -3261.9196      16.378147      7405.1437      10112.159    
      1400   327.7419      -3244.6307     -3263.5674      18.936693      7227.8704      10112.159    
      1500   314.87498     -3245.8871     -3264.0803      18.193251      6421.1878      10112.159    
      1600   313.02935     -3246.8505     -3264.9371      18.086612      6460.035       10112.159    
      1700   268.78383     -3247.8603     -3263.3904      15.530137      6921.7054      10112.159    
      1800   262.08846     -3247.6914     -3262.8347      15.143284      6839.6404      10112.159    
      1900   332.68792     -3245.9296     -3265.1521      19.22247       6854.3763      10112.159    
      2000   298.78056     -3246.0873     -3263.3506      17.263327      6617.9809      10112.159    
      2100   332.70536     -3245.6173     -3264.8408      19.223477      6967.7143      10112.159    
      2200   281.14625     -3246.5031     -3262.7475      16.24443       7017.1858      10112.159    
      2300   267.98072     -3247.1505     -3262.6343      15.483734      7153.3522      10112.159    
      2400   332.1495      -3246.6184     -3265.8098      19.19136       6355.1946      10112.159    
      2500   277.78886     -3247.197      -3263.2474      16.050442      6733.7173      10112.159    
      2600   322.69051     -3245.8645     -3264.5093      18.644827      6839.0549      10112.159    
      2700   275.86102     -3246.1955     -3262.1346      15.939053      7066.8101      10112.159    
      2800   284.81084     -3246.4351     -3262.8913      16.456166      7252.2094      10112.159    
      2900   321.08966     -3246.9998     -3265.5522      18.552331      6388.6716      10112.159    
      3000   293.96564     -3247.8766     -3264.8617      16.985124      6355.3821      10112.159    
      3100   296.45427     -3247.1277     -3264.2566      17.128916      6851.1001      10112.159    
      3200   283.05258     -3246.5968     -3262.9514      16.354575      7079.0876      10112.159    
      3300   309.48343     -3245.423      -3263.3047      17.881731      6917.561       10112.159    
      3400   316.08263     -3245.0957     -3263.3588      18.263028      6948.5347      10112.159    
      3500   296.11744     -3247.2635     -3264.3729      17.109454      6611.1351      10112.159    
      3600   284.25147     -3248.2038     -3264.6276      16.423847      6296.4582      10112.159    
      3700   286.57672     -3247.5522     -3264.1104      16.558198      6839.1576      10112.159    
      3800   296.59294     -3246.4616     -3263.5985      17.136928      6832.4234      10112.159    
      3900   321.78029     -3245.8635     -3264.4557      18.592235      6683.8544      10112.159    
      4000   299.5305      -3246.0643     -3263.371       17.306658      6930.3557      10112.159    
      4100   287.34558     -3246.9727     -3263.5753      16.602622      6748.0265      10112.159    
      4200   294.9725      -3247.8433     -3264.8866      17.0433        6413.386       10112.159    
      4300   265.99728     -3248.0396     -3263.4087      15.369133      6980.5085      10112.159    
      4400   312.39897     -3246.3058     -3264.3559      18.050189      6453.2315      10112.159    
      4500   324.86726     -3245.4602     -3264.2308      18.770598      7134.8779      10112.159    
      4600   278.1733      -3246.2143     -3262.287       16.072654      6821.2118      10112.159    
      4700   329.09626     -3246.1415     -3265.1564      19.014947      6653.31        10112.159    
      4800   284.30482     -3247.2212     -3263.6481      16.426929      6709.198       10112.159    
      4900   283.83355     -3247.5647     -3263.9644      16.3997        6757.5416      10112.159    
      5000   314.19568     -3247.2002     -3265.3542      18.154002      6384.3933      10112.159    
      5100   296.18211     -3246.4774     -3263.5906      17.113191      6772.5216      10112.159    
      5200   304.65986     -3245.3948     -3262.9978      17.603029      7396.1378      10112.159    
      5300   294.69975     -3245.467      -3262.4945      17.027541      7201.4828      10112.159    
      5400   307.67376     -3246.1916     -3263.9688      17.77717       6841.589       10112.159    
      5500   323.21188     -3246.6056     -3265.2806      18.674951      6363.4437      10112.159    
      5600   281.22659     -3247.2061     -3263.4551      16.249071      6997.4721      10112.159    
      5700   279.82355     -3246.9756     -3263.1436      16.168004      7080.9086      10112.159    
      5800   328.44724     -3244.7376     -3263.7151      18.977446      7074.0169      10112.159    
      5900   303.65215     -3244.8194     -3262.3642      17.544804      7368.024       10112.159    
      6000   327.12724     -3245.8805     -3264.7817      18.901178      6384.3223      10112.159    
      6100   288.65678     -3247.1202     -3263.7986      16.678382      6890.1528      10112.159    
      6200   293.15359     -3247.1026     -3264.0408      16.938205      6557.3564      10112.159    
      6300   290.93506     -3246.43       -3263.24        16.81002       7042.5799      10112.159    
      6400   315.96148     -3245.2513     -3263.5074      18.256028      7002.5025      10112.159    
      6500   313.08724     -3245.7089     -3263.7989      18.089957      7123.2719      10112.159    
      6600   288.02726     -3246.3544     -3262.9964      16.642009      6942.7619      10112.159    
      6700   300.7855      -3246.4298     -3263.8089      17.379171      7000.6263      10112.159    
      6800   310.48328     -3246.447      -3264.3865      17.939502      6923.6948      10112.159    
      6900   296.60931     -3246.4944     -3263.6323      17.137874      6775.7998      10112.159    
      7000   303.39364     -3246.0669     -3263.5968      17.529867      6977.8918      10112.159    
      7100   312.34419     -3245.6318     -3263.6788      18.047024      6940.4442      10112.159    
      7200   296.88945     -3245.736      -3262.8901      17.15406       7085.4721      10112.159    
      7300   293.97058     -3246.606      -3263.5914      16.98541       6956.7104      10112.159    
      7400   298.23989     -3247.3768     -3264.6089      17.232088      6470.1815      10112.159    
      7500   290.19272     -3247.811      -3264.5781      16.767128      6561.5125      10112.159    
      7600   300.46549     -3246.8799     -3264.2406      17.360681      6910.5274      10112.159    
      7700   314.11938     -3245.3197     -3263.4693      18.149593      7112.9239      10112.159    
      7800   306.28664     -3245.4703     -3263.1674      17.697023      7008.3078      10112.159    
      7900   308.56194     -3246.0385     -3263.867       17.828488      6833.5773      10112.159    
      8000   293.77253     -3247.2387     -3264.2127      16.973967      6562.6052      10112.159    
      8100   286.97588     -3247.7801     -3264.3613      16.581261      6420.9944      10112.159    
      8200   283.24804     -3247.3527     -3263.7186      16.365869      6787.2107      10112.159    
      8300   303.11423     -3246.4496     -3263.9633      17.513724      6917.4437      10112.159    
      8400   314.76826     -3246.0502     -3264.2373      18.187085      6710.3759      10112.159    
      8500   286.67576     -3246.4142     -3262.9781      16.56392       7152.9748      10112.159    
      8600   320.53047     -3245.9374     -3264.4574      18.520021      6758.3101      10112.159    
      8700   280.99484     -3246.5858     -3262.8215      16.235681      7203.7428      10112.159    
      8800   309.60569     -3246.396      -3264.2848      17.888795      6577.7831      10112.159    
      8900   290.19315     -3246.7893     -3263.5564      16.767153      6875.9003      10112.159    
      9000   299.64762     -3246.9988     -3264.3122      17.313425      6745.0153      10112.159    
      9100   287.72168     -3247.0789     -3263.7033      16.624353      6544.5797      10112.159    
      9200   313.30222     -3246.1399     -3264.2423      18.102378      6910.0284      10112.159    
      9300   285.82663     -3245.6661     -3262.181       16.514858      7155.8381      10112.159    
      9400   333.53746     -3245.0939     -3264.3655      19.271556      6683.6119      10112.159    
      9500   290.66267     -3246.4171     -3263.2114      16.794281      6789.0225      10112.159    
      9600   290.80474     -3247.7051     -3264.5076      16.80249       6530.1498      10112.159    
      9700   270.93657     -3247.9675     -3263.6221      15.654521      6601.3055      10112.159    
      9800   301.74642     -3247.3258     -3264.7605      17.434692      6471.8639      10112.159    
      9900   302.69572     -3246.667      -3264.1566      17.489542      6679.9671      10112.159    
     10000   309.77201     -3245.8901     -3263.7885      17.898405      6652.3278      10112.159    
Loop time of 75.7442 on 20 procs for 10000 steps with 448 atoms

Performance: 11.407 ns/day, 2.104 hours/ns, 132.023 timesteps/s, 59.146 katom-step/s
99.8% CPU use with 20 MPI tasks x 1 OpenMP threads

MPI task timing breakdown:
Section |  min time  |  avg time  |  max time  |%varavg| %total
---------------------------------------------------------------
Pair    | 57.735     | 66.75      | 72.027     |  75.4 | 88.13
Neigh   | 0.67669    | 0.95182    | 1.1605     |  21.7 |  1.26
Comm    | 2.4681     | 7.9504     | 17.246     | 225.9 | 10.50
Output  | 0.0033904  | 0.0036756  | 0.0042016  |   0.3 |  0.00
Modify  | 0.072714   | 0.078265   | 0.089847   |   1.7 |  0.10
Other   |            | 0.01021    |            |       |  0.01

Nlocal:           22.4 ave          24 max          18 min
Histogram: 1 2 0 2 0 2 1 0 0 12
Nghost:          496.3 ave         522 max         466 min
Histogram: 4 0 0 6 2 0 0 0 0 8
Neighs:              0 ave           0 max           0 min
Histogram: 20 0 0 0 0 0 0 0 0 0
FullNghs:       1280.3 ave        1381 max        1031 min
Histogram: 1 2 0 2 1 1 1 0 0 12

Total # of neighbors = 25606
Ave neighs/atom = 57.15625
Neighbor list builds = 10000
Dangerous builds not checked
Total wall time: 0:01:15
