ITEM: TIMESTEP
0
ITEM: NUMBER OF ATOMS
108
ITEM: BOX BOUNDS pp pp pp
0.0000000000000000e+00 1.0956000000000000e+01
0.0000000000000000e+00 1.0956000000000000e+01
0.0000000000000000e+00 1.0629000000000000e+01
ITEM: ATOMS id type x y z fx fy fz
   1 1    1.9498426099999999    1.6123894800000000    2.2463115000000000    0.2934028330634868    2.2391463791156099    3.5805991258125935
   2 1    3.2310994800000001    7.2917578000000001   10.6101818899999998    2.5019366319967573    0.3079131021151275   -1.4811393670115502
   3 1    5.0867491899999999    5.3743590899999996    2.2430686899999999    0.9859633865454459    1.2623129739003773   -0.0724878733305623
   4 1    8.9265713699999996    5.1206595400000001    7.8247845199999997    2.2869528861424504    1.8107239315350534    2.9778492209883822
   5 1    0.2592721000000000    7.0133755899999999    5.3305418199999997   -0.5435944436922033    4.8617220212396486   -1.7159494443602910
   6 1   10.7365987599999997   10.8800927800000000   10.6153213300000004    0.2323767752277698    1.5272686719534261    0.6949390035198624
   7 1    7.1881782400000001    3.5480399000000000    5.1419050200000003   -0.8002883589431903   -2.2978909082366985    0.3721054619785160
   8 1    7.2680072800000000    7.1069656900000000    5.4505338700000001   -1.7465470603408810   -0.1412051582686101   -0.5735341457886880
   9 1    1.6494264599999999    5.2833683000000002    2.6433772400000000   -0.7644597248200520    0.1151103598900958   -0.6694519998323458
  10 1   10.7283949100000005    3.2646578100000001    5.3122076399999996    3.6158548108900259    2.5689349857529087   -2.8970957738873926
  11 1   10.8235741700000005    3.6351975099999998    0.1936622900000000    0.2493087632621707    0.5913220087418749   -2.1509310940531683
  12 1    1.9354248400000000    5.1519876800000004    7.7933675300000003    0.2084039970496627    2.4132132851437462   -0.6796567959325568
  13 1    8.9461627799999999    9.0473408899999992    8.0078490599999999    0.6308095163135119   -0.4422140828977066    0.1254871061463397
  14 1    1.7098071600000000    1.6894044600000000    7.9303547200000004    0.2057390464348821    0.5501147798542650    2.2154334083840972
  15 1    7.3893707199999996    7.2870110099999996   10.4758578999999994   -2.1964358991471284   -0.2635663953284553    1.0763947706868597
  16 1    8.7307771299999999    9.0393448700000008    2.9513383800000002    1.1622089915319753   -0.9353078635179946   -2.6980559547623963
  17 1    5.0789946400000003    8.9861253300000001    2.4193840299999998    1.6845572644872022   -0.6251057238061610    0.4314129966994438
  18 1    5.4426058800000003    9.3071524599999993    7.9839223300000004   -4.8551985873041268   -4.7797821799603568    0.7632089562334319
  19 1   10.9507573300000001   10.7516530699999997    5.3004673799999997   -1.3048269320165409    0.4280376260964956   -2.4263199501966310
  20 1    3.5276752199999999    3.4735595899999998    5.1816768299999998   -0.4953319868518810   -0.1227878092127736   -1.1914731182312446
  21 1   10.9538038699999998    7.2940740100000001   10.3258917399999994   -3.6315649365653582   -2.5260967870890587   -1.0213597147501012
  22 1    1.6456279000000000    9.0987234299999997    7.9318484199999997    1.6968017017138246   -0.8878953569841368   -0.7728381879483535
  23 1    7.2406413799999996    3.7825271200000001    0.0748470800000000    0.6082368209803559   -3.2263734923813701   -1.6310825397136863
  24 1    8.9499556299999998    5.4080370699999998    2.6872656600000000    0.9740246877572094    0.8743991031877281   -0.6672580195043860
  25 1    3.8236803699999999    6.9904107199999999    4.8131646100000003   -1.8839160394465857    0.4671371266448079    2.6896005702213377
  26 1    3.7737331799999998    0.0466739800000000    0.0220746300000000   -2.8426280532355688   -2.3860813311001414   -0.3619598311149292
  27 1    7.1999626299999999    0.0728454600000000    5.2426781499999997    2.0653976799054741   -1.9521394327359678   -1.4975960030880593
  28 1    5.6696258100000003    1.6242438699999999    2.6256736900000002   -1.4488936961060535   -1.4187129702326440    0.9229359280262404
  29 1    5.3494679300000003    1.7250430200000000    7.5813982700000002    1.9247026684960349    0.6653214912234051    1.7686794395313752
  30 1    1.4256022800000001    8.9866387299999992    2.5796010100000002   -1.9242853201342414    3.2112945016969996   -0.7286992158014673
  31 1    3.3299887699999999   10.9341262399999994    5.2506655200000001    3.4446211020268640   -1.7841769061158705   -1.2630096999913005
  32 1    3.7357748000000002    3.6106027200000002   10.2165931000000008   -2.3518327897612252   -0.7578038151714184   -2.0273826266224995
  33 1    7.1817182600000002   10.9535638199999994   10.5472857399999995    3.8867704643021805    1.7517538872733731   -2.1699459480627112
  34 1    9.0363334999999996    1.7914524800000000    2.5222215200000000    0.8913402091993508    0.0736805180991194    1.9464139846892672
  35 1    5.4428051599999998    5.4758693899999997    7.8838400899999996   -1.8376593620436557    0.1736556028679499   -1.1545576107188529
  36 1    9.0497654500000007    1.7001676400000001    7.7713846300000000   -1.1695218212397327   -0.4312894529309659    3.3400069291595580
  37 2   10.5057749000000005    9.5845480799999994    1.6476423200000001    0.9790245808548013   -0.3578097610566784   -1.0102325589811447
  38 2    5.0698647899999996    7.1086391100000004    3.3652439699999999    2.9789706311202471   -0.1687817119211782   -2.1796435604287021
  39 2   10.8249983400000005    5.5721666000000001    4.0577155600000001    0.5392535949178390   -2.9863297132349995   -0.9225416720446172
  40 2   10.5201266100000002    1.7316611000000000    4.2294791399999996    1.2355015225317296   -1.9299164544693723   -0.0124905560077886
  41 2    1.7629813400000001   10.8695582599999998    3.8848047999999999    0.1421885260265550    1.4194413203592799   -1.6749977028721967
  42 2    1.7024185500000000    0.0846790300000000    1.1687234900000001   -0.6300993152741989   -0.7736261920866251   -2.7253003829439040
  43 2    2.1226030599999999    3.9810609000000001    0.6740873500000000   -2.1014663002403333   -1.4049449688806932    1.2625977437310829
  44 2    0.4495063800000000    1.9355864400000000    9.7257516200000005   -0.4822776999503079   -0.8804194544455562   -0.3936539296438120
  45 2    1.7441040500000000   10.8285213500000008    8.9739178099999997   -0.2786953574439921    0.2930170765926097   -0.1637826348680103
  46 2    1.7574875700000001   10.4756398799999992    6.2722654799999997   -4.0303484638211824    1.4584355543664596    1.1461698836436693
  47 2   10.9542293999999991    1.8100072300000001    6.7498245399999997    0.8311030697950729   -1.0133038150823837    1.5376911654526071
  48 2    1.8843236500000000    3.3871044800000001    3.3237903400000000   -1.1804504935176459   -0.4205567085053339    1.0207183562287103
  49 2    1.4719650000000000    7.5332583900000003    0.9597057000000000   -0.3053181673754164    0.9487737968656469    0.0444591131140770
  50 2    1.8063053099999999    7.1928590899999998    8.9430213199999997   -0.1159273741168297    1.5818003581190752   -0.0158864607095192
  51 2   10.7286291499999997    2.2867134199999999    1.6239633499999999    4.1573340611580640   -0.4352743205038239    0.4088047531538392
  52 2    3.7478391100000001    5.1082562500000002    6.4553532999999996   -2.0486312002855516    2.7811546535869249    2.4197563629263841
  53 2    3.5104206200000001    1.6528777100000001    6.7340960599999997   -1.5715826650225817    0.1577397714433502    0.3350493935220607
  54 2    5.3909712299999999    3.5057395499999999    8.6978579099999997   -0.3997202592493987    0.8446119391161855   -0.3088323323919994
  55 2   10.8328709900000000    5.2844045199999998    1.4801322500000000   -0.0146755573371993   -0.0252878397169710   -0.0815697871452707
  56 2    2.3622152700000001    7.5195828899999997    5.9504287099999997   -3.9014984568308133    0.0527277516190761    1.4969963792481484
  57 2   10.8529835800000001    8.6150234799999996    6.8946615600000003    0.0801041089039087    1.5769862250756914    0.5204074745440136
  58 2    3.8762220599999999    1.6630748900000001    4.1044106700000000   -1.1558762787731756   -0.3493690776088775    0.7445185154939844
  59 2    5.8673867599999996   10.6716270499999997    3.3763120500000001    0.8538331998870401    0.6699437878493710    0.1931232779929203
  60 2    5.5116577099999997   10.6540145099999997    0.7522161400000000   -1.9640356870811706   -1.0471752256161739    2.2385672347721757
  61 2    3.9002888900000001    1.6740566400000001    1.6405635100000000   -1.9935701484961361   -0.5875440942205894   -2.1719134253338184
  62 2    3.6148129999999998    1.6211643600000001    9.5406527899999993    0.6932994603149611    0.8855198773798847   -0.9540174447711305
  63 2    5.7888704700000000    0.0107577000000000    8.8401978700000008   -1.1165292155837401    1.8009810067476613    0.1271137293116893
  64 2   10.8968633500000003    9.1563911000000004    9.6441568300000000    0.3439833358071727   -1.3179779333932562   -1.4418952392387832
  65 2    3.4844188500000000    5.0834485799999998    3.7930377300000000    0.7761822958244826    0.5931833798033980    0.9606722439100074
  66 2    5.5925345699999998    3.3697822799999999    3.3712241600000001    0.0001652139789172    3.7908467979160436    0.0443057564395682
  67 2    5.3253816100000000    4.1550901700000002    0.5425526300000000    0.5237954831970909    1.4668304145559969    2.0660333469495233
  68 2    8.9840330700000006    7.0992439000000003    6.2406166699999996    1.2488344277350500   -0.5906703218608387    1.7911315704567410
  69 2    3.5141731500000000    5.4887050000000004    9.1911944400000003    2.2000678814733154    0.4880736695502260    0.8871769640549010
  70 2    5.3005107200000001    3.7454195800000001    6.0235617599999998    3.2156557210557994   -3.8395021380348884    0.0267555804105834
  71 2   10.9428808499999999    5.4587485600000001    9.1918897899999994   -0.0987191117575823   -0.8908043400557286    0.5372527360093136
  72 2    9.1598810299999993    0.0837115100000000    6.4382472000000002   -0.3941062391927215   -2.0805632026325265   -1.1523374636236117
  73 2    1.7347139899999999    3.5966836700000000    6.2946254899999996   -0.1977312908722239   -1.4750509419378575   -1.1777613647431662
  74 2    6.6201868800000003    1.9379128400000001    0.9569061200000000    1.0248278223549412   -0.2003542334229520    0.9504448631189051
  75 2    9.0192770899999992    0.7570895100000000    0.8552598300000001   -1.2517986686171252   -2.1270072137285956   -1.4502021796645965
  76 2    7.3258765400000003    8.7171040400000006    4.3839670799999997   -0.5571846266306532    2.9801574493899605   -0.3305963533194075
  77 2    7.5008020100000001    1.9078092600000001    3.9086825300000001   -2.2752876682425187   -2.8267442914212713    1.5518381140984172
  78 2    3.5114363499999999    9.5687969699999993    7.2567654399999997    2.8979145015336898    0.2632598273409230   -0.3674260113141832
  79 2    8.9451281999999992    7.2605082200000002    9.0573037999999997    1.4697087599264820   -0.4180664653526591   -4.3135393181717641
  80 2    7.3484578400000000    1.7218183400000000    9.3133880799999993    0.6239276133337960    0.5494304841163475   -0.1371087834136339
  81 2    7.7142563300000004    9.0940986899999992    9.6450297799999998   -1.8659224585085323    2.7450211119613876   -1.0560238168814375
  82 2    5.8448564000000003    7.2782907999999997    8.6964975100000004    0.5651126208474592   -0.7162480625093615   -0.0140027069745972
  83 2    9.0571913199999994    7.2096918800000003    3.6427283600000000   -0.1615049425819928   -1.0731808242618703   -0.3934100188488242
  84 2    5.1491348400000003    7.4112087700000000    6.1715991800000003    2.8388125153706674   -1.5437159691897397    0.4399041699383294
  85 2    7.3006592200000000    8.9426611299999994    1.4384127900000001   -0.5349093574745920    0.8035788253543752    1.4816966218388115
  86 2    9.0891076799999997    7.3007725099999998    0.6677890300000000    3.9385907098274502   -0.7730228239566579    2.7623202010620025
  87 2    7.6362253999999998    5.2474180500000003    9.4663071900000002   -1.3286126749910683    1.0415190950324482   -0.6414935630375364
  88 2    4.0345408599999999    8.9785132099999991    9.6397276099999996   -1.2470911227501174    0.9498583191871250    1.6442619956920523
  89 2    9.3238728500000008   10.8999822999999996    9.0311523099999995    0.1851653819759210    0.4969129513734898   -1.4796586042993147
  90 2    7.2296911899999996    5.1815925399999996    6.8325191099999998   -0.8507008327721838    0.2933856797267700    1.6306536533516998
  91 2    5.4810941900000003    0.4163562700000000    5.9070828000000004   -2.3199859628359940   -0.6258015481870792    0.9777561259186153
  92 2    0.4158410100000000    5.6138053200000000    6.4924396900000003   -1.1373439247059480   -2.5306593263865320    3.0651799333269905
  93 2   10.8613636099999997    9.2070802399999998    4.0367162700000003   -0.1165651093864111   -1.2527156796342247    2.1691349732728784
  94 2    1.5810151100000001    7.3236430500000003    3.4513526899999998    1.1426408213410475   -2.9470434593914852    1.5271245557949509
  95 2    3.9574907100000001    9.0638144399999998    4.2112619899999997   -0.8455454186548076    1.4176695920633651    0.1614891547139160
  96 2    3.2360449099999999    5.9970761100000001    1.5488692500000001    0.8734092688874066   -0.7776304639782192    0.1806044541582874
  97 2    5.2545450400000000    7.1741711099999996    0.8439352700000000   -0.9352414784058818    0.8692970525218509   -0.4097538337495982
  98 2    9.1459865199999992   10.8676504900000008    3.5999253800000002   -2.1725002166655933    0.5480884054888278    0.8750676859154711
  99 2    9.1962395000000008    3.3834953600000000    9.0509243799999997    0.8795441733808413    0.9326884862760056   -1.0100778666879964
 100 2    7.1961840099999996    5.9043847300000003    1.6130177100000000   -0.3245114910882589   -2.5452536091585887    0.7071490394951874
 101 2    8.7533348699999998    3.6848508700000000    1.3186781700000001    0.1469309276433668    0.1484794756760984   -2.1376010682607016
 102 2    9.0494758799999993    3.5659999700000000    3.5588294199999999    0.5138537348520672    2.5757809526868876    2.7672776651217021
 103 2    7.1367621699999999    5.2613336000000004    4.5414043599999996    0.6266532751830788    4.5390509892016242   -3.7780555727038654
 104 2    3.2418811700000001    9.3051311900000009    1.6329740900000000    2.0188685772231909   -0.6950478556436437   -0.7356089824567784
 105 2    9.1155543699999999    3.4867889600000002    6.2457008399999996   -2.4630114841603170    1.2662416037313977    2.4546481125322055
 106 2    7.2934387799999998    1.7093592799999999    6.7606757899999996   -0.5539128837056498    0.8534391001531847   -1.4364064951519611
 107 2    2.1277929200000001    3.5278868900000000    8.7864617900000006   -0.2013605044082187   -1.7620995199171328   -0.7861252918413548
 108 2    6.9259656700000001    9.2839186199999997    6.8249149100000004    4.8265670648663974    0.3909400888137224   -1.3451879055655318
ITEM: TIMESTEP
50
ITEM: NUMBER OF ATOMS
108
ITEM: BOX BOUNDS pp pp pp
0.0000000000000000e+00 1.0956000000000000e+01
0.0000000000000000e+00 1.0956000000000000e+01
0.0000000000000000e+00 1.0629000000000000e+01
ITEM: ATOMS id type x y z fx fy fz
   1 1    1.8662552022518610    1.6547035929706311    2.3863998818307124    1.1920241118878616    1.8927756429465803   -0.3296002592430555
   2 1    3.4927033162723125    7.2441320688109307   10.5169327001011581   -2.1315878479223125    1.0123758217675394    0.4205280541601923
   3 1    5.0404463305061551    5.2497763978488079    2.3078879615374599    1.6444690179276646   -1.4479229605488821    2.2321648032540877
   4 1    9.0883779511364224    5.3609952753300405    7.9446174652635566   -2.5404654493991146   -2.6851218612427412   -0.3713654698936288
   5 1    0.0832079794634066    7.0580579294255150    5.4393573890111604   -0.4920905397822075   -0.5053873132615752   -0.1355231108744483
   6 1   10.7190290667592496   10.9130028938330312    0.0505847350743441    0.0275287745984101    0.3823194538578099    0.7633967164316566
   7 1    7.2656684297716536    3.3864701198858560    5.0246837959491097   -4.4113299826078913    2.4718541278116457    1.0377939929266615
   8 1    7.3438893755958361    7.1167400230319418    5.5038050050191485   -0.3809842582432030   -1.0690784869695646   -1.1033818850140993
   9 1    1.6577432182459644    5.2641733054303490    2.7474212416769621    2.3855844710877787   -0.9596041035179925    0.9229550083860665
  10 1   10.5044774484987968    3.4904572242003225    5.0659481011378613   -0.0846687318018295   -1.7539847114276972    5.0557467840263657
  11 1   10.8976969872159053    3.4544044157211506    0.1327266240909686    1.4709872093652243    0.4306404399315680   -1.5531049250884643
  12 1    1.7917788110120425    5.2758997262833693    7.5413022781438706    0.4240977924042503   -0.0449092629550768    0.3939551747425516
  13 1    9.0489610813093133    9.0519877905773072    8.2339137472925739   -0.9020630241987394    2.6632794358590668   -2.1575188253258970
  14 1    1.9259005570796670    1.7879319100099238    7.9760226602074615   -2.0869531951088267   -0.0689385555554070   -0.3747949591067345
  15 1    7.1843330949877711    7.2472691114082020   10.5320243944276033   -1.3594900439746811   -0.1922472883625377   -3.4351820163046356
  16 1    8.7101460234395010    8.8638537146241578    2.9456549503459111    1.2472514473302296    1.3487016200950632   -2.3958467646852220
  17 1    5.2986298666745286    9.0005533067597518    2.5511709731657213   -0.0185669833433975    1.8777010985818836   -0.6870677876006654
  18 1    5.4662618857523038    9.1315706555482734    7.7657228857995175    0.3089157776813108   -1.3854591109738459    1.6513809896082674
  19 1    0.0947801206843829   10.7195628004184833    5.0704425128983077   -0.5416053684024202   -0.8097670425398578    1.6374202434748311
  20 1    3.5911622819347553    3.5869638469243839    5.3055112234840092   -1.9159710444267983   -0.7143806665545733   -1.8812951646362108
  21 1   10.6906355824060721    7.0267232811834095   10.2210292919220933    2.8304387070616928    1.6007745284152739    2.6230729790407024
  22 1    1.7626314158006986    9.0998258066851214    7.9300086575819240   -0.3007065124347490   -0.7411707312494296    1.2375572692768362
  23 1    7.3366671096507385    3.6364241429056174    0.0112736141820101   -0.8241673119145215   -2.2389123649459957    0.3690541519905521
  24 1    8.9804412042967900    5.4833988986730970    2.2564344292134391    0.0385944394794790   -0.2689827289534455    1.7373896120568684
  25 1    3.7878467872904906    7.2640962529704165    4.7991719524781482   -1.0387376563373540   -0.5346634755991883    4.5034575714179823
  26 1    3.6957426017997750    0.0331878662908121   10.5764013476647207   -0.0527818608588878    0.1589661132154875    0.0394091444051004
  27 1    7.2822479883684990   10.8095697361607588    5.1629548689460334    1.2759075476148716    0.2539942917094941    1.5461160096159707
  28 1    5.3945568314519035    1.5332653359876418    2.7486809234262970   -0.6773521991743523    1.4287364585470468   -1.1018439708635415
  29 1    5.4331265399410942    1.8828235535815074    7.8557470052279497    1.2101717212615757   -0.8762561754340721   -0.6139909404952393
  30 1    1.4698241768789664    9.1327111477508787    2.4194426027715084    0.0413950390068325   -1.3512839609198952   -1.3914856705509147
  31 1    3.5365048589976151   10.8023649919801823    5.1753312307976183    1.4101191600565297    1.9509547887370220    0.9197506111735364
  32 1    3.6359460149565845    3.7739759073192549   10.0485845773295424   -1.0043482509764168   -0.5572460806327717    2.4422724972727048
  33 1    7.2250165783915712   10.9188310920165481    0.1112700116267311   -0.2889675100104521   -0.2332980033174626   -0.8708962646980735
  34 1    9.0591777862382319    1.8212262181486651    2.5168179345991297   -3.1555201769559176   -1.6133614158234986    2.8657699861296959
  35 1    5.3648510407270331    5.5631091677800457    7.8663661141604821    2.0385019932226252    2.5226017425844756    1.0639811989658809
  36 1    9.0967599844445832    1.7573163230020508    7.8754434400917193   -0.5731413495512909    0.3745947020589020   -1.1015525297908273
  37 2   10.4364598915569182    9.6401042222978752    1.8931121835277664    1.7500296425078044   -1.2130777492204643    0.1115009396171152
  38 2    5.1671871565537506    7.2281631851938029    3.4307880168922851   -0.0083203960728182   -0.6321978327382145   -2.3366817121657446
  39 2    0.2306976940971124    4.9896830321486423    4.1932665385636270   -0.1407476144734678    4.5460456088333077   -0.3655550656341999
  40 2   10.6249357655635599    1.5406739132756548    4.3988414336350470   -0.2177951581845972    3.4182865877591584   -1.9162428267956515
  41 2    1.7524541452035689   10.8218264104451247    3.6280076233415262   -1.0744399442326378    0.3450589082301497   -0.4753282541276131
  42 2    1.7095054196179160   10.8485866658660708    0.7861461225248303   -0.1788911869297980    0.6915826659462335    2.1454527079173280
  43 2    1.8203308855297868    3.4546918142386303    0.9429391784927451   -0.9328279743293736   -0.5979502452099303    0.6467633416570687
  44 2    0.3127398957674678    1.7441577892972087    9.8240920119915742    0.0566945748549470   -0.5269646633971137   -0.5535385069026875
  45 2    1.8057177375999729   10.8178288941770688    9.0311266733753524    0.5056174788489747   -0.2601781489743650   -2.2079266223704170
  46 2    1.8139950584087234   11.0438856502439346    6.1680625687251744   -1.3729515946707920   -0.6829830503207551    1.3131955732415028
  47 2    0.0217444314515123    2.3079620281860520    7.3272832645904513    0.1194520689859198   -2.0225772311883148   -1.4118057166053806
  48 2    2.0205395337816157    3.3608628470806772    3.7146058463322507   -0.8568959631345900   -0.7162653088983748   -2.2870461358200953
  49 2    1.3599611850051772    7.8278645145745918    0.6930050739454539    0.6301002002533418   -0.4370617341875860    0.5358634495286259
  50 2    1.6708238017553900    7.0364558554704937    8.8855020273344216   -0.9362207677633587    1.7527375594494456   -0.1524811742414763
  51 2   10.7435091220283603    1.6851950443744175    1.6738639899207663    5.9266097042719101    0.6074365723586017    0.0308126683891090
  52 2    3.8907746587522136    5.3129677002913542    6.7317858933914643   -3.3408315203632775   -0.9893990906531959   -1.2359605892890480
  53 2    3.6515774141971233    1.7418468525428290    6.7517614327480127   -1.1922743067646355   -0.4728053611203696    0.4628315427995183
  54 2    5.1673566775123652    3.7224056600222672    8.5691854731281794   -1.1573663097564226   -0.5409267189601232    0.8286203228625342
  55 2   11.0917364123533879    5.2998267611560514    1.5479359121492196   -3.1146911308597662    0.9945513445174300   -0.5226970378421698
  56 2    1.9601102732532287    6.9828249732426118    6.2646404492949541   -2.4985905556875490   -0.1991860788953272   -0.8000184999934541
  57 2   10.8348077140998171    9.0686329087957631    7.0440222121300735    1.0012684024397187   -0.7802636005543451    0.6582791131790051
  58 2    3.7295146632584601    1.5432008924402081    4.0229045897903335   -0.2997423223023472   -0.8544238521455630    0.4507227223399002
  59 2    5.6053461077116076   10.6976941548753999    3.7864429975917475   -0.2754204617712217   -0.2141069796155740    0.0076489279579522
  60 2    5.5366950826384338    0.0939943744984988    1.1862733867614155   -2.0249627442375076   -0.6356010669111860    0.5181595983018183
  61 2    3.6257570647257995    1.8750484398895362    1.3412880577552757    0.1835920679318300   -2.2588284207409490    0.5652717052313505
  62 2    3.6130793017388867    1.8693763167503696    9.2806801914436665   -0.5366417848662783   -0.4713865212725146    0.4753831883849542
  63 2    5.4613110875597375    0.1582430822736374    9.3770315275065901   -0.5196133638064020    0.6934735360018713   -2.0631610381778573
  64 2   10.3743164336520231    9.0553557440343742    9.7585764726988291    1.4189194870110065    0.0089642764627953    0.5591692853618009
  65 2    3.4815302502989525    5.3727463921861931    4.3157865364539783    0.1981148546597652   -0.9599426681486604   -2.8482680477157705
  66 2    5.3475531585399594    3.5294251098076121    3.5028358808966615   -0.8486540810592551    2.1614327279970378   -1.9954603931255392
  67 2    5.1988926788268461    3.9659362814753027    0.7541858734320690    0.6556002026710435    0.1121230107138790   -0.6400389479024774
  68 2    9.2138200994721338    6.8607192817724147    6.3414560419848289    1.1806696927913982    0.8378078556366202    0.1861089717830240
  69 2    3.7926834047603317    5.6863558590604253    9.3228374059929884    0.3648237638413937    0.4190868350876162    0.4762855380135190
  70 2    5.3191836933376848    3.1870641205074803    5.9452485374372896    4.4078007681507998   -0.3356183202799528    2.0342452667346382
  71 2   10.8227880810723640    5.2160798599777909    9.5558365734791408   -1.4920103739154786    1.1296766896936150   -0.1773655934214505
  72 2    9.3775809926478484    0.1626116660381059    6.0262474517898648   -0.7423442666818194   -0.3591197659441938    0.7252938409727920
  73 2    1.7593267116367888    3.6544054486263016    6.2592660417516131    1.1309612717946280    0.1131967454764049    0.5683258878156022
  74 2    7.2270480366839216    2.0260387302688829    1.6574350742380961   -2.1322122036609796    0.6398624700451406   -2.9604925678743021
  75 2    8.9914655459193948    0.5029426109627229    1.0542711982258011   -1.3927164656954742   -1.4893675277998055   -3.7535566498914248
  76 2    7.1557123239364273    8.7725219140755577    4.3591117042022232    0.3187369483315494    2.1140567577772313   -1.3747451533295443
  77 2    7.0469320157971653    1.8093430342355179    3.9046852175227804    1.9415618959154661   -2.2103548457666333    2.5196607654869734
  78 2    3.4359638908131283    8.8681853835320705    7.0569989692378803    1.0235329928993271    1.1021789911197724   -0.3861225332826425
  79 2    8.9738952019453073    7.2001914358350829    9.0153105481791282   -0.4512201302548927   -1.0566099990384459   -0.4104172289223419
  80 2    7.0909268701004251    2.3791361645647964    9.0591603690973859    0.5965559991094518   -1.6996559113015433    1.1468252859178061
  81 2    7.0479842769622145    9.2851360212336456    9.4262681905983872    2.7355195035325979   -0.6532955154638387    1.2394627645759853
  82 2    5.8237029565629683    7.4385028825972128    8.8038371847281667   -0.6070905608844626   -2.6478216218502233    0.5139863206983799
  83 2    8.8604395391121304    7.0234888852605089    3.5443862617388202    1.8958418251519324   -1.7408453697511785    0.5032005635960708
  84 2    5.4696587300055333    7.4186539568422152    6.2466797285886608   -1.4330627695985341    1.3827799153861777   -0.2140290489802118
  85 2    7.2666326744956669    9.3545026681766643    1.5411593416391072   -0.1119002449744322   -1.4881761351710967    0.1811370643151223
  86 2    8.8244786470782817    7.1842467112738948    0.9542922444817312    2.8520184119285945   -0.1900331864000659    0.8193004066902582
  87 2    7.2091429377352130    5.2244330635123735    9.5275579415204970    0.6477137124831780    2.1518405284586901   -1.1874226735906781
  88 2    3.7467341619687158    9.0499918443248770    9.7431907764143784   -0.3567285451112625    0.6768800458439896   -0.5610237254024003
  89 2    9.0573446053769544    0.0473137603780369    9.0684095469407282    0.1460611530261633    0.5220790328428213   -0.0475107902257000
  90 2    7.0705252085312331    5.7148654914608485    6.9268906703206055    2.2857672531167728   -1.7341893734631639    1.1342798746719922
  91 2    5.3624732192517737   10.5395885030248717    6.4480013887161869   -0.3008549849952412    2.8522091088702961   -2.3119386819553718
  92 2   10.6402072874149347    4.8838760480951846    6.8711526410548194    2.9905102948486135    1.8276522721534327   -0.9999537054805344
  93 2   10.6293554301944173    8.7364217360346661    4.5694741229101830    0.4050607912860928    1.1276576794204365   -2.0131993907545267
  94 2    2.0563841921896859    7.3365402782506788    3.5684068920545706   -2.5568806502978378   -0.9016534926317412   -1.2938206927157092
  95 2    3.5536606764849030    9.1288127591466051    4.2351805849813200    1.0072097271201736    0.1670334327578190    0.6322897977171104
  96 2    3.1252901388946825    5.5813922083849405    1.2897024383909756    2.3429441857351603    1.0835598115477914    0.8007383174922982
  97 2    5.4968226112347045    7.5949004677666254    0.7946991750920028   -2.5548871307737615   -1.0631963340054136    1.5992004833275997
  98 2    8.7016914426520309   10.7740934384325175    3.3067326325913680   -0.7152954197219188    1.5701227843689618    3.5176365656236159
  99 2    9.4217620134101665    3.4303812456891878    8.9042662312819161   -1.3907284520442966    1.2312110887344105    2.1439597212955137
 100 2    7.2500793323237778    5.2383468833978153    1.2963501231668855   -1.0706008727519520    1.5580436434822647    2.1614671265853649
 101 2    9.1585981791081643    3.4450255652572350    1.2686765354692759   -0.1223203458838581    2.5650910200180794   -1.7719475251408103
 102 2    8.7342349917057511    3.9818904617383875    3.8355885415801083    3.2278530118684476   -1.3083467691475335   -1.4914555017583506
 103 2    6.9869886654687301    5.7116465100537592    4.2304243533844028   -1.0147215487510601   -2.4057321961603262    0.0058536816408828
 104 2    3.3627421528151458    9.3604261766409209    1.8865087887187009    2.9164433158050662   -0.3161840539629509   -1.8402203790947655