96
Lattice="11.079800202938278 0.0 0.0 0.0 11.079800202938278 0.0 0.0 0.0 11.079800202938278" Properties=species:S:1:pos:R:3:forces:R:3 energy=-822.5511751259983 stress="0.00212645303680193 0.00036450857323418233 0.004012348778421604 0.00036450857323418233 0.026235435696709133 0.00688250948353509 0.004012348778421604 0.00688250948353509 0.028714461257747653" free_energy=-85551.03613636014 pbc="T T T"
Hf       5.66829947       8.70533032       0.26359620      -0.26923821       2.15641765      -2.13478284
Hf      10.29549993       9.97915944       8.30094975      -3.51771804      -4.65027870      -1.55746811
Hf       1.69725033       5.31787974       8.57758023      -2.26705453       3.73599724       0.76947435
Hf       3.90880947      11.02221959       1.12577972      -2.11353602       2.18574468      -1.14689636
Hf       5.99129005       4.19557022      10.12029948       1.99126155      -2.62810040      -3.09826724
Hf       1.65782951       8.53769960       0.10837263      -0.64258141      -1.69959406      -1.62040691
Hf       2.39005029       9.61101978       7.17099959       1.41530127      -3.56967669       3.85413223
Hf       7.96817017       1.12793031       9.90681943       0.80177538       1.85255568      -4.89785536
Hf       7.37929984       1.18352985       1.59947996       2.71035951       0.28244005       2.80064765
Hf       6.42474957       6.07805043       1.81283037      -2.04174927      -2.51083265      -0.46153899
Hf       7.66608938       8.76600996       3.70664966       1.79783592       0.85497896       2.40608950
Hf       9.26302985       9.54409004       0.89358256       4.01768808       1.54882483      -0.62387407
Hf       2.01431986       1.89785011       6.68877012      -4.34194738       0.42371600      -3.25823074
Hf      10.73289941       3.84815976       0.11003017      -3.47114688       3.35164354       1.51644487
Hf       4.20397978       2.63475987       3.18072035      -3.29912105      -1.45999116       0.22377879
Hf      10.42019975       6.96465937       6.11997972       0.87392799       1.32035866       1.59126346
Hf       7.35449992       5.53117033       6.85355999       2.19924528       3.45576062       1.52793513
Hf       3.05189994       4.08137958       0.38586623      -3.10143073      -1.07915807       2.23392226
Hf       9.61702947       0.81374374       5.28830000       2.75713456       0.51241366       0.03432988
Hf       7.01886950       9.94541037       7.20459022      -2.01074974      -2.32138271       0.69106882
Hf       4.83558933       6.96253980       8.28324977      -1.55529501       2.51308288      -1.51459085
Hf       3.73514025       6.02517984       4.77916988       0.37007379       2.81512296      -1.19214957
Hf       5.80013026       2.79443973       6.78406970       1.20302200      -0.58300973       0.30602453
Hf       8.76901037       3.65259020       3.63514949       3.74563399       2.75629227      -1.48240090
Hf       9.86773986       3.77148975       8.02965973      -1.10175781      -1.73165469      -1.78079619
Hf       0.71187384       0.87945249       9.47921005       2.71413286      -0.52126957       2.19141319
Hf      10.34129939       6.67063028       2.42790000       3.57717274      -0.37472826      -0.64441770
Hf       0.99624688       4.03205009       3.84365028       2.03545238      -2.12832012      -2.56420181
Hf       1.36510008       9.25823008       4.04413040      -4.45219063      -1.96187333       0.99973695
Hf       8.71886984       6.77702960       9.92879953       2.51272806      -1.24196084      -1.53133773
Hf       4.52854037      10.74189954       5.10774025       1.10822851       0.53677049      -0.03531616
Hf       4.24574952       1.21805008       8.99739940       1.82728970       0.77281062      -0.29212771
O        4.86859938      10.79059969       9.89868021      -0.03975800      -0.76556679       3.49576262
O        1.26049015       3.57956989       7.89629993      -0.68927239      -3.72612395      -3.02418322
O        5.82096029       1.88036951       2.22366937      -3.23141953       2.90082349       1.17774960
O        2.60010004      11.01598831       5.77567049       2.04980428       1.07050734      -0.59755934
O        8.28466023       1.89950987       3.82244022      -1.74456549      -3.67424063      -0.41570650
O        5.66915040       0.46078341       7.11814008      -0.71748176       0.25584405      -1.26724918
O        5.07708023       6.20870011       3.26019021      -0.14712187      -0.49428584       0.66118360
O       10.62859972       2.60316028       4.54479998      -1.41064115       0.39148414       0.32875668
O        6.23067025      10.60039941       1.24005013      -0.11958612      -0.52328120      -0.74238007
O        8.84924031       3.35594960       9.66001023       1.76483632      -3.00145518       0.74946294
O        9.19976973      10.33750012       6.78294953      -4.10322893       2.54004089      -3.69194576
O        8.55209004       5.35899023       8.57769989      -2.30735529       1.28166433      -0.11943391
O        9.00932015       7.87882044       1.95388953      -2.78145720       2.05478991       0.51484592
O        5.75419009       7.25713950      10.10830005      -0.11354172       0.01072356       1.11153058
O        6.42049935       2.28534951       8.74100950      -1.80068084       0.13563238       0.22744930
O        0.73165350       8.10600953       1.86912019       0.90782002       1.08955742       1.40094346
O        5.85279034       4.88919008       8.10178037       1.90138195      -2.32341260       2.18052122
O        2.05626023      10.79959981      10.94779990       0.79343575       0.99609602       1.09909492
O        3.16065040       4.40657947       2.69002037       1.86874257      -1.76709143       0.14054318
O        1.01486981       9.94453950       8.55996999       1.81227189      -0.69839287       0.30165108
O        8.54658006       2.33168966       6.94841970       0.38679290      -0.91584597      -0.67439445
O        6.78470014       4.14240933       5.67202007      -0.57714273      -1.56652585      -1.72542002
O        7.62342994       5.77768037      11.04113281      -2.62851924      -1.47539567       1.43231041
O       10.53309959       5.87585959       0.63443712      -2.24759051       0.69163009      -1.12086934
O        4.94594968       2.26256944       5.02665052      -0.19100263      -1.24423087      -0.61076247
O        9.86406026       0.26486152       9.62170958       0.41768471       1.93130342      -2.06034812
O        2.41968987       0.59272721       8.38575011       0.59486097       1.11852295      -0.31359797
O        7.20572036       2.58705025      11.04180092      -1.98510016      -1.55455993       2.76851863
O       10.46779968       5.12999957       3.66526993      -2.17954832      -0.40002740       0.97664279
O        8.10678955       7.62414015       5.27684016      -0.04824315       0.18779183      -2.22329538
O        0.15547730      10.58309941       4.67462975      -1.71773345       2.91040676      -0.67182720
O        3.57670022       5.03345019       8.69030944       1.10056765       1.22616218       2.20209381
O        0.92713331       2.60897939      10.36559961       1.26097261      -1.14061387      -0.47741760
O        9.49152968       5.07008001       6.55360986       0.14321225       1.66850506      -3.12528645
O        3.65862980       2.33570941       7.35811969       4.78702873       2.19808597      -0.11395361
O        6.42144003      10.00359927       5.02858948       0.68501259      -0.58369441      -1.54369805
O        4.21458980       2.89238960      10.20650032      -0.26600813      -0.39939182       0.80455680
O        9.44608034       3.58209941       1.59769057      -0.88074219      -1.94093580       2.07497178
O        6.60556969       7.97365023       2.03157998      -1.08754270       2.43062194      -0.64176817
O        3.25622032       8.45038966       8.74017962      -1.18100847      -1.66054801      -0.06547751
O        4.90789943       8.79879952       7.22343032       1.19574706       2.40389018      -2.20897254
O        8.38929010       8.70908970      10.52569939      -1.13794840      -0.95925982       0.52817067
O        2.96702978       1.72976954       1.68893051       1.96515868       0.80889322      -1.11590248
O        1.07332019       8.80303976       6.05970006      -0.36906129      -0.77820685      -0.00981082
O        4.65003038       6.00507997       6.48256950      -1.41121733       0.24501636      -2.92316252
O        0.08097783       0.92835541       7.09708957       0.68631177       0.89870957       1.28868833
O        7.22861012      10.18939976       9.12503980       0.83693599       2.30493485      -0.97919924
O        4.77693952       4.90410017       0.44513651       2.14033231       1.67302737       1.53238828
O        9.09265022       0.69368967       0.48894050      -2.70470822      -1.31460582       2.56149341
O        6.83644946       7.27903983       7.57856007      -0.20307575       1.11257830       1.05450659
O        9.68713026       8.14437001       7.60389957       0.24903628      -1.59119970       1.27822522
O        3.02823017       8.42355993       4.48415026       3.14404393      -0.92397863       0.22095855
O        0.91645349       6.57318011       7.34341015      -0.14087511      -0.42424153      -1.16705535
O        2.09890971       2.50496998       4.51151958       1.83804848      -0.39356930       1.81377136
O       10.98835750       9.34358997      10.65729972      -2.87397063      -0.25799709       1.34628258
O       10.68780020       7.72602002       4.25590970       1.14206114       0.30509456      -0.30212031
O        1.85611029       5.48302970       4.83821968       0.28017825      -0.00306913       0.44071742
O        1.05174006       4.13953967       1.49310058       1.81230763      -0.61079461       0.27792571
O        7.74845994       5.15355966       2.67720991       0.44489135      -0.25853985       1.68543963
O        1.60836042       6.62998957      10.70499937       1.70076186      -0.73507299      -1.31196324
O        9.03332011      10.37099990       3.18542040      -2.72814871      -1.70086007      -0.73855401
O       10.82839954       4.97534993       9.17071960       1.08583677       0.85286269       3.72480574
O        3.64709019       8.86316983       0.41508145       3.28228649       0.95233018       2.67940445
O        4.10901038       0.15741848       3.20992005       0.01418812      -1.45361611       0.59234360
96
Lattice="11.138365832118389 0.0 0.0 0.0 11.138365832118389 0.0 0.0 0.0 11.138365832118389" Properties=species:S:1:pos:R:3:forces:R:3 energy=-822.3573673506253 stress="0.007875037865565697 0.0024404629412001426 0.010608393086014464 0.0024404629412001426 0.021020300442376245 -0.0019483304594532366 0.010608393086014464 -0.0019483304594532366 0.045895944710974995" free_energy=-85550.84232858477 pbc="T T T"
Hf       6.83627005       0.37109582       1.80782026       0.02993921       1.36770810       3.22504320
Hf       6.58162027       0.19235958       7.52920004       3.45841220       0.86860349      -2.03954018
Hf       2.54417986       4.26325964       7.93694999       0.91384128      -2.61592340      -3.43687998
Hf       4.02670971       0.33901510       4.77823976       1.28781158      -0.69914620      -1.70017745
Hf      10.68839924       8.27857927      11.09717727      -0.42528000       0.17943060      -0.42073944
Hf       9.68188973       4.02090997       7.62282023      -1.38537800       3.96885511      -0.72897305
Hf       4.62777937       6.45729940       4.26444031       2.10342515      -0.18063799      -0.53449301
Hf       9.51755985       8.48458000       7.15387943      -1.20501666      -0.52637552       5.32644463
Hf       7.26701961       3.95524039       2.41079013       0.99522415       2.91578268       1.05298296
Hf       6.68447974       9.40502002       4.56928959       3.68400259      -2.19677959       0.50573522
Hf       8.92054009       1.58505963       5.07362031      -1.70431024      -0.21427214       2.82745834
Hf       7.77272927       9.25328986      10.14660017       0.16509259       1.75049625      -1.13892131
Hf       1.39114959       7.50007989       5.03906019      -4.87599559       0.21308095       3.13280178
Hf      10.27679987       5.31710945       3.91132961      -5.34636271      -3.68330274       2.52848147
Hf       1.12086044       0.89111382       6.53345018      -0.74619893       0.32744207      -0.79845609
Hf       6.34831940       3.89686978       6.30497000      -1.44512504      -3.10402883       4.96663494
Hf       4.91847958       8.41294917       1.22832005       6.68129567      -0.70580947      -1.63087336
Hf       5.03783943       5.32512016      10.69560020       0.04731421       0.12358007       0.62397254
Hf       2.54294016      11.00019997       1.02476975      -1.29738714       1.68922763       1.40634226
Hf       5.29146002       7.51706924       7.67994000      -2.81426679      -1.43733357       0.42323161
Hf       2.28522956       6.66908986       9.77814971      -1.52566948       0.60531045      -3.01058002
Hf      10.43609966       2.22434948       1.81540995       3.66968361       2.35888508       0.68701162
Hf       7.99593989       5.74670953       9.91305983       2.83541899       1.00768372      -3.98331962
Hf       8.10607939       7.48587959       2.14893940       0.32873405       0.13123065      -1.88632403
Hf       1.90230034       3.39658006       4.38433034      -0.04956187       1.94553114       1.49022271
Hf       9.75335014       0.68788654       9.44135003       0.15069673      -0.31879468      -4.94110029
Hf      10.22089975       9.91193931       2.66226992       2.69772716       0.34118359      -0.77871696
Hf       4.05810988       2.27705957      10.32489979      -6.85921318      -2.89951454      -5.35229142
Hf       1.66910974       7.36009960       2.06083047      -2.23700065      -0.93801222      -1.50591209
Hf       0.46727227       3.85353931      10.48490019       0.45257149       1.91939999      -0.00291640
Hf       4.11484983       3.21489995       2.13032051      -1.41696632      -2.43824680      -0.88001225
Hf       4.20347001      10.10059983       9.38132983      -1.48288041      -1.18160059      -1.03545601
O        5.73643996      10.37239935       5.85309986      -3.26772582       0.99509663       0.60969109
O        0.10142262       7.99110918       9.37535967       2.67863904      -0.30780219      -0.90116189
O        4.04973940       9.76047981       0.31348262      -0.85284417       1.62568590      -0.94410214
O        5.62793000      10.20880015       3.09542983      -0.76879558       1.99003796      -1.28656151
O        7.86154994       0.20175368       3.92958985      -0.54338646      -0.97444321       0.58427522
O        5.98918953       7.65967040       3.19293954       2.58845271       0.24071105      -0.91098864
O       10.95580022       2.02582036      10.56669923      -1.90143389      -1.65309772       1.93339399
O        0.29812616       0.47414018       8.04516033      -1.68700157      -3.12690085       4.30165691
O        9.88251954       5.59091944       5.87357997       1.38137274      -1.23664971      -1.45468543
O        5.19383001       3.60301964       9.86608934       3.06843884       1.70001907       0.25871366
O        5.86053026       6.07252010       8.89072937       0.73474415       0.36657452       1.34513304
O        9.17340996      10.01950028       8.61627001       1.63255795      -2.63319170       1.02946199
O        2.79034999       0.07022740       9.89506023      -1.07206234       0.02235831       1.85420992
O        8.72225936       8.78506972       3.49248027      -1.31423686       0.52445054      -0.44372227
O        3.84657004       7.45650995       2.28476954      -6.03760817      -2.97591538       3.43014909
O        7.53661930       0.20255564       9.54423957       0.26121508       1.08005385       1.25095739
O        6.26744930       1.74503998       5.92968949      -1.32960461      -0.19994775       0.95132745
O        3.09346948       6.15365975       7.62935956       0.73269935      -0.56335930       2.09503924
O        9.00531977       7.04253031       8.38501972      -1.98427972      -0.53871348       1.16606393
O        8.12368024       3.45128948       5.81269989       5.57921904      -2.60059731      -0.68337505
O        0.79333568       5.21619028       8.57216988       1.02084108      -1.75136631       1.56333357
O        2.86661995       4.43923023       2.83519974      -0.53687077       0.96177127       1.53073095
O        9.19402930       3.39836999       3.28622002      -4.44116805      -0.88846012      -1.85628866
O        2.37597048       2.45433000       9.06037003       0.54745471       2.43280995       0.86954195
O        1.05746977       6.39333956       0.26793673       0.90618608       2.09984823       1.15886073
O        4.79923001       1.34544999       0.58876511       2.96070371      -2.96526716       3.89593683
O        3.95660038       6.94832980      10.92469967      -0.71554984       2.58196556       0.26794726
O        7.46438923       4.91587989       0.55345426      -0.32962185      -0.65070559       0.79478224
O        8.44136982       5.94273029       3.16522952      -0.84950585      -0.88463227      -0.74947400
O        6.15402955       4.84185988       4.73689972      -2.36285435       2.24344255      -5.01598264
O        0.74964766       6.10663023       3.69848992       4.91428086       4.78817982      -2.15435871
O        5.06532000       0.62565760       8.66747976      -1.26323389       0.44208602       0.93411572
O        9.70602991       4.64794984       9.92348979       0.25438957      -0.67161303      -0.54337000
O        0.60348446       8.89574943       3.66793961       0.86476947      -0.87188654      -0.18975204
O        9.07238944       0.97819579       2.09281986      -5.10867168      -0.84297577      -1.78470246
O        0.10975412       4.16310012       1.22951965      -1.02522121      -1.39923394      -1.82744088
O        3.25039012       7.61805969       5.00831942       0.94155598       0.64147430      -0.86096758
O        0.17407150       0.46678552       2.18578957       1.90990027      -0.78471585      -0.40837114
O        1.23541964       9.04097924       1.11983014       0.87125559       1.72300241      -1.24165745
O        6.64715953       7.75014957      10.99527013      -4.91870470      -1.56373594       2.00339433
O        8.70871956       7.63607934      10.99276066       3.75952181      -1.94870208       1.22423951
O        3.40238983       8.26606977       8.34723949       2.02011935       3.06203320       2.08981785
O       10.08689964       2.22660945       7.96423008      -1.38079887       1.82893521       1.55385339
O       10.96549951       1.20557996       5.04235938      -2.29835977      -0.31492620      -0.57953308
O       11.04042618       8.43461997       6.13110011       4.29298303      -0.70285810      -2.19107946
O        2.78196949      11.02369970       6.14954970       1.76369167      -0.04135182      -1.38865899
O        9.33932928      10.07739973       0.33832341       3.06132460      -0.74144547      -0.14261292
O        2.89772941       4.73069008      10.55309929       0.52417054       0.31947782      -1.57073603
O        0.15789413       3.60495995       3.52481941       2.78962970      -1.30818320       1.40097920
O        2.49506969       2.19660938       1.00910030       1.27215305      -0.67729311       0.02383515
O        7.85279964       8.94889949       6.45349008      -2.40201765       0.89077232      -3.23601538
O       10.52739973       7.54006997       1.87653953      -2.21867254       0.41826269       0.93605484
O        7.81297998       4.54336950       8.09613952      -0.17061455      -0.38423054       0.63394071
O        1.51189950       2.75595026       6.56723953       1.36725738       1.89857122      -1.10914742
O        6.07542944       2.43203990       2.52980023       1.79273613      -0.17590511      -0.29889280
O        8.51245933       0.66765147       7.03956973      -0.78455053       0.75650263      -2.51249049
O        2.77484984      10.52129925       2.91975998       2.07873793       1.60470853      -0.00840828
O        3.76226041       2.16176968       3.84396032      -1.15299399      -1.11727031       1.77832304
O        7.01292007       9.90733916       0.86181546      -1.19912575      -0.39862178       0.14788445
O        4.70169023       3.83335994       7.41634946      -1.65672400       0.42313750      -0.80837206
O        5.15768045       4.88529951       1.63996955       1.02864412      -0.30985290      -0.08316156
O        5.66228963       7.33187943       5.71228975       0.03107847       0.23996414       0.18267482
O        6.07935014       9.06903011       8.59212983       0.46119086       1.76462035       0.82846420
O        2.03476001       5.01153952       5.43554926       0.79774646      -0.03435431       0.16660723
96
Lattice="11.022064852798072 0.0 0.0 0.0 11.022064852798072 0.0 0.0 0.0 11.022064852798072" Properties=species:S:1:pos:R:3:forces:R:3 energy=-821.6195876849742 stress="0.019394243305858018 -0.01517347274878614 -0.02314124453348698 -0.01517347274878614 -0.008425014277070169 0.021555586332037528 -0.02314124453348698 0.021555586332037528 0.004432864966182953" free_energy=-85550.10454891912 pbc="T T T"
Hf       5.91434962       9.75439954       6.74600960       0.95823446      -0.74780767      -0.66395680
Hf       6.23944983       1.15073994       9.55424986       1.05358897      -0.07955867       0.81291186
Hf       6.86383988       6.54170020       0.72308052      -0.73503983      -0.05081991       0.16565823
Hf       2.14238961      10.50669955       2.34198046       0.89618269      -1.46896148      -7.41277735
Hf       4.45590008       6.46418973       6.35436037      -1.15251987      -2.56577635      -2.73460784
Hf       2.79262971      10.52329989      10.02789995      -2.83816390       2.90677328       0.24883239
Hf       0.81523160       8.12717022       3.42223981      -0.78075636      -0.97295686      -2.53372883
Hf       9.58036995       2.08554992       7.26032009       2.17354042      -4.05664929      -3.14616484
Hf       5.65357969       9.49415977       0.77018552       3.84958575      -4.93613343       4.96961999
Hf       9.41898929       5.27964953       3.61226021       1.48252508      -0.45117255      -0.17237293
Hf       9.23325978      10.02280004       5.41464998       2.87621752       0.91141493      -1.16285468
Hf       4.91884995       0.51444385       4.07978975       2.48232477       3.46392748      -4.75875894
Hf       1.40544002       1.21810019       4.42627938      -4.80276414       3.85489945       1.86511140
Hf       9.85019010       0.17817168      10.02580025      -0.92458489      -2.37906232      -1.45148235
Hf       7.42675988       7.97410019       3.92228995      -0.13373490       1.94676475      -0.16453723
Hf       2.13495963       9.29553004       6.90231020      -5.80922504      -2.36545656      -4.03177206
Hf       6.96494969       4.63964010       8.60556972       0.03274891      -0.16166762      -1.43915957
Hf       6.73268944       3.50106962       1.27529038       0.15879724      -2.19399920       1.70249170
Hf       8.02855030       7.84791959       8.94803960       2.75659000      -0.73120863      -1.98196907
Hf       3.27072941       1.43108947       7.21723925      -0.89471150       3.26331304      -2.42799633
Hf       4.04899961       7.75896933       8.97610950       1.62109237      -2.42456545       4.08499416
Hf       3.31851998       5.94633014       1.13538951       0.74291589       3.22231294      -0.33427426
Hf       4.28949996       8.42527960       3.81664016      -1.86595935      -0.13123502      -1.52816267
Hf      10.13039965       1.57130005       1.75805021      -0.28103057       1.59879036      -0.56022744
Hf       8.14149009      10.77699916       2.15746008       0.78724016      -1.17596834       1.38024351
Hf       4.09625010       3.73812007       3.48804044      -0.31180565      -0.87954277       1.35008884
Hf      10.07319954       6.81638990       6.53967986       1.48862039       1.20076071      -0.21820104
Hf       0.22743810       4.91664994       0.46235799      -1.32050496      -2.04861926       1.44435474
Hf       1.49960042       4.39567000       6.25323954      -2.89727588      -1.01980133       0.34248071
Hf       0.82905327       7.02707005       9.60598964      -5.44041958       1.19740414      -5.78352224
Hf       6.94386008       3.17228033       5.75551946       2.57672591       1.59649745      -2.36810711
Hf       3.63045985       3.25639962      10.00279941      -1.44327076       3.00708024      -3.62437074
O        5.77795928       5.23907951       6.73429976       2.73781375      -2.07430510       1.98563597
O       10.81309973       5.47925030       5.26873989       0.87977982      -1.13743418      -2.73444997
O        2.74937031       4.30609038       1.95414045       1.17937119       0.21186070       0.33415214
O        0.21460732       5.50146968       7.67525013       2.90421374      -1.31251757       0.28789156
O        8.19471013       5.00436023       1.78994035      -2.86047877       1.14025803      -1.39494842
O        5.36787013       5.19158984       1.42958055      -0.03643407      -0.43762927      -0.68643904
O       10.02760015       1.84352963      10.75714732       1.17293829       2.13461906       1.29825694
O        3.42637970       5.18232028       5.16271975       0.29029554       1.18522611       0.57625801
O        5.27724010       1.91724960       2.74145977      -0.38054769       3.65107396      -0.20148039
O        2.90069003       7.31180967       7.40158990       3.00536326      -0.54463884       0.65528266
O        6.28015983      10.35380037       2.69361960       0.75030884       0.28772033      -0.36966267
O        3.93443958       5.39948031       9.27094973      -0.66914194       1.44012476       1.25005802
O        8.86963966       6.12188959       7.85290928      -5.39356508       0.40297311       3.19563620
O        5.21550993       2.96014966       8.41695023       2.31694241       0.22854587       0.23933499
O        8.50912004       6.68087030       4.78864960       0.16510133      -0.97305867      -0.86059734
O        1.64807976       3.79299011      10.08969957       0.28263160       1.12739943       3.22174190
O        7.73857961       1.46862952       6.11102955      -0.43904080       0.82852720      -0.57806267
O        7.54007002      10.73632113      10.63620000      -2.57713394       2.43851137      -0.12323195
O        6.35385005       6.08322970       9.75505976       2.26653645       1.27368671       0.28758766
O       10.22089962       0.15482364       6.43284959       0.17135708       0.57222138       1.83668708
O        2.78005023       8.55866973       5.08402000      -0.20602481      -1.84251423      -0.50908717
O        1.13350033      10.06060022       3.76494006      -2.96811569      -1.73710209       3.80463721
O        8.71209026       1.23830033       8.72247966      -2.46473405      -0.92611033       1.27429015
O        9.80435925       8.30163959       9.49206999       0.53012830       0.54185074      -0.04262041
O        4.95487006      10.46779938      10.54229972      -4.58066762       5.13434209      -6.13298710
O        6.14945026       7.72465984       2.28068015      -0.17708833      -0.99249647       0.99373137
O       10.59499952       8.45859930       5.09163955       0.05652622      -0.05288219      -1.41361720
O        2.21729005       3.12260939       4.52042986       0.84148967      -0.52223168      -0.04353932
O        2.09640004       0.02573211       5.71667991       1.64978845      -0.58344450       5.84636772
O       10.17289963       5.90314018      10.12290023       2.54316555      -1.08401283       2.29352506
O        8.64751970       3.65175007       7.22787003      -5.41061741       3.78648779       0.32292721
O       10.53589921       3.41598038       1.76648980       0.65205104       3.67943297      -0.17224514
O        9.62511954      10.64910022       0.87053370       1.38061221      -0.26490821       1.63863115
O        7.24589000       9.76097971       5.08534044      -2.10371594      -0.06144448       0.16523014
O        7.07546022       3.71708997      10.31659980       1.71389120      -0.92790187       0.93736688
O        9.57146964       0.66239193       3.94578018      -0.98995982      -2.25001506      -2.04634281
O        5.64514009       7.62001967       5.17534001      -0.93725221       0.36785930      -0.18380611
O        2.15969976       0.29839595       0.58568387       1.08204388       0.36329945      -2.80301898
O        0.57919518      10.99419997       9.16998982       3.60415930      -0.97209400      -0.36150379
O       10.60590365       6.26092963       2.21797011       1.38047362      -0.12362070       0.48735852
O        1.11651974       8.77589038       1.49650983      -0.36057562       1.34093134       2.81219113
O        7.22735971       8.34856934      10.84579999       0.01624706      -1.77766535       0.91707110
O        8.09322006       1.69274006       2.07566974      -1.90625599       3.05550260      -1.39970856
O        4.56820941      10.19129986       5.25089957       0.66986802      -5.38757004       3.11940042
O        2.37635939       3.41317968       7.65094978       2.73738643      -2.41131424      -0.46891857
O        3.54242000       1.40550946       9.12042029      -0.69578834      -2.75117371       1.85366716
O        5.90515942       0.30271770       7.82455943       0.28411590      -0.05148506       0.65016051
O        4.58325012       1.67165044       5.73879017       0.71615790       1.34624813       0.08919723
O        5.90694940       8.32438031       8.32455005      -0.46845782       0.54604395      -1.83302892
O        8.48234965       3.89751015       4.47136955      -1.45436430      -2.10650199       1.61780187