108
 Atoms. Timestep: 0
1    1.9498426099999999    1.6123894800000000    2.2463115000000000
1    3.2310994800000001    7.2917578000000001   10.6101818899999998
1    5.0867491899999999    5.3743590899999996    2.2430686899999999
1    8.9265713699999996    5.1206595400000001    7.8247845199999997
1    0.2592721000000000    7.0133755899999999    5.3305418199999997
1   10.7365987599999997   10.8800927800000000   10.6153213300000004
1    7.1881782400000001    3.5480399000000000    5.1419050200000003
1    7.2680072800000000    7.1069656900000000    5.4505338700000001
1    1.6494264599999999    5.2833683000000002    2.6433772400000000
1   10.7283949100000005    3.2646578100000001    5.3122076399999996
1   10.8235741700000005    3.6351975099999998    0.1936622900000000
1    1.9354248400000000    5.1519876800000004    7.7933675300000003
1    8.9461627799999999    9.0473408899999992    8.0078490599999999
1    1.7098071600000000    1.6894044600000000    7.9303547200000004
1    7.3893707199999996    7.2870110099999996   10.4758578999999994
1    8.7307771299999999    9.0393448700000008    2.9513383800000002
1    5.0789946400000003    8.9861253300000001    2.4193840299999998
1    5.4426058800000003    9.3071524599999993    7.9839223300000004
1   10.9507573300000001   10.7516530699999997    5.3004673799999997
1    3.5276752199999999    3.4735595899999998    5.1816768299999998
1   10.9538038699999998    7.2940740100000001   10.3258917399999994
1    1.6456279000000000    9.0987234299999997    7.9318484199999997
1    7.2406413799999996    3.7825271200000001    0.0748470800000000
1    8.9499556299999998    5.4080370699999998    2.6872656600000000
1    3.8236803699999999    6.9904107199999999    4.8131646100000003
1    3.7737331799999998    0.0466739800000000    0.0220746300000000
1    7.1999626299999999    0.0728454600000000    5.2426781499999997
1    5.6696258100000003    1.6242438699999999    2.6256736900000002
1    5.3494679300000003    1.7250430200000000    7.5813982700000002
1    1.4256022800000001    8.9866387299999992    2.5796010100000002
1    3.3299887699999999   10.9341262399999994    5.2506655200000001
1    3.7357748000000002    3.6106027200000002   10.2165931000000008
1    7.1817182600000002   10.9535638199999994   10.5472857399999995
1    9.0363334999999996    1.7914524800000000    2.5222215200000000
1    5.4428051599999998    5.4758693899999997    7.8838400899999996
1    9.0497654500000007    1.7001676400000001    7.7713846300000000
2   10.5057749000000005    9.5845480799999994    1.6476423200000001
2    5.0698647899999996    7.1086391100000004    3.3652439699999999
2   10.8249983400000005    5.5721666000000001    4.0577155600000001
2   10.5201266100000002    1.7316611000000000    4.2294791399999996
2    1.7629813400000001   10.8695582599999998    3.8848047999999999
2    1.7024185500000000    0.0846790300000000    1.1687234900000001
2    2.1226030599999999    3.9810609000000001    0.6740873500000000
2    0.4495063800000000    1.9355864400000000    9.7257516200000005
2    1.7441040500000000   10.8285213500000008    8.9739178099999997
2    1.7574875700000001   10.4756398799999992    6.2722654799999997
2   10.9542293999999991    1.8100072300000001    6.7498245399999997
2    1.8843236500000000    3.3871044800000001    3.3237903400000000
2    1.4719650000000000    7.5332583900000003    0.9597057000000000
2    1.8063053099999999    7.1928590899999998    8.9430213199999997
2   10.7286291499999997    2.2867134199999999    1.6239633499999999
2    3.7478391100000001    5.1082562500000002    6.4553532999999996
2    3.5104206200000001    1.6528777100000001    6.7340960599999997
2    5.3909712299999999    3.5057395499999999    8.6978579099999997
2   10.8328709900000000    5.2844045199999998    1.4801322500000000
2    2.3622152700000001    7.5195828899999997    5.9504287099999997
2   10.8529835800000001    8.6150234799999996    6.8946615600000003
2    3.8762220599999999    1.6630748900000001    4.1044106700000000
2    5.8673867599999996   10.6716270499999997    3.3763120500000001
2    5.5116577099999997   10.6540145099999997    0.7522161400000000
2    3.9002888900000001    1.6740566400000001    1.6405635100000000
2    3.6148129999999998    1.6211643600000001    9.5406527899999993
2    5.7888704700000000    0.0107577000000000    8.8401978700000008
2   10.8968633500000003    9.1563911000000004    9.6441568300000000
2    3.4844188500000000    5.0834485799999998    3.7930377300000000
2    5.5925345699999998    3.3697822799999999    3.3712241600000001
2    5.3253816100000000    4.1550901700000002    0.5425526300000000
2    8.9840330700000006    7.0992439000000003    6.2406166699999996
2    3.5141731500000000    5.4887050000000004    9.1911944400000003
2    5.3005107200000001    3.7454195800000001    6.0235617599999998
2   10.9428808499999999    5.4587485600000001    9.1918897899999994
2    9.1598810299999993    0.0837115100000000    6.4382472000000002
2    1.7347139899999999    3.5966836700000000    6.2946254899999996
2    6.6201868800000003    1.9379128400000001    0.9569061200000000
2    9.0192770899999992    0.7570895100000000    0.8552598300000001
2    7.3258765400000003    8.7171040400000006    4.3839670799999997
2    7.5008020100000001    1.9078092600000001    3.9086825300000001
2    3.5114363499999999    9.5687969699999993    7.2567654399999997
2    8.9451281999999992    7.2605082200000002    9.0573037999999997
2    7.3484578400000000    1.7218183400000000    9.3133880799999993
2    7.7142563300000004    9.0940986899999992    9.6450297799999998
2    5.8448564000000003    7.2782907999999997    8.6964975100000004
2    9.0571913199999994    7.2096918800000003    3.6427283600000000
2    5.1491348400000003    7.4112087700000000    6.1715991800000003
2    7.3006592200000000    8.9426611299999994    1.4384127900000001
2    9.0891076799999997    7.3007725099999998    0.6677890300000000
2    7.6362253999999998    5.2474180500000003    9.4663071900000002
2    4.0345408599999999    8.9785132099999991    9.6397276099999996
2    9.3238728500000008   10.8999822999999996    9.0311523099999995
2    7.2296911899999996    5.1815925399999996    6.8325191099999998
2    5.4810941900000003    0.4163562700000000    5.9070828000000004
2    0.4158410100000000    5.6138053200000000    6.4924396900000003
2   10.8613636099999997    9.2070802399999998    4.0367162700000003
2    1.5810151100000001    7.3236430500000003    3.4513526899999998
2    3.9574907100000001    9.0638144399999998    4.2112619899999997
2    3.2360449099999999    5.9970761100000001    1.5488692500000001
2    5.2545450400000000    7.1741711099999996    0.8439352700000000
2    9.1459865199999992   10.8676504900000008    3.5999253800000002
2    9.1962395000000008    3.3834953600000000    9.0509243799999997
2    7.1961840099999996    5.9043847300000003    1.6130177100000000
2    8.7533348699999998    3.6848508700000000    1.3186781700000001
2    9.0494758799999993    3.5659999700000000    3.5588294199999999
2    7.1367621699999999    5.2613336000000004    4.5414043599999996
2    3.2418811700000001    9.3051311900000009    1.6329740900000000
2    9.1155543699999999    3.4867889600000002    6.2457008399999996
2    7.2934387799999998    1.7093592799999999    6.7606757899999996
2    2.1277929200000001    3.5278868900000000    8.7864617900000006
2    6.9259656700000001    9.2839186199999997    6.8249149100000004
108
 Atoms. Timestep: 50
1    1.8755919579936142    1.6602614310775048    2.3970139239840220
1    3.4948323677306283    7.2453385868114273   10.5291178727271788
1    5.0482921272976835    5.2604865400764123    2.3199709833911286
1    9.0862154212379487    5.3628077832219452    7.9453351968345682
1    0.1031302406311003    7.0704320363663555    5.4247285391220128
1   10.7190023816221345   10.9047398741617929    0.0513561311715644
1    7.2605451154994460    3.3842817035924599    5.0122251751486742
1    7.3521190243669921    7.1123106468512836    5.5005461598528891
1    1.6600609312185486    5.2558851612102258    2.7387889479537333
1   10.4990293682211409    3.4906054778314810    5.0596068574314383
1   10.8946485274198288    3.4534575325676138    0.1264885152231413
1    1.7995138323847890    5.2649948808749869    7.5398442964134684
1    9.0429801099850540    9.0483012788036277    8.2338059706018782
1    1.9280480473828969    1.8035596401430083    7.9851264295091537
1    7.1790564828741861    7.2474919143973340   10.5319111976342334
1    8.7146925553314603    8.8703956015677257    2.9358796205821043
1    5.2965069603093040    9.0059210224009245    2.5559635294983534
1    5.4690842027369229    9.1230052499730352    7.7602658261189141
1    0.0882723043572207   10.7171614657182630    5.0647531859389954
1    3.5866127430409818    3.5822405194589284    5.3015140785814951
1   10.6894407584998099    7.0137942838539420   10.2362565000902261
1    1.7703998238588574    9.0984854368685060    7.9252609163595613
1    7.3390632013902168    3.6466068756207393    0.0069660746747405
1    8.9795301240156018    5.4871733247335195    2.2544048312136149
1    3.7986718353968056    7.2585974591242257    4.8005961458334108
1    3.6937161311419477    0.0304317184115086   10.5767367461918429
1    7.2842629769485994   10.8116393565751565    5.1578917929567858
1    5.3986741839519627    1.5135921564660444    2.7527553989692390
1    5.4312173084705400    1.8870176838460260    7.8617551821003104
1    1.4670782556762458    9.1329635851949256    2.4200760869922853
1    3.5299434270310037   10.8000714846889121    5.1717930990207091
1    3.6346654650068473    3.7665497745906240   10.0514101451312747
1    7.2187087561575005   10.9288397305477663    0.1084319303208258
1    9.0604354357317902    1.8122122920491863    2.5246883058441569
1    5.3671858881511509    5.5630977870235911    7.8696879825267398
1    9.0956490551076357    1.7540948754950878    7.8719507874028718
2   10.4287056936111675    9.6831956115026099    1.8688088686761293
2    5.1503702512387948    7.2312519719180663    3.4382329714144988
2    0.2306341704601205    4.9820017158575922    4.2128569758204870
2   10.5761561265819957    1.5297868468789204    4.3891899776593188
2    1.7155771427586903   10.8427120400178865    3.6350455005477569
2    1.7204387300322797   10.8031033946569224    0.7283008132250127
2    1.8365294570547563    3.4889985531072027    0.9570804933998962
2    0.3193887439928251    1.7601577098449348    9.8696637816329762
2    1.8094366262496950   10.8718991328974504    8.9867503329238367
2    1.8260220916358274   11.0237727717835927    6.1432177947927018
2    0.0272746471770751    2.2933990505669062    7.3498728692704178
2    2.0337520786552146    3.3576158193605332    3.7053174044133250
2    1.3576393057471106    7.8355587156834412    0.6870188672303298
2    1.6486263288148117    7.0492467429958481    8.8707519575835629
2   10.7491645409475751    1.7166094742193558    1.7072900389568828
2    3.8906671741322203    5.3285135775725578    6.7520214589225898
2    3.6450749366704134    1.7506278131462216    6.7718247228749746
2    5.1612233102681282    3.7302361829137718    8.5195232476014695
2   11.0775892429620111    5.3388336073810567    1.5419955573091699
2    1.9532287862038076    7.0247093905368319    6.2844244780492176
2   10.7991737626965136    9.0964285083788656    7.0722294841226008
2    3.6916528994853426    1.5475303114401797    4.0368526828819764
2    5.5959681620430555   10.7349637552597788    3.8161892792375638
2    5.5256126559523615   11.0394305961215196    1.1888028726442097
2    3.5900021325586366    1.8754990921599257    1.3604516084854217
2    3.6145683442883723    1.8353988087085260    9.2839821341955844
2    5.4971738137665405    0.2132841965203636    9.4218806503224855
2   10.3703910769108809    9.0749283082158456    9.7740168135656820
2    3.4901151908717214    5.3491493843443090    4.2763584463048341
2    5.3352169288161768    3.4664771352434767    3.4884805339774458
2    5.1874702962094341    3.9449351432760871    0.7718962516860095
2    9.2025795936009978    6.8718914429315969    6.3525437690311213
2    3.7598606268815988    5.6802228947934799    9.2891132176162721
2    5.3193617561872477    3.1692943504000048    5.9619538807263570
2   10.8337418142072544    5.1959513319635739    9.5391809512195920
2    9.3803101584964850    0.1895108315397176    6.0395262125800349
2    1.7316655389835431    3.6377637249915109    6.2425063819550752
2    7.1998566816719043    2.0044903265560703    1.6524036920900611
2    8.9723944816213574    0.5124139665153815    1.0807462393136722
2    7.1371332266540310    8.7876886642883623    4.3999815441278658
2    7.0842288926241910    1.8032176550229793    3.9066200030692944
2    3.5052507783547666    8.8750375420086183    7.1511687025492243
2    9.0330151911555596    7.1964791536383927    9.0053587382458300
2    7.1422777611881889    2.4327161504294685    9.0097179519787680
2    7.0412374141995961    9.2850908872838378    9.4331300539369121
2    5.8333173583325371    7.4130595290507024    8.7648945723991272
2    8.8320073261225165    7.0019525285376005    3.6180810544211410
2    5.5113723950857478    7.4220119702734673    6.2383583098763040
2    7.2284795383503297    9.3227427059262222    1.5419791518345034
2    8.8115923717548004    7.2082199999263858    0.9649543412581754
2    7.1901518368460851    5.2317344580469278    9.5370823448037427
2    3.8104900597561335    9.0771760696575612    9.7741166402171000
2    9.0254832072443580    0.0392331571477362    9.0852923834153021
2    7.0562448903718362    5.7544107577867933    6.9444497142743096
2    5.3467928843911841   10.5363422772209407    6.4584220404748089
2   10.6327301226454907    4.8752688576354402    6.8944900368650952
2   10.6870988017210777    8.7607765556421349    4.5783902026179550
2    2.0300128207799282    7.3123712416405242    3.5509954740412715
2    3.5223256255806987    9.1263965440923229    4.2321438658476218
2    3.1122742782172526    5.5871202423781936    1.3089777626088519
2    5.4816440636449153    7.5808510188708143    0.7748303905980840
2    8.6772221573693109   10.7713812459082785    3.2911456757960935
2    9.4456409952793567    3.3976288166546560    8.9043128425219784
2    7.2419852754547236    5.2407833736489096    1.3204462354081521
2    9.1451951978034351    3.4377769984050421    1.2365329174575339
2    8.7051012254127951    3.9433586458484240    3.7855375729065992
2    6.9036804626362356    5.7297750179009226    4.2182712257577499
2    3.3652902583160813    9.3947069570469139    1.8909145262276561
2    8.5890766814165094    3.6078267123803842    6.3625426533316043
2    7.4260926469701980    1.5815159999087658    6.6500808133098799
2    1.8083150673194575    3.9341136974432227    9.0519391664892055
2    7.5789037225536324    9.4014751365346498    6.7966919489471787
108
 Atoms. Timestep: 100
1    1.9181208064501452    1.7921176584905567    2.5341864441035264
1    3.5755290940234943    7.3957858066952102   10.5400042011898982
1    5.2168703778152894    5.1637831238316316    2.5212562912211638
1    9.1519898302160492    5.3621811148311522    8.0556045392082432
1   10.7270101408635750    7.2009109550012873    5.3570491059994527
1   10.7688772354326776   10.8990076092213890    0.1596954773593979
1    7.0761082615783497    3.4703137828403494    5.0018848280632833
1    7.4985872484781124    6.9651486749632854    5.3426282703317201
1    1.7751034721287968    5.2549561456647513    2.7568235261901624
1   10.5777437990914045    3.6939210873224133    5.1948612722895033
1    0.1107434571226506    3.3546847797560728   10.5139290953603695
1    1.6978590323569325    5.5260181632727363    7.4655332304251525
1    9.1826692947215829    9.2697087847795903    8.3024270046750956
1    1.8852945013148803    1.8458289011392288    7.9486553036781578
1    6.8961881411484036    7.1907892751618379   10.4865317621555239
1    8.9759749639088504    8.7590921429003235    2.7156271720606089
1    5.5207956067819257    9.1303453839500328    2.6110314507766961
1    5.4727617363498249    8.9442117349889987    7.6424255718186203
1   -0.0025901828891476   10.7649157512822349    5.0099416268805568
1    3.6081817934227884    3.5311033142446604    5.2231488776628812
1   10.7184806248631599    6.9645174896937885   10.4504308919572217
1    1.8775431198360606    9.0223891945961121    7.9328963104878625
1    7.3188949518485122    3.4526100259363708   10.5559829094108313
1    9.0102983505849981    5.5180567490998040    2.1043889007858381
1    3.5807913023456686    7.3868286685097484    5.1043139150264167
1    3.5546959906305009   10.8824358577600950   10.4565140202121789
1    7.4554693482402064   10.6103846807390880    5.2698231443213004
1    5.0570115061427510    1.5031236718353669    2.7506377260361798
1    5.5551529967854938    1.8746574436311301    8.0166122467672043
1    1.6079160413156670    9.1197454308767689    2.1912943443781270
1    3.7748778409343280   10.8543770421115262    5.2847381380835436
1    3.4473965590849005    3.8595815358084735   10.2359386599046367
1    7.1026072227190262   10.8940602155848705    0.1743045899794562
1    8.9471023699632184    1.6626811418533927    2.6463533924408789
1    5.3864701298556126    5.6998004327762830    7.8030881172894810
1    9.0463151178278718    1.8504788688606943    7.8529644505525011
2   10.5930813677568896    9.3947218657256855    1.5026612190370998
2    5.0743459626142018    7.3262005548779721    3.5939522299560029
2    0.2152408745428417    5.0855660311455626    4.1271113339904648
2   10.6555677667003081    1.6774159987855721    4.0640637405801439
2    1.2095871887053147   11.0574889859888632    3.3635835430369978
2    1.8978641065608186   10.8560164601002054    0.8398018761475253
2    1.7959283224482312    3.5613160327652813    1.0206841381651057
2    0.1759507035671701    1.6065797447909183    9.5638608602360087
2    1.9944179384971854   10.9306261537079692    8.9054775661000800
2    1.5393376167223431   -0.0924011252228065    6.2921439350642068
2   10.7444036117452058    1.9439511758802612    6.7002690317414020
2    1.7033007326770195    3.3280115605503857    3.9558866771448948
2    1.6271197409845499    7.6139963070348227    0.6071039892332961
2    1.2069834298500581    7.1478567326421487    8.6544010010585026
2   -0.2443283808339917    1.8839772651881992    1.4938638929828640
2    3.6296326164633745    5.5656360774700691    6.6141236629449702
2    3.8805245159784745    1.6998532552648475    6.8178726770336500
2    4.7900994339530421    3.7525200140957318    8.5827926804694492
2   11.0961905505005642    5.6358894397536226    1.1962719226875200
2    1.8337834670213566    7.2136665869850889    6.1220927209552842
2   10.7756862431080407    9.0025484061435712    7.0538314419290451
2    3.4366205447339127    1.6962215360369937    4.3008390129604583
2    5.4038731561035034   10.7973103144883638    3.7480298447846789
2    5.4599753562017161   10.7596544804540741    1.1204978287629941
2    3.5723524528973369    1.6357822829323361    1.5718214284233096
2    3.2890741864973316    1.8067107951344663    9.8223726362946611
2    5.2314124376596842   -0.2556622385686592    8.7383212228999181
2   10.7019033803385373    9.1776676588516395    9.6082840215845007
2    3.5470969644465371    5.2604588229450977    3.9757623808163811
2    5.1972759144054583    3.2805457478374342    3.5227793194329187
2    5.2969435725802185    3.8223140831940121    0.4357270136977371
2    9.1460648540350729    7.1771413750423099    6.4869729695245217
2    3.7452103514452415    5.7656523576141723    9.2028140280770465
2    5.5163618991354673    3.5035388777091052    6.5062695444423149
2   10.6715136461730182    4.9799558669225963    9.5304070685170732
2    9.0845897695223954   -0.1181310943770572    6.2668622181483711
2    1.6141772316558287    3.0202608513681164    6.0762634883268971
2    7.0681755013794865    1.7555368381450354    1.5865284597965947
2    8.9240829763394700    0.4577685228044582    0.9077498780206964
2    7.0936328029402365    8.6740116716752080    4.2495868823682903
2    7.2188089943528198    1.6993380744106852    4.1154853225472383
2    3.5298309139368946    9.0499607625750933    6.5752186980151883
2    9.2220018869625999    7.0581845956546987    8.8097053297726777
2    6.9834676410161540    1.5021318595787643    9.8304320332790951
2    7.7529405578001329    9.2446522744405097    9.8892392490852608
2    5.4850576592558671    7.6946620549246258    9.0830520301642963
2    8.9974540077330492    6.8298880116050178    3.7385408413539034
2    5.5760678504833523    7.1096053241212420    6.1934764913672486
2    7.2925495284073749    9.1666501688134581    1.6033437092615903
2    9.1435120957322837    7.5390501223287991    1.0643374049222736
2    7.0315041405511165    5.4159455430601202    9.7320865186690160
2    3.6490509392779518    9.0193337615865072    9.2151786792147927
2    9.1484119321739001    0.0792807407394267    8.6364367889537998
2    7.0760197615716134    5.5977916330174846    7.0395814418148248
2    5.4611296637295181   10.5302005503287788    6.3209669447774086
2   10.7872746144573295    5.3380148646998249    6.7716869435710052
2   10.6876787753641747    8.8086982990086646    4.2345358668066817
2    1.7362272726492742    7.2735732653013052    3.1410945059888835
2    3.3607442364711493    9.3435620748373847    4.0321395789526324
2    3.4833542840436351    5.5258022382178744    1.2340013318204999
2    5.3807213864584433    7.1406632543557329    0.7448422581937711
2    8.9005433604210289   10.6215496041564723    3.6818944587829079
2    8.5715144482917012    3.4744984600203694    8.7013027247419323
2    7.1540635431059778    5.5486811867843038    1.8795927722375898
2    9.1916226287148675    3.7281219731217110    0.6801565812734319
2    9.2140296977159792    3.8712771573464813    3.4385240797574044
2    6.7145187202402248    5.4722766299375065    4.4922374563752889
2    3.6575134258301407    8.9849049537356187    1.0373868394215451
2    8.6011443930590534    3.5576038177173741    6.2768119389656523
2    7.3093305198278600    1.4211160246597050    7.1683341646444818
2    1.7234230785976117    3.7493656218617044    8.5962381964384420
2    7.5280280181017432    8.5546608577384671    7.1508965035534828
108
 Atoms. Timestep: 150
1    1.6804895064177883    1.7875184841224709    2.6246717192071500
1    3.5589294073216782    7.4135731646563503   10.6393655430374707
1    5.3348873946300790    5.3233753387317284    2.6208467433621103
1    9.0573464868739677    5.3506920204284620    7.9961948552469559
1   10.5985236466177231    7.4100820312588409    5.1704860889203381
1   10.7261020299571843   10.9270153949794029    0.1211604641620570
1    6.9937106888009728    3.5763558062865939    5.0632405897304702
1    7.3683749114080932    6.8599786505235176    5.2139904677299320
1    1.8465964132583295    5.4549406685890940    2.6626723816364777
1   10.8146951179011346    3.6345613605734282    5.2891765015499912
1    0.2521256301323233    3.4025226849852901   10.3876466161988041
1    1.7820221259699256    5.6438664327042716    7.6088465736949749
1    9.3051152871411897    9.2476924438050716    8.2153114793021516
1    1.7711568405460061    1.7827030276590656    7.7709810059366271
1    7.0077685405974011    7.1787931506578069   10.5376578649983976
1    9.3381497655081223    8.7237055142368227    2.5411115815797358
1    5.4741833289745498    9.0123391878634589    2.7114000972572696
1    5.4199177103742961    8.9911265089629104    7.5218184017327081
1   10.8358216390583255   10.8672828004088018    5.1039304465728659
1    3.5469425009544695    3.4448150726026108    5.1388910265029715
1   10.9274578433999991    7.1749848096577589   10.5388880422819895
1    1.7401643008538779    9.0438092061821997    7.7797481180711445
1    7.0819901853885279    3.4348086821612385   10.5869951561347087
1    9.1517356504631913    5.3196946020081706    2.2526477737807582
1    3.4303288159779157    7.3384595578424161    5.2078413767412419
1    3.4324372732927690   10.7496738873764688   10.2228730947729431
1    7.6109587072265974   10.6008390065553133    5.3744914018526204
1    5.1069162582291545    1.5156342082212035    2.5690657656802700
1    5.4513716170699986    1.7647125410654014    8.0444774349552830
1    1.9291513450481943    9.0325518082434488    2.1803369805908450
1    3.8113135193486891   10.8479775517801631    5.4820717612485543
1    3.4987500318249269    4.0170413687407365   10.5378150399655386
1    7.0697033501742865   10.7868509765402223    0.1674936511149221
1    8.8619380973261510    1.4893736666450563    2.7822926159289834
1    5.3107501808968980    5.5209608833882502    7.7711354497007248
1    8.9919682562983176    1.8951135641844929    7.6485146942899593
2   10.8846382645307340    8.8953677960183288    1.2588931721502088
2    4.7089511327550051    7.4494334877794151    3.7075110628016037
2    0.0305592563885423    5.6929887655735048    4.2272573262804567
2   10.4119016477825852    1.9934509852066360    4.0271149927181025
2    0.9813299230693869   11.0797985366914151    3.1519999396303828
2    1.6741332504008333   10.6295917081387330    0.5383579021719467
2    1.9068699582389157    3.2602477691844229    0.7660040595828235
2    0.0221832910425639    1.9374472525788844    9.0822741668699987
2    2.1048898206369482   10.9134939383844269    8.4205868072117322
2    1.5395525764539910   10.8982532121021833    5.7655910896465636
2   11.0266071153223955    1.7852103307656373    6.5721057703807677
2    1.9169372447731639    3.7601378841422162    3.5692883017395931
2    1.6705128166267009    7.7428662148211815    0.7117746085563619
2    1.2273300609761897    7.1937005586052356    8.7585195880279816
2   10.8216603245214191    1.7658350254593320    1.5079503557301948
2    3.5718941920364036    5.5249325557522129    6.7645719826445410
2    3.7047100857211315    1.3217777361196204    6.8869878587000315
2    5.3988312869442749    3.8333847008763540    8.8954202361059629
2   -0.0022342468299216    5.5147118460712896    1.4179487083343729
2    1.6173119388745913    7.1393408802553768    5.7436509827849145
2    0.0271217727961670    8.8376838262466286    6.8311090377694166
2    3.3418834811621472    1.5798294761909435    4.2404314758740469
2    5.5960258583757883   10.7712538162753848    3.5213369572339035
2    5.4475620260656914   10.7834159240328855    0.9540452896108831
2    3.3873455389564611    1.3349539117384328    1.6093861260861131
2    3.3930726152834993    1.8988479737805313    9.3034627177054681
2    5.1606757034842037   10.9093413445491905    9.0172183081268855
2    0.0886302194497832    9.3711588894428974    9.5518756057276981
2    3.5134493951965546    5.3708986895865793    4.1734308336556296
2    5.1878570036158260    3.2452897925570157    3.4778960694890562
2    5.1531247625323138    3.6893276412718468    1.1675375778662720
2    9.0996209434049309    6.9822679245004471    6.5532548257544025
2    2.9925751613341474    5.7159665181325092    9.5748528386435066
2    5.2202441667100903    3.5381888478284749    6.4051261974797269
2   10.5656462320355722    5.2465436911978127    9.5987673652537886
2    9.3857803923631717   10.5090105326559158    6.3558080980849851
2    2.0530655472224097    3.6950661233044189    6.4557878905328998
2    7.0297162310279528    1.9152676254115033    1.5957800444942121
2    8.8564663276387066    0.0648391718641269    1.1500769287351058
2    7.4347277118799493    8.7803498103866779    4.7121713071023663
2    7.9012382670600552    1.6870566209624100    4.7097867029918428
2    3.3526562318676461    8.9441098881598435    6.5996134479680109
2    9.0477822231810787    7.4208145078113574    8.9138649434975665
2    6.7478446413397446    1.5680466881917126    9.8640241046589026
2    7.3728542869626992    9.0543206309817421    9.9814251359323549
2    5.4320733005770165    7.3294104506481599    8.9515876991210899
2    8.9047211011427976    7.0857969947657526    3.8240117712550159
2    5.4433248407998072    7.3438257110483374    6.4041069003343667
2    7.2995342217701493    8.9550454849077088    1.8139211909525945
2    9.0492772932738816    6.9793389306344720    0.7994138665610391
2    7.3030396908979576    5.4843906702858405    9.4978115051809482
2    3.5042408473491315    8.8364954350262224    9.2229469433790818
2    9.1112641553182723    0.1334311211137852    9.3256293532401031
2    6.8379508578600987    5.5385249574187716    6.8213495161570972
2    5.4677762417464129   10.3838558869343487    6.1730736078118067
2   11.0649588487439186    5.2558249354749522    6.8457224028587138
2   10.6041886153605116    9.0229201844145877    4.0797953798874911
2    2.0871120998258816    7.3639551569632307    3.1669211428051565
2    3.3777402456009411    9.6061141056654318    3.9160142054052653
2    3.5140336889024795    5.4716468845960886    1.4956629236186705
2    5.2641572878153422    7.4665450833955944    0.9889619622892121
2    9.0190719470931491   10.6259093999748995    3.5568124843097255
2    8.6588382724522521    3.3018955329973556    8.7627081961795046
2    7.0605511037821662    5.6972122505271088    1.6299835506577078
2    8.9587484348098876    3.7176898595655818    0.9158212056720534
2    8.5338454782974011    3.8039330859260962    3.6875104264220111
2    6.6227833983722171    5.4102199662231332    4.3441029469626971
2    3.7515346310647391    9.1297371693305571    1.1246708045730871
2    9.0496549552672700    3.6455290597097840    6.4148793784361242
2    7.1728259607574198    1.4750767833165670    6.8880727494269873
2    1.7512600830366520    3.7849733706825126    9.1032198512620344
2    7.4401697307001591    9.2849284655606645    7.4136458027732788
108
 Atoms. Timestep: 200
1    1.3934748597060160    1.7642628261443272    2.5720019100081650
1    3.7664791020132538    7.3509249990108509    0.0146202706229738
1    5.3350173722082888    5.4976447509277602    2.6188532466947096
1    8.9716308167567789    5.4101464073016032    7.9986835612317275
1   10.6476959208716284    7.3046611514805626    5.1803230566333900
1   10.5294371254159920   10.9689202218756297   -0.0420566435945127
1    7.1230014171388287    3.5159208744543640    5.1436731567771359