ITEM: TIMESTEP
0
ITEM: NUMBER OF ATOMS
108
ITEM: BOX BOUNDS pp pp pp
0.0000000000000000e+00 1.0956000000000000e+01
0.0000000000000000e+00 1.0956000000000000e+01
0.0000000000000000e+00 1.0629000000000000e+01
ITEM: ATOMS id type x y z fx fy fz
   1 1    1.9498426099999999    1.6123894800000000    2.2463115000000000    0.2628846757782565    2.3388213753918312    4.0230021187802665
   2 1    3.2310994800000001    7.2917578000000001   10.6101818899999998    2.3689865064323121    0.2616244923698751   -1.3623857058287046
   3 1    5.0867491899999999    5.3743590899999996    2.2430686899999999    0.8922486988875510    1.1139319641219840    0.1988027373605514
   4 1    8.9265713699999996    5.1206595400000001    7.8247845199999997    2.3100654959942313    1.5536100289419066    2.7977024859330650
   5 1    0.2592721000000000    7.0133755899999999    5.3305418199999997   -0.1469146508170400    5.0565074019968019   -1.9806875045440349
   6 1   10.7365987599999997   10.8800927800000000   10.6153213300000004    0.5796876950367764    1.6473822214812675    0.7088123705856676
   7 1    7.1881782400000001    3.5480399000000000    5.1419050200000003   -0.9463800687855835   -2.2875614718666419    0.2330520579513673
   8 1    7.2680072800000000    7.1069656900000000    5.4505338700000001   -1.5967375984009180   -0.2383993399468375   -0.6120448395670612
   9 1    1.6494264599999999    5.2833683000000002    2.6433772400000000   -0.8223652323056430   -0.1666378080323580   -0.8037404208668570
  10 1   10.7283949100000005    3.2646578100000001    5.3122076399999996    3.6539265591341015    2.5085875392603389   -3.0875851628906479
  11 1   10.8235741700000005    3.6351975099999998    0.1936622900000000    0.0577283047820767    0.4079173826622386   -2.5827512927971741
  12 1    1.9354248400000000    5.1519876800000004    7.7933675300000003    0.2547020156592037    1.9760210257040056   -0.8546575151745289
  13 1    8.9461627799999999    9.0473408899999992    8.0078490599999999    0.4932084358412449   -0.5046225821153602    0.2611021015008237
  14 1    1.7098071600000000    1.6894044600000000    7.9303547200000004    0.5037638430119795    0.5629559637265380    2.4586510055803714
  15 1    7.3893707199999996    7.2870110099999996   10.4758578999999994   -2.2515377463966231   -0.4606987779858890    1.1212964221087818
  16 1    8.7307771299999999    9.0393448700000008    2.9513383800000002    1.3012344433262264   -0.7233747509051333   -2.8081026215557254
  17 1    5.0789946400000003    8.9861253300000001    2.4193840299999998    1.7277067474455075    0.0475188929451055    0.6210584274984149
  18 1    5.4426058800000003    9.3071524599999993    7.9839223300000004   -4.8367450337142639   -4.5726864156282137    0.5526358990178880
  19 1   10.9507573300000001   10.7516530699999997    5.3004673799999997   -1.4086682570679325    0.6604687283219373   -2.7896320224186359
  20 1    3.5276752199999999    3.4735595899999998    5.1816768299999998   -0.8413706225219330   -0.3793476040660674   -1.2066443204903721
  21 1   10.9538038699999998    7.2940740100000001   10.3258917399999994   -3.7070763864233345   -2.6855782802634187   -0.7327279723512310
  22 1    1.6456279000000000    9.0987234299999997    7.9318484199999997    2.0234580814551784   -0.6223340401611284   -0.6911171148693687
  23 1    7.2406413799999996    3.7825271200000001    0.0748470800000000    0.6527319451928290   -3.0786431985058882   -1.6446376600172103
  24 1    8.9499556299999998    5.4080370699999998    2.6872656600000000    1.1782169283370316    0.8137865466682642   -0.7669105813102306
  25 1    3.8236803699999999    6.9904107199999999    4.8131646100000003   -1.9707534725870155    0.0658074458791203    2.7028622621320610
  26 1    3.7737331799999998    0.0466739800000000    0.0220746300000000   -2.9687177474225934   -2.3088330647967745   -0.4416544572327793
  27 1    7.1999626299999999    0.0728454600000000    5.2426781499999997    2.2782802246755658   -1.8408100527142013   -1.7792570298498189
  28 1    5.6696258100000003    1.6242438699999999    2.6256736900000002   -1.5858639305179925   -1.8214075589273120    1.2682856314868123
  29 1    5.3494679300000003    1.7250430200000000    7.5813982700000002    1.6918446845833892    0.6530419253524382    2.0282131155992751
  30 1    1.4256022800000001    8.9866387299999992    2.5796010100000002   -1.8635441395150754    3.3569622704804720   -0.7879680796803575
  31 1    3.3299887699999999   10.9341262399999994    5.2506655200000001    3.5415328443910674   -1.4918882032284484   -1.1665418778384871
  32 1    3.7357748000000002    3.6106027200000002   10.2165931000000008   -2.4035708304694725   -1.0791901470752070   -2.1802974241476210
  33 1    7.1817182600000002   10.9535638199999994   10.5472857399999995    3.5428598812169891    1.9476682208883949   -2.0614360057845094
  34 1    9.0363334999999996    1.7914524800000000    2.5222215200000000    0.9294006713967713   -0.3390186766745986    2.3516838871088042
  35 1    5.4428051599999998    5.4758693899999997    7.8838400899999996   -1.8530839886399224   -0.2094879177741939   -1.1463898688368352
  36 1    9.0497654500000007    1.7001676400000001    7.7713846300000000   -1.2888893288971561   -0.2230662735212223    3.1899731743307096
  37 2   10.5057749000000005    9.5845480799999994    1.6476423200000001    0.9801715114287100   -0.2509891307945811   -1.0316200847456851
  38 2    5.0698647899999996    7.1086391100000004    3.3652439699999999    2.9500705166628856   -0.1997826553177048   -2.4579500184426157
  39 2   10.8249983400000005    5.5721666000000001    4.0577155600000001    0.4630492931979093   -2.9408250217836223   -0.9285807546297735
  40 2   10.5201266100000002    1.7316611000000000    4.2294791399999996    1.1154538898174247   -1.9729742270395088   -0.0330230870457331
  41 2    1.7629813400000001   10.8695582599999998    3.8848047999999999    0.0294660628548808    1.3224532228636381   -1.7419555905081867
  42 2    1.7024185500000000    0.0846790300000000    1.1687234900000001   -0.6647662060947661   -1.0969856558665643   -2.9318519143876145
  43 2    2.1226030599999999    3.9810609000000001    0.6740873500000000   -1.9417398777004273   -1.0723942251716356    1.5526768293825348
  44 2    0.4495063800000000    1.9355864400000000    9.7257516200000005   -0.4461186171406837   -0.8936744090283519   -0.2465063054544842
  45 2    1.7441040500000000   10.8285213500000008    8.9739178099999997   -0.2397566172883796    0.3666822726863997   -0.3336828349670184
  46 2    1.7574875700000001   10.4756398799999992    6.2722654799999997   -4.1024262446911592    1.4522774788499309    1.1208308095291439
  47 2   10.9542293999999991    1.8100072300000001    6.7498245399999997    0.7693826197477425   -1.1337930391553446    1.6517281770972341
  48 2    1.8843236500000000    3.3871044800000001    3.3237903400000000   -1.1768506078418628   -0.0700150997622174    0.9615225227920603
  49 2    1.4719650000000000    7.5332583900000003    0.9597057000000000   -0.4823589307153124    0.9363070782279619   -0.2106635193998694
  50 2    1.8063053099999999    7.1928590899999998    8.9430213199999997   -0.2800441213727560    1.6002247239718466    0.0742354120878165
  51 2   10.7286291499999997    2.2867134199999999    1.6239633499999999    4.2061042379590381   -0.4174338309772436    0.3761170624225387
  52 2    3.7478391100000001    5.1082562500000002    6.4553532999999996   -1.7916371300400438    2.7942556345237124    2.1939761577097525
  53 2    3.5104206200000001    1.6528777100000001    6.7340960599999997   -1.4729632001907520    0.0724109859908728    0.5350847045321430
  54 2    5.3909712299999999    3.5057395499999999    8.6978579099999997   -0.4302960745728477    0.9249338235940349   -0.4248539465508832
  55 2   10.8328709900000000    5.2844045199999998    1.4801322500000000    0.0319814348469819    0.0395568344296077    0.1922678916669139
  56 2    2.3622152700000001    7.5195828899999997    5.9504287099999997   -3.9332242066799581    0.1727443143825809    1.4929929379222184
  57 2   10.8529835800000001    8.6150234799999996    6.8946615600000003   -0.0576008762768940    1.5842301706477833    0.5579473893628463
  58 2    3.8762220599999999    1.6630748900000001    4.1044106700000000   -1.0696914146277190   -0.5668669518296734    0.8728901372136906
  59 2    5.8673867599999996   10.6716270499999997    3.3763120500000001    0.7390104716938579    0.4551103420249190    0.2486573157224729
  60 2    5.5116577099999997   10.6540145099999997    0.7522161400000000   -1.6535785165629571   -1.2131164247497046    2.2418184766847986
  61 2    3.9002888900000001    1.6740566400000001    1.6405635100000000   -1.9192336920217743   -0.6481900599891598   -2.3903927444507884
  62 2    3.6148129999999998    1.6211643600000001    9.5406527899999993    0.6313947659481784    1.0186368304740250   -0.8653318272038311
  63 2    5.7888704700000000    0.0107577000000000    8.8401978700000008   -0.8442640476595976    1.8401455819023864    0.2259792535154808
  64 2   10.8968633500000003    9.1563911000000004    9.6441568300000000    0.3922158759155756   -1.5228874090283833   -1.4455192272251776
  65 2    3.4844188500000000    5.0834485799999998    3.7930377300000000    0.8287796045274806    0.8857238937556335    0.9170195017016176
  66 2    5.5925345699999998    3.3697822799999999    3.3712241600000001    0.0523905122153071    4.0327801450136258   -0.1300739281447985
  67 2    5.3253816100000000    4.1550901700000002    0.5425526300000000    0.5431294943810532    1.5254733226547352    2.2671854949385666
  68 2    8.9840330700000006    7.0992439000000003    6.2406166699999996    1.3172502902008540   -0.4337026414993639    1.7411362987203054
  69 2    3.5141731500000000    5.4887050000000004    9.1911944400000003    2.3669772586818674    0.6453928292085662    1.2270283041531940
  70 2    5.3005107200000001    3.7454195800000001    6.0235617599999998    3.1238535174676847   -3.3931498439158712   -0.0688406584051988
  71 2   10.9428808499999999    5.4587485600000001    9.1918897899999994   -0.1048056146511486   -0.5465325252552806    0.7164975305733211
  72 2    9.1598810299999993    0.0837115100000000    6.4382472000000002   -0.4049908625881825   -2.3279769913049870   -1.2134394090680489
  73 2    1.7347139899999999    3.5966836700000000    6.2946254899999996   -0.2948342188531760   -1.3410292627673486   -1.2695062268101753
  74 2    6.6201868800000003    1.9379128400000001    0.9569061200000000    1.1484567433482185   -0.1656447559109508    0.7828087567877904
  75 2    9.0192770899999992    0.7570895100000000    0.8552598300000001   -1.4783039787515682   -2.2003605140763343   -1.5842528653055987
  76 2    7.3258765400000003    8.7171040400000006    4.3839670799999997   -0.4895121240082251    2.8746742952788784   -0.4000652187717879
  77 2    7.5008020100000001    1.9078092600000001    3.9086825300000001   -2.0715922999244705   -2.6337977875243168    1.5836946456521310
  78 2    3.5114363499999999    9.5687969699999993    7.2567654399999997    2.7738499201837845    0.0420955560148883   -0.2537406239477213
  79 2    8.9451281999999992    7.2605082200000002    9.0573037999999997    1.5951596943389028   -0.3520059895117593   -4.3887030195901318
  80 2    7.3484578400000000    1.7218183400000000    9.3133880799999993    0.6250926458349712    0.3935669701474451   -0.2027984192698368
  81 2    7.7142563300000004    9.0940986899999992    9.6450297799999998   -1.6048274597499801    2.8376047071663497   -1.0340909585388554
  82 2    5.8448564000000003    7.2782907999999997    8.6964975100000004    0.5146436323768985   -0.4947934771803994    0.0462586550541581
  83 2    9.0571913199999994    7.2096918800000003    3.6427283600000000   -0.1298184709004503   -1.1267847605555470   -0.2762572527245593
  84 2    5.1491348400000003    7.4112087700000000    6.1715991800000003    2.7085874747739282   -1.4126793859563356    0.6582854959639354
  85 2    7.3006592200000000    8.9426611299999994    1.4384127900000001   -0.5897970472970459    0.7963869393772185    1.4954953978717576
  86 2    9.0891076799999997    7.3007725099999998    0.6677890300000000    3.9996169188834445   -0.7794187163643602    2.7125485345688278
  87 2    7.6362253999999998    5.2474180500000003    9.4663071900000002   -1.4545833125072261    1.1086341842746616   -0.6736011988451261
  88 2    4.0345408599999999    8.9785132099999991    9.6397276099999996   -1.2712320336860872    0.8149386889214070    1.7265977987737189
  89 2    9.3238728500000008   10.8999822999999996    9.0311523099999995    0.0349342896542847    0.5217827030649902   -1.3757876388008239
  90 2    7.2296911899999996    5.1815925399999996    6.8325191099999998   -0.8371858181229626    0.2693371494823157    1.6280174378915264
  91 2    5.4810941900000003    0.4163562700000000    5.9070828000000004   -2.4835603893819429   -0.5906876657453085    0.7509639220526135
  92 2    0.4158410100000000    5.6138053200000000    6.4924396900000003   -1.1540433530282490   -2.4682074929223234    3.1787092102331558
  93 2   10.8613636099999997    9.2070802399999998    4.0367162700000003   -0.0096681870798720   -1.3825487968463570    2.1647902422107719
  94 2    1.5810151100000001    7.3236430500000003    3.4513526899999998    1.1652576322896939   -3.2420757035851815    1.5566899146088127
  95 2    3.9574907100000001    9.0638144399999998    4.2112619899999997   -0.9667757498975119    1.2512498067184650    0.0115914241803912
  96 2    3.2360449099999999    5.9970761100000001    1.5488692500000001    1.1254793820974776   -0.6688042495967744    0.0384702594658550
  97 2    5.2545450400000000    7.1741711099999996    0.8439352700000000   -0.9009555564290626    0.6829704753387402   -0.3946250242637914
  98 2    9.1459865199999992   10.8676504900000008    3.5999253800000002   -2.2970086156957024    0.3832284264542613    0.7897210664926648
  99 2    9.1962395000000008    3.3834953600000000    9.0509243799999997    0.8473245490357889    1.0125925095901775   -0.8109064901275594
 100 2    7.1961840099999996    5.9043847300000003    1.6130177100000000   -0.3980344264450338   -2.3801956085501850    0.6758937100412485
 101 2    8.7533348699999998    3.6848508700000000    1.3186781700000001   -0.1154867784445188    0.0413399080197463   -2.1923413783206609
 102 2    9.0494758799999993    3.5659999700000000    3.5588294199999999    0.4475144757408500    2.8287006770377192    2.3374368185803815
 103 2    7.1367621699999999    5.2613336000000004    4.5414043599999996    0.5408090401236001    4.2379094825396404   -3.5686212681671079
 104 2    3.2418811700000001    9.3051311900000009    1.6329740900000000    2.0039515077397771   -0.5543827662024148   -0.5926532679598628
 105 2    9.1155543699999999    3.4867889600000002    6.2457008399999996   -2.5876103110291147    1.2475098123678856    2.5020917251849961
 106 2    7.2934387799999998    1.7093592799999999    6.7606757899999996   -0.4317964489154762    0.8088457615640983   -1.4214233252155468
 107 2    2.1277929200000001    3.5278868900000000    8.7864617900000006   -0.3050317034677285   -1.6445269407358911   -0.7112472850390710
 108 2    6.9259656700000001    9.2839186199999997    6.8249149100000004    5.0643962302678016    0.3774992159362312   -1.2327141299381288
ITEM: TIMESTEP
50
ITEM: NUMBER OF ATOMS
108
ITEM: BOX BOUNDS pp pp pp
0.0000000000000000e+00 1.0956000000000000e+01
0.0000000000000000e+00 1.0956000000000000e+01
0.0000000000000000e+00 1.0629000000000000e+01
ITEM: ATOMS id type x y z fx fy fz
   1 1    1.8755919579936142    1.6602614310775048    2.3970139239840220    1.1967408091469907    1.9241368357125490   -0.1242688487932726
   2 1    3.4948323677306283    7.2453385868114273   10.5291178727271788   -2.0195974104559107    1.1176787336243799   -0.2083750435809656
   3 1    5.0482921272976835    5.2604865400764123    2.3199709833911286    1.4837938397574346   -1.8570605877910049    2.3944580031862315
   4 1    9.0862154212379487    5.3628077832219452    7.9453351968345682   -2.0546177927108569   -2.5201198796892412   -0.3711260731165290
   5 1    0.1031302406311003    7.0704320363663555    5.4247285391220128   -0.7923312722766793   -0.5720302004069977   -0.0526952780347545
   6 1   10.7190023816221345   10.9047398741617929    0.0513561311715644   -0.2769724955212882    0.4062609566435271    1.0367216268039605
   7 1    7.2605451154994460    3.3842817035924599    5.0122251751486742   -4.7763565687653591    2.0369686549761306    0.8274622385233350
   8 1    7.3521190243669921    7.1123106468512836    5.5005461598528891    0.4230040180546264   -1.0281968221416669   -1.3565738900900137
   9 1    1.6600609312185486    5.2558851612102258    2.7387889479537333    2.3247016925305442   -1.0060341505960964    0.8810189545410712
  10 1   10.4990293682211409    3.4906054778314810    5.0596068574314383   -0.1227875781143344   -2.3879658527099155    5.4204502594547384
  11 1   10.8946485274198288    3.4534575325676138    0.1264885152231413    1.5310898644830064    0.5193503457547233   -1.5557451533378639
  12 1    1.7995138323847890    5.2649948808749869    7.5398442964134684    0.1208058336880997    0.1662526538937005    0.5783929324783423
  13 1    9.0429801099850540    9.0483012788036277    8.2338059706018782   -0.7638634597522800    2.7491329422454509   -2.5274503977373186
  14 1    1.9280480473828969    1.8035596401430083    7.9851264295091537   -2.3731396472432644    0.0199350370531850   -0.5965994224702288
  15 1    7.1790564828741861    7.2474919143973340   10.5319111976342334   -1.1766105489225163    0.1647543316789513   -3.3953735841011499
  16 1    8.7146925553314603    8.8703956015677257    2.9358796205821043    1.2339181861145112    0.3250389790159273   -2.4806436994141903
  17 1    5.2965069603093040    9.0059210224009245    2.5559635294983534   -0.0996347162513968    1.9088188147644520   -0.6699742056249121
  18 1    5.4690842027369229    9.1230052499730352    7.7602658261189141    0.6531641540134259   -1.4014527844012352    2.1655327584555657
  19 1    0.0882723043572207   10.7171614657182630    5.0647531859389954   -0.4543298529089266   -0.4295588584042677    2.2790178688665526
  20 1    3.5866127430409818    3.5822405194589284    5.3015140785814951   -1.5556828090861152   -1.0487952508457012   -1.7772297730704434
  21 1   10.6894407584998099    7.0137942838539420   10.2362565000902261    3.1467155828051929    0.9986275495897499    2.5825904190864000
  22 1    1.7703998238588574    9.0984854368685060    7.9252609163595613   -0.4936863124514073   -0.3516017298640940    0.9812607294793617
  23 1    7.3390632013902168    3.6466068756207393    0.0069660746747405   -0.4117177065183518   -2.4531659430354544    0.6124571421171014
  24 1    8.9795301240156018    5.4871733247335195    2.2544048312136149    0.0520929443837798    0.0052638029133184    2.0003753851837289
  25 1    3.7986718353968056    7.2585974591242257    4.8005961458334108   -1.5102301301885166   -0.7890251922537541    4.5441853332843367
  26 1    3.6937161311419477    0.0304317184115086   10.5767367461918429   -0.0887963425961633    0.1420277762970256    0.1468384912151517
  27 1    7.2842629769485994   10.8116393565751565    5.1578917929567858    1.3550644238948344    0.1173669880410379    1.9152228772490569
  28 1    5.3986741839519627    1.5135921564660444    2.7527553989692390   -0.4886310592485063    1.4395372993814408   -0.7722072834386561
  29 1    5.4312173084705400    1.8870176838460260    7.8617551821003104    1.3321188162287978   -1.0977770834575358   -0.7070281514114594
  30 1    1.4670782556762458    9.1329635851949256    2.4200760869922853   -0.1302404570785713   -1.3934662997640628   -1.1639160818949557
  31 1    3.5299434270310037   10.8000714846889121    5.1717930990207091    1.4743569994707566    2.1364910940295019    0.8071095917772289
  32 1    3.6346654650068473    3.7665497745906240   10.0514101451312747   -1.1314436313657563   -0.5802032774643737    2.4055225554919959
  33 1    7.2187087561575005   10.9288397305477663    0.1084319303208258   -0.0449289433207720   -0.5540284210552986   -0.4408662526605835
  34 1    9.0604354357317902    1.8122122920491863    2.5246883058441569   -3.5029589680504305   -1.1871420850263494    3.0942850747659030
  35 1    5.3671858881511509    5.5630977870235911    7.8696879825267398    2.1428074182072829    2.9242555371474444    0.9621169101866155
  36 1    9.0956490551076357    1.7540948754950878    7.8719507874028718   -0.4919100527421731    0.1386585862820139   -1.2812189101108906
  37 2   10.4287056936111675    9.6831956115026099    1.8688088686761293    1.7736482733867169   -1.3811986634938835    0.3045756386795554
  38 2    5.1503702512387948    7.2312519719180663    3.4382329714144988    0.0818706978158605   -0.4434234035245990   -2.7714820171989678
  39 2    0.2306341704601205    4.9820017158575922    4.2128569758204870   -0.3822435070302092    4.5966916120180903   -0.4692984364123584
  40 2   10.5761561265819957    1.5297868468789204    4.3891899776593188   -0.2352713841874721    3.5992667652098027   -2.0741520547655634
  41 2    1.7155771427586903   10.8427120400178865    3.6350455005477569   -0.8786990812674098    0.4538896298936156   -1.0820664439799061
  42 2    1.7204387300322797   10.8031033946569224    0.7283008132250127   -0.6416175703386946    0.8044293306705992    2.3016587428886082
  43 2    1.8365294570547563    3.4889985531072027    0.9570804933998962   -1.1558881081479382   -0.5120676349815136    0.4563278103649536
  44 2    0.3193887439928251    1.7601577098449348    9.8696637816329762    0.1970660882319358   -0.7940959441294897   -0.5718159928934167
  45 2    1.8094366262496950   10.8718991328974504    8.9867503329238367    0.3803896116335466   -0.6582928816040335   -2.1523724538244799
  46 2    1.8260220916358274   11.0237727717835927    6.1432177947927018   -1.5512068183586050   -0.6468092835969150    1.4128231292217370
  47 2    0.0272746471770751    2.2933990505669062    7.3498728692704178    0.1300640139654980   -2.0801916566567495   -1.3173828185083030
  48 2    2.0337520786552146    3.3576158193605332    3.7053174044133250   -0.9955859384251022   -0.6579551150531143   -2.2483928779811988
  49 2    1.3576393057471106    7.8355587156834412    0.6870188672303298    0.7489780318346285   -0.4023731655140826    0.6707388369322046
  50 2    1.6486263288148117    7.0492467429958481    8.8707519575835629   -0.8288855150654693    1.5831135550553785    0.0605773767924014
  51 2   10.7491645409475751    1.7166094742193558    1.7072900389568828    6.0176000684730360    0.5145499131053015   -0.1093290510071125
  52 2    3.8906671741322203    5.3285135775725578    6.7520214589225898   -3.6868570199816992   -1.1305053859611309   -1.9706961262364593
  53 2    3.6450749366704134    1.7506278131462216    6.7718247228749746   -1.2288763156326497   -0.4647080568884737    0.3883688963675643
  54 2    5.1612233102681282    3.7302361829137718    8.5195232476014695   -1.3818972304078159   -1.0052446584634003    1.4482166124807785
  55 2   11.0775892429620111    5.3388336073810567    1.5419955573091699   -3.3074397192375251    0.9531282145517440   -0.4516540673838303
  56 2    1.9532287862038076    7.0247093905368319    6.2844244780492176   -2.2179262779195725   -0.3415564539478591   -0.9218338637951137
  57 2   10.7991737626965136    9.0964285083788656    7.0722294841226008    1.1982034165678086   -0.7848073320926690    0.7565554551283122
  58 2    3.6916528994853426    1.5475303114401797    4.0368526828819764   -0.2161400306877244   -0.9149564253141829    0.2797710795190337
  59 2    5.5959681620430555   10.7349637552597788    3.8161892792375638   -0.2980723756377883   -0.6784665713764381   -0.1161805376585234
  60 2    5.5256126559523615   11.0394305961215196    1.1888028726442097   -1.8849395963274365   -0.6961086969908785    0.6563501170681115
  61 2    3.5900021325586366    1.8754990921599257    1.3604516084854217    0.5688755333082726   -2.1897626242842581    0.3803571578319600
  62 2    3.6145683442883723    1.8353988087085260    9.2839821341955844   -0.3158782147655469    0.3410533510075779    0.7526148428819037
  63 2    5.4971738137665405    0.2132841965203636    9.4218806503224855   -0.0212112198898360    1.0032918096852792   -2.3505023166330234
  64 2   10.3703910769108809    9.0749283082158456    9.7740168135656820    1.3615435223738197   -0.2148988906688445    0.4604065016306578
  65 2    3.4901151908717214    5.3491493843443090    4.2763584463048341    0.4446668104576597   -0.2753653722476048   -2.4626389390676140
  66 2    5.3352169288161768    3.4664771352434767    3.4884805339774458   -0.6733318907783383    2.4536604534369255   -1.6772148101714384
  67 2    5.1874702962094341    3.9449351432760871    0.7718962516860095    0.4262108754323122    0.2686500191052829   -0.7802787545280980
  68 2    9.2025795936009978    6.8718914429315969    6.3525437690311213    1.4884670862500837    0.5203777774640599    0.2170125984131382
  69 2    3.7598606268815988    5.6802228947934799    9.2891132176162721    0.2556704982529949    0.5052896886500127    1.0819917912713386
  70 2    5.3193617561872477    3.1692943504000048    5.9619538807263570    3.8685355089546354   -0.1304591705515436    1.3624973092271961
  71 2   10.8337418142072544    5.1959513319635739    9.5391809512195920   -1.8381584686171997    1.6610009338456884    0.0322719195422373
  72 2    9.3803101584964850    0.1895108315397176    6.0395262125800349   -1.0666345851119425   -0.1257740805444560    0.5577084075492001
  73 2    1.7316655389835431    3.6377637249915109    6.2425063819550752    1.0792619598380717    0.4598156802556268    0.4565773310127654
  74 2    7.1998566816719043    2.0044903265560703    1.6524036920900611   -2.0505696938442060    0.6192682099493851   -2.8274565078434666
  75 2    8.9723944816213574    0.5124139665153815    1.0807462393136722   -1.0266603905178948   -1.1376627925986342   -4.4527431631841274
  76 2    7.1371332266540310    8.7876886642883623    4.3999815441278658    0.4527077844069030    2.3511600825548342   -1.8262984738768548
  77 2    7.0842288926241910    1.8032176550229793    3.9066200030692944    1.6902683374586229   -2.2087279892913756    2.2881563790795951
  78 2    3.5052507783547666    8.8750375420086183    7.1511687025492243    0.3526813954598536    0.7131760509729047   -0.6838481148238016
  79 2    9.0330151911555596    7.1964791536383927    9.0053587382458300   -1.0742921871593873   -1.1420129318242123   -0.4941409580203358
  80 2    7.1422777611881889    2.4327161504294685    9.0097179519787680    0.2311086087937883   -1.6663990521079981    1.2784966295752680
  81 2    7.0412374141995961    9.2850908872838378    9.4331300539369121    2.5695532232257254   -0.6813109994072049    1.2685362950382157
  82 2    5.8333173583325371    7.4130595290507024    8.7648945723991272   -0.3582058027951198   -2.5338705914145541    0.7529541698567719
  83 2    8.8320073261225165    7.0019525285376005    3.6180810544211410    1.9509311268387100   -1.0393903637557336    0.0526172654506764
  84 2    5.5113723950857478    7.4220119702734673    6.2383583098763040   -2.0261050827243410    1.3128567829294324   -0.3983271232015581
  85 2    7.2284795383503297    9.3227427059262222    1.5419791518345034   -0.0235916482802394   -1.1562272919482357    0.3658291649858966
  86 2    8.8115923717548004    7.2082199999263858    0.9649543412581754    3.0005763947876978   -0.4294146270840844    0.9673260881348078
  87 2    7.1901518368460851    5.2317344580469278    9.5370823448037427    0.6925069566401423    1.9682521212042297   -1.0577609644299635
  88 2    3.8104900597561335    9.0771760696575612    9.7741166402171000   -0.4386996233092498    0.2423129939668280   -0.3127316148867509
  89 2    9.0254832072443580    0.0392331571477362    9.0852923834153021   -0.0119724525662124    0.7450314517860719   -0.1551045405624146
  90 2    7.0562448903718362    5.7544107577867933    6.9444497142743096    2.5595484658068259   -2.0728873106984338    0.9939205176175872
  91 2    5.3467928843911841   10.5363422772209407    6.4584220404748089   -0.1532461998351157    3.1487890360635014   -2.8430864843944450
  92 2   10.6327301226454907    4.8752688576354402    6.8944900368650952    3.0183524651386717    1.8023136749022060   -1.3803573714266248
  93 2   10.6870988017210777    8.7607765556421349    4.5783902026179550    0.0191923921765559    0.5678939698356917   -2.1822209317990464
  94 2    2.0300128207799282    7.3123712416405242    3.5509954740412715   -2.3082903595516826   -0.8291788864917213   -0.9835409325904848
  95 2    3.5223256255806987    9.1263965440923229    4.2321438658476218    1.1152665233435792   -0.1073862162165153    0.5780662165478866
  96 2    3.1122742782172526    5.5871202423781936    1.3089777626088519    2.8302196432343063    1.3098302915746667    0.3679592308503982
  97 2    5.4816440636449153    7.5808510188708143    0.7748303905980840   -2.7694041727595939   -1.2094001630735964    1.7447843968630570
  98 2    8.6772221573693109   10.7713812459082785    3.2911456757960935   -0.9449997178653040    1.1810278932081899    3.6906386445543840
  99 2    9.4456409952793567    3.3976288166546560    8.9043128425219784   -1.3787438239413798    1.7149655369395660    2.2710161419773676
 100 2    7.2419852754547236    5.2407833736489096    1.3204462354081521   -0.9869111896442661    1.5606848127065907    2.0222098021700825
 101 2    9.1451951978034351    3.4377769984050421    1.2365329174575339   -0.3310502617247034    2.6229248412337212   -1.7900730862808845
 102 2    8.7051012254127951    3.9433586458484240    3.7855375729065992    3.2495486634985964   -0.8092481350261140   -1.6414830428046954
 103 2    6.9036804626362356    5.7297750179009226    4.2182712257577499   -0.9582909877284160   -2.6099236289911869   -0.1192611752032948
 104 2    3.3652902583160813    9.3947069570469139    1.8909145262276561    2.8988865114952076   -0.3359140500008282   -1.5246126503434474