108
 Atoms. Timestep: 0
1    1.9498426099999999    1.6123894800000000    2.2463115000000000
1    3.2310994800000001    7.2917578000000001   10.6101818899999998
1    5.0867491899999999    5.3743590899999996    2.2430686899999999
1    8.9265713699999996    5.1206595400000001    7.8247845199999997
1    0.2592721000000000    7.0133755899999999    5.3305418199999997
1   10.7365987599999997   10.8800927800000000   10.6153213300000004
1    7.1881782400000001    3.5480399000000000    5.1419050200000003
1    7.2680072800000000    7.1069656900000000    5.4505338700000001
1    1.6494264599999999    5.2833683000000002    2.6433772400000000
1   10.7283949100000005    3.2646578100000001    5.3122076399999996
1   10.8235741700000005    3.6351975099999998    0.1936622900000000
1    1.9354248400000000    5.1519876800000004    7.7933675300000003
1    8.9461627799999999    9.0473408899999992    8.0078490599999999
1    1.7098071600000000    1.6894044600000000    7.9303547200000004
1    7.3893707199999996    7.2870110099999996   10.4758578999999994
1    8.7307771299999999    9.0393448700000008    2.9513383800000002
1    5.0789946400000003    8.9861253300000001    2.4193840299999998
1    5.4426058800000003    9.3071524599999993    7.9839223300000004
1   10.9507573300000001   10.7516530699999997    5.3004673799999997
1    3.5276752199999999    3.4735595899999998    5.1816768299999998
1   10.9538038699999998    7.2940740100000001   10.3258917399999994
1    1.6456279000000000    9.0987234299999997    7.9318484199999997
1    7.2406413799999996    3.7825271200000001    0.0748470800000000
1    8.9499556299999998    5.4080370699999998    2.6872656600000000
1    3.8236803699999999    6.9904107199999999    4.8131646100000003
1    3.7737331799999998    0.0466739800000000    0.0220746300000000
1    7.1999626299999999    0.0728454600000000    5.2426781499999997
1    5.6696258100000003    1.6242438699999999    2.6256736900000002
1    5.3494679300000003    1.7250430200000000    7.5813982700000002
1    1.4256022800000001    8.9866387299999992    2.5796010100000002
1    3.3299887699999999   10.9341262399999994    5.2506655200000001
1    3.7357748000000002    3.6106027200000002   10.2165931000000008
1    7.1817182600000002   10.9535638199999994   10.5472857399999995
1    9.0363334999999996    1.7914524800000000    2.5222215200000000
1    5.4428051599999998    5.4758693899999997    7.8838400899999996
1    9.0497654500000007    1.7001676400000001    7.7713846300000000
2   10.5057749000000005    9.5845480799999994    1.6476423200000001
2    5.0698647899999996    7.1086391100000004    3.3652439699999999
2   10.8249983400000005    5.5721666000000001    4.0577155600000001
2   10.5201266100000002    1.7316611000000000    4.2294791399999996
2    1.7629813400000001   10.8695582599999998    3.8848047999999999
2    1.7024185500000000    0.0846790300000000    1.1687234900000001
2    2.1226030599999999    3.9810609000000001    0.6740873500000000
2    0.4495063800000000    1.9355864400000000    9.7257516200000005
2    1.7441040500000000   10.8285213500000008    8.9739178099999997
2    1.7574875700000001   10.4756398799999992    6.2722654799999997
2   10.9542293999999991    1.8100072300000001    6.7498245399999997
2    1.8843236500000000    3.3871044800000001    3.3237903400000000
2    1.4719650000000000    7.5332583900000003    0.9597057000000000
2    1.8063053099999999    7.1928590899999998    8.9430213199999997
2   10.7286291499999997    2.2867134199999999    1.6239633499999999
2    3.7478391100000001    5.1082562500000002    6.4553532999999996
2    3.5104206200000001    1.6528777100000001    6.7340960599999997
2    5.3909712299999999    3.5057395499999999    8.6978579099999997
2   10.8328709900000000    5.2844045199999998    1.4801322500000000
2    2.3622152700000001    7.5195828899999997    5.9504287099999997
2   10.8529835800000001    8.6150234799999996    6.8946615600000003
2    3.8762220599999999    1.6630748900000001    4.1044106700000000
2    5.8673867599999996   10.6716270499999997    3.3763120500000001
2    5.5116577099999997   10.6540145099999997    0.7522161400000000
2    3.9002888900000001    1.6740566400000001    1.6405635100000000
2    3.6148129999999998    1.6211643600000001    9.5406527899999993
2    5.7888704700000000    0.0107577000000000    8.8401978700000008
2   10.8968633500000003    9.1563911000000004    9.6441568300000000
2    3.4844188500000000    5.0834485799999998    3.7930377300000000
2    5.5925345699999998    3.3697822799999999    3.3712241600000001
2    5.3253816100000000    4.1550901700000002    0.5425526300000000
2    8.9840330700000006    7.0992439000000003    6.2406166699999996
2    3.5141731500000000    5.4887050000000004    9.1911944400000003
2    5.3005107200000001    3.7454195800000001    6.0235617599999998
2   10.9428808499999999    5.4587485600000001    9.1918897899999994
2    9.1598810299999993    0.0837115100000000    6.4382472000000002
2    1.7347139899999999    3.5966836700000000    6.2946254899999996
2    6.6201868800000003    1.9379128400000001    0.9569061200000000
2    9.0192770899999992    0.7570895100000000    0.8552598300000001
2    7.3258765400000003    8.7171040400000006    4.3839670799999997
2    7.5008020100000001    1.9078092600000001    3.9086825300000001
2    3.5114363499999999    9.5687969699999993    7.2567654399999997
2    8.9451281999999992    7.2605082200000002    9.0573037999999997
2    7.3484578400000000    1.7218183400000000    9.3133880799999993
2    7.7142563300000004    9.0940986899999992    9.6450297799999998
2    5.8448564000000003    7.2782907999999997    8.6964975100000004
2    9.0571913199999994    7.2096918800000003    3.6427283600000000
2    5.1491348400000003    7.4112087700000000    6.1715991800000003
2    7.3006592200000000    8.9426611299999994    1.4384127900000001
2    9.0891076799999997    7.3007725099999998    0.6677890300000000
2    7.6362253999999998    5.2474180500000003    9.4663071900000002
2    4.0345408599999999    8.9785132099999991    9.6397276099999996
2    9.3238728500000008   10.8999822999999996    9.0311523099999995
2    7.2296911899999996    5.1815925399999996    6.8325191099999998
2    5.4810941900000003    0.4163562700000000    5.9070828000000004
2    0.4158410100000000    5.6138053200000000    6.4924396900000003
2   10.8613636099999997    9.2070802399999998    4.0367162700000003
2    1.5810151100000001    7.3236430500000003    3.4513526899999998
2    3.9574907100000001    9.0638144399999998    4.2112619899999997
2    3.2360449099999999    5.9970761100000001    1.5488692500000001
2    5.2545450400000000    7.1741711099999996    0.8439352700000000
2    9.1459865199999992   10.8676504900000008    3.5999253800000002
2    9.1962395000000008    3.3834953600000000    9.0509243799999997
2    7.1961840099999996    5.9043847300000003    1.6130177100000000
2    8.7533348699999998    3.6848508700000000    1.3186781700000001
2    9.0494758799999993    3.5659999700000000    3.5588294199999999
2    7.1367621699999999    5.2613336000000004    4.5414043599999996
2    3.2418811700000001    9.3051311900000009    1.6329740900000000
2    9.1155543699999999    3.4867889600000002    6.2457008399999996
2    7.2934387799999998    1.7093592799999999    6.7606757899999996
2    2.1277929200000001    3.5278868900000000    8.7864617900000006
2    6.9259656700000001    9.2839186199999997    6.8249149100000004
108
 Atoms. Timestep: 50
1    1.8755919579936142    1.6602614310775048    2.3970139239840220
1    3.4948323677306283    7.2453385868114273   10.5291178727271788
1    5.0482921272976835    5.2604865400764123    2.3199709833911286
1    9.0862154212379487    5.3628077832219452    7.9453351968345682
1    0.1031302406311003    7.0704320363663555    5.4247285391220128
1   10.7190023816221345   10.9047398741617929    0.0513561311715644
1    7.2605451154994460    3.3842817035924599    5.0122251751486742
1    7.3521190243669921    7.1123106468512836    5.5005461598528891
1    1.6600609312185486    5.2558851612102258    2.7387889479537333
1   10.4990293682211409    3.4906054778314810    5.0596068574314383
1   10.8946485274198288    3.4534575325676138    0.1264885152231413
1    1.7995138323847890    5.2649948808749869    7.5398442964134684
1    9.0429801099850540    9.0483012788036277    8.2338059706018782
1    1.9280480473828969    1.8035596401430083    7.9851264295091537
1    7.1790564828741861    7.2474919143973340   10.5319111976342334
1    8.7146925553314603    8.8703956015677257    2.9358796205821043
1    5.2965069603093040    9.0059210224009245    2.5559635294983534
1    5.4690842027369229    9.1230052499730352    7.7602658261189141
1    0.0882723043572207   10.7171614657182630    5.0647531859389954
1    3.5866127430409818    3.5822405194589284    5.3015140785814951
1   10.6894407584998099    7.0137942838539420   10.2362565000902261
1    1.7703998238588574    9.0984854368685060    7.9252609163595613
1    7.3390632013902168    3.6466068756207393    0.0069660746747405
1    8.9795301240156018    5.4871733247335195    2.2544048312136149
1    3.7986718353968056    7.2585974591242257    4.8005961458334108
1    3.6937161311419477    0.0304317184115086   10.5767367461918429
1    7.2842629769485994   10.8116393565751565    5.1578917929567858
1    5.3986741839519627    1.5135921564660444    2.7527553989692390
1    5.4312173084705400    1.8870176838460260    7.8617551821003104
1    1.4670782556762458    9.1329635851949256    2.4200760869922853
1    3.5299434270310037   10.8000714846889121    5.1717930990207091
1    3.6346654650068473    3.7665497745906240   10.0514101451312747
1    7.2187087561575005   10.9288397305477663    0.1084319303208258
1    9.0604354357317902    1.8122122920491863    2.5246883058441569
1    5.3671858881511509    5.5630977870235911    7.8696879825267398
1    9.0956490551076357    1.7540948754950878    7.8719507874028718
2   10.4287056936111675    9.6831956115026099    1.8688088686761293
2    5.1503702512387948    7.2312519719180663    3.4382329714144988
2    0.2306341704601205    4.9820017158575922    4.2128569758204870
2   10.5761561265819957    1.5297868468789204    4.3891899776593188
2    1.7155771427586903   10.8427120400178865    3.6350455005477569
2    1.7204387300322797   10.8031033946569224    0.7283008132250127
2    1.8365294570547563    3.4889985531072027    0.9570804933998962
2    0.3193887439928251    1.7601577098449348    9.8696637816329762
2    1.8094366262496950   10.8718991328974504    8.9867503329238367
2    1.8260220916358274   11.0237727717835927    6.1432177947927018
2    0.0272746471770751    2.2933990505669062    7.3498728692704178
2    2.0337520786552146    3.3576158193605332    3.7053174044133250
2    1.3576393057471106    7.8355587156834412    0.6870188672303298
2    1.6486263288148117    7.0492467429958481    8.8707519575835629
2   10.7491645409475751    1.7166094742193558    1.7072900389568828
2    3.8906671741322203    5.3285135775725578    6.7520214589225898
2    3.6450749366704134    1.7506278131462216    6.7718247228749746
2    5.1612233102681282    3.7302361829137718    8.5195232476014695
2   11.0775892429620111    5.3388336073810567    1.5419955573091699
2    1.9532287862038076    7.0247093905368319    6.2844244780492176
2   10.7991737626965136    9.0964285083788656    7.0722294841226008
2    3.6916528994853426    1.5475303114401797    4.0368526828819764
2    5.5959681620430555   10.7349637552597788    3.8161892792375638
2    5.5256126559523615   11.0394305961215196    1.1888028726442097
2    3.5900021325586366    1.8754990921599257    1.3604516084854217
2    3.6145683442883723    1.8353988087085260    9.2839821341955844
2    5.4971738137665405    0.2132841965203636    9.4218806503224855
2   10.3703910769108809    9.0749283082158456    9.7740168135656820
2    3.4901151908717214    5.3491493843443090    4.2763584463048341
2    5.3352169288161768    3.4664771352434767    3.4884805339774458
2    5.1874702962094341    3.9449351432760871    0.7718962516860095
2    9.2025795936009978    6.8718914429315969    6.3525437690311213
2    3.7598606268815988    5.6802228947934799    9.2891132176162721
2    5.3193617561872477    3.1692943504000048    5.9619538807263570
2   10.8337418142072544    5.1959513319635739    9.5391809512195920
2    9.3803101584964850    0.1895108315397176    6.0395262125800349
2    1.7316655389835431    3.6377637249915109    6.2425063819550752
2    7.1998566816719043    2.0044903265560703    1.6524036920900611
2    8.9723944816213574    0.5124139665153815    1.0807462393136722
2    7.1371332266540310    8.7876886642883623    4.3999815441278658
2    7.0842288926241910    1.8032176550229793    3.9066200030692944
2    3.5052507783547666    8.8750375420086183    7.1511687025492243
2    9.0330151911555596    7.1964791536383927    9.0053587382458300
2    7.1422777611881889    2.4327161504294685    9.0097179519787680
2    7.0412374141995961    9.2850908872838378    9.4331300539369121
2    5.8333173583325371    7.4130595290507024    8.7648945723991272
2    8.8320073261225165    7.0019525285376005    3.6180810544211410
2    5.5113723950857478    7.4220119702734673    6.2383583098763040
2    7.2284795383503297    9.3227427059262222    1.5419791518345034
2    8.8115923717548004    7.2082199999263858    0.9649543412581754
2    7.1901518368460851    5.2317344580469278    9.5370823448037427
2    3.8104900597561335    9.0771760696575612    9.7741166402171000
2    9.0254832072443580    0.0392331571477362    9.0852923834153021
2    7.0562448903718362    5.7544107577867933    6.9444497142743096
2    5.3467928843911841   10.5363422772209407    6.4584220404748089
2   10.6327301226454907    4.8752688576354402    6.8944900368650952
2   10.6870988017210777    8.7607765556421349    4.5783902026179550
2    2.0300128207799282    7.3123712416405242    3.5509954740412715
2    3.5223256255806987    9.1263965440923229    4.2321438658476218
2    3.1122742782172526    5.5871202423781936    1.3089777626088519
2    5.4816440636449153    7.5808510188708143    0.7748303905980840
2    8.6772221573693109   10.7713812459082785    3.2911456757960935
2    9.4456409952793567    3.3976288166546560    8.9043128425219784
2    7.2419852754547236    5.2407833736489096    1.3204462354081521
2    9.1451951978034351    3.4377769984050421    1.2365329174575339
2    8.7051012254127951    3.9433586458484240    3.7855375729065992
2    6.9036804626362356    5.7297750179009226    4.2182712257577499
2    3.3652902583160813    9.3947069570469139    1.8909145262276561
2    8.5890766814165094    3.6078267123803842    6.3625426533316043
2    7.4260926469701980    1.5815159999087658    6.6500808133098799
2    1.8083150673194575    3.9341136974432227    9.0519391664892055
2    7.5789037225536324    9.4014751365346498    6.7966919489471787
