108
Lattice="10.956 0.0 0.0 0.0 10.956 0.0 0.0 0.0 10.629" Properties=species:S:1:pos:R:3:forces:R:3 stress="-0.012923599377989375 0.0020917755049543662 -0.003290913911455823 0.0020917755049543662 -0.00401174815969453 -0.0005282254646665732 -0.003290913911455823 -0.0005282254646665732 -0.006974845098176582" pbc="T T T" energy=-1063.43063871 free_energy=-1063.43063965 config_type=crystal 
Hf       1.94984261       1.61238948       2.24631150       0.54158435       2.27610944       3.88986899 
Hf       3.23109948       7.29175780      10.61018189       2.57998060       0.60182644      -1.44921094 
Hf       5.08674919       5.37435909       2.24306869       0.98860141       1.75589422       0.32084632 
Hf       8.92657137       5.12065954       7.82478452       2.02572249       1.93369672       3.03449690 
Hf       0.25927210       7.01337559       5.33054182      -0.16431961       4.96644004      -1.81017943 
Hf      10.73659876      10.88009278      10.61532133       0.36492564       1.24004512       0.53079333 
Hf       7.18817824       3.54803990       5.14190502      -0.79062330      -2.42618093       0.32148338 
Hf       7.26800728       7.10696569       5.45053387      -1.59844240       0.07752105      -0.93518836 
Hf       1.64942646       5.28336830       2.64337724      -0.92217553      -0.19980373      -0.81104237 
Hf      10.72839491       3.26465781       5.31220764       3.63481932       2.84647508      -3.00750924 
Hf      10.82357417       3.63519751       0.19366229      -0.16523037       0.69256985      -2.33698464 
Hf       1.93542484       5.15198768       7.79336753       0.10430421       2.35745922      -0.81213776 
Hf       8.94616278       9.04734089       8.00784906       0.50957885      -0.59150576      -0.02988332 
Hf       1.70980716       1.68940446       7.93035472       0.23323937       0.57698395       2.18947945 
Hf       7.38937072       7.28701101      10.47585790      -2.09105033      -0.37959206       1.19521015 
Hf       8.73077713       9.03934487       2.95133838       0.98344647      -1.00260999      -2.71800793 
Hf       5.07899464       8.98612533       2.41938403       1.82806472      -0.65810749       0.54448052 
Hf       5.44260588       9.30715246       7.98392233      -5.13501386      -4.83313301       0.49820907 
Hf      10.95075733      10.75165307       5.30046738      -1.71253050       0.02596491      -2.47047341 
Hf       3.52767522       3.47355959       5.18167683      -0.76727250      -0.06865915      -1.36594364 
Hf      10.95380387       7.29407401      10.32589174      -3.59196321      -2.58261004      -0.73716256 
Hf       1.64562790       9.09872343       7.93184842       1.60208875      -1.24383825      -0.64734419 
Hf       7.24064138       3.78252712       0.07484708       0.48459595      -3.01366046      -1.55341277 
Hf       8.94995563       5.40803707       2.68726566       1.16689971       0.70750301      -0.44893024 
Hf       3.82368037       6.99041072       4.81316461      -1.95135058       0.30351714       2.99104695 
Hf       3.77373318       0.04667398       0.02207463      -2.59697767      -2.77008457      -0.41446109 
Hf       7.19996263       0.07284546       5.24267815       2.31767061      -2.01206961      -1.58285205 
Hf       5.66962581       1.62424387       2.62567369      -1.37327120      -1.47929148       1.07274455 
Hf       5.34946793       1.72504302       7.58139827       1.93677279       0.67785019       2.00507920 
Hf       1.42560228       8.98663873       2.57960101      -1.83634786       3.03669207      -0.92891116 
Hf       3.32998877      10.93412624       5.25066552       3.72426914      -1.77773537      -1.14513351 
Hf       3.73577480       3.61060272      10.21659310      -2.05219805      -0.75642585      -2.08597695 
Hf       7.18171826      10.95356382      10.54728574       3.68058845       1.87050700      -2.25969900 
Hf       9.03633350       1.79145248       2.52222152       0.76151005      -0.31681121       2.45400516 
Hf       5.44280516       5.47586939       7.88384009      -1.67419725       0.12790843      -1.44675429 
Hf       9.04976545       1.70016764       7.77138463      -1.65993954      -0.65523775       3.13468881 
O      10.50577490       9.58454808       1.64764232       1.04954600      -0.26969983      -0.97180103 
O       5.06986479       7.10863911       3.36524397       2.91173324      -0.16846145      -2.39757310 
O      10.82499834       5.57216660       4.05771556       0.64334331      -3.03519936      -0.83909237 
O      10.52012661       1.73166110       4.22947914       1.28779965      -1.98233404      -0.06205146 
O       1.76298134      10.86955826       3.88480480       0.12118444       1.53790084      -1.72384015 
O       1.70241855       0.08467903       1.16872349      -0.74139173      -0.68837009      -2.81434234 
O       2.12260306       3.98106090       0.67408735      -2.09054047      -1.30662691       1.27065633 
O       0.44950638       1.93558644       9.72575162      -0.40850140      -0.71003120      -0.29197150 
O       1.74410405      10.82852135       8.97391781      -0.26874918       0.39466548      -0.20175160 
O       1.75748757      10.47563988       6.27226548      -4.02411276       1.65532954       1.09467395 
O      10.95422940       1.81000723       6.74982454       0.90530222      -0.94316444       1.59973201 
O       1.88432365       3.38710448       3.32379034      -1.28625792      -0.36733461       0.94941578 
O       1.47196500       7.53325839       0.95970570      -0.26948951       0.98871095      -0.00676066 
O       1.80630531       7.19285909       8.94302132      -0.20062129       1.59810065      -0.09935557 
O      10.72862915       2.28671342       1.62396335       4.17885211      -0.53888127       0.36541557 
O       3.74783911       5.10825625       6.45535330      -2.06229201       2.65932695       2.46155098 
O       3.51042062       1.65287771       6.73409606      -1.38123869       0.16054552       0.44337036 
O       5.39097123       3.50573955       8.69785791      -0.42293035       0.74446976      -0.44267737 
O      10.83287099       5.28440452       1.48013225      -0.04901592      -0.06007326       0.04173481 
O       2.36221527       7.51958289       5.95042871      -3.99078847       0.09709771       1.33430523 
O      10.85298358       8.61502348       6.89466156      -0.02162902       1.70932976       0.58084145 
O       3.87622206       1.66307489       4.10441067      -1.33968349      -0.66529071       1.04995614 
O       5.86738676      10.67162705       3.37631205       0.91291138       0.67259538       0.26885076 
O       5.51165771      10.65401451       0.75221614      -1.95518381      -0.94052396       2.11602821 
O       3.90028889       1.67405664       1.64056351      -2.03515602      -0.50406342      -2.37911333 
O       3.61481300       1.62116436       9.54065279       0.59187416       1.13927965      -1.00022567 
O       5.78887047       0.01075770       8.84019787      -1.09769390       1.76823930       0.14990812 
O      10.89686335       9.15639110       9.64415683       0.50225362      -1.30863571      -1.54484451 
O       3.48441885       5.08344858       3.79303773       0.95009341       0.69690082       1.01529987 
O       5.59253457       3.36978228       3.37122416       0.10292016       3.79035378       0.09473869 
O       5.32538161       4.15509017       0.54255263       0.14866508       1.30232792       1.90417816 
O       8.98403307       7.09924390       6.24061667       1.30111714      -0.52855067       1.81983894 
O       3.51417315       5.48870500       9.19119444       2.15012651       0.41542664       1.11062498 
O       5.30051072       3.74541958       6.02356176       3.15791690      -3.61709898       0.07527880 
O      10.94288085       5.45874856       9.19188979      -0.05713105      -0.85029793       0.65338320 
O       9.15988103       0.08371151       6.43824720      -0.29479571      -1.83932243      -1.25397181 
O       1.73471399       3.59668367       6.29462549      -0.21447697      -1.35957807      -1.24571535 
O       6.62018688       1.93791284       0.95690612       1.12098522      -0.15519631       1.13882757 
O       9.01927709       0.75708951       0.85525983      -1.20812091      -2.16373491      -1.63743263 
O       7.32587654       8.71710404       4.38396708      -0.58751251       2.94624689      -0.15497774 
O       7.50080201       1.90780926       3.90868253      -2.14203081      -2.67007393       1.53768521 
O       3.51143635       9.56879697       7.25676544       3.05765401       0.40885549      -0.44552298 
O       8.94512820       7.26050822       9.05730380       1.31413868      -0.52686954      -4.47668084 
O       7.34845784       1.72181834       9.31338808       0.86157048       0.61293905      -0.29902174 
O       7.71425633       9.09409869       9.64502978      -1.76520542       2.72120561      -0.97422990 
O       5.84485640       7.27829080       8.69649751       0.55379803      -0.73111919      -0.06018338 
O       9.05719132       7.20969188       3.64272836      -0.17477106      -1.18171363      -0.29714563 
O       5.14913484       7.41120877       6.17159918       2.71647272      -1.48620905       0.64965640 
O       7.30065922       8.94266113       1.43841279      -0.56501000       0.82341851       1.46619917 
O       9.08910768       7.30077251       0.66778903       3.86645956      -0.73324323       2.63086459 
O       7.63622540       5.24741805       9.46630719      -1.23087579       1.12912853      -0.71975450 
O       4.03454086       8.97851321       9.63972761      -1.19009233       0.86518614       1.66415970 
O       9.32387285      10.89998230       9.03115231       0.08039540       0.79663987      -1.38937230 
O       7.22969119       5.18159254       6.83251911      -0.84351128       0.26139458       1.64082412 
O       5.48109419       0.41635627       5.90708280      -2.61612205      -0.44633287       0.91275594 
O       0.41584101       5.61380532       6.49243969      -1.07137097      -2.45596994       3.14499300 
O      10.86136361       9.20708024       4.03671627       0.08406699      -1.12565039       2.22413348 
O       1.58101511       7.32364305       3.45135269       0.99231301      -2.84117028       1.46683861 
O       3.95749071       9.06381444       4.21126199      -0.88335227       1.32750317       0.27301824 
O       3.23604491       5.99707611       1.54886925       0.88218263      -0.84369391       0.04590587 
O       5.25454504       7.17417111       0.84393527      -0.90683303       0.67125873      -0.63364051 
O       9.14598652      10.86765049       3.59992538      -2.21512164       0.48386733       0.64664070 
O       9.19623950       3.38349536       9.05092438       0.99218355       0.77180661      -0.90500723 
O       7.19618401       5.90438473       1.61301771      -0.40202087      -2.46102366       0.61097696 
O       8.75333487       3.68485087       1.31867817       0.20112026       0.20401667      -2.33891177 
O       9.04947588       3.56599997       3.55882942       0.66796211       2.75414758       2.51313214 
O       7.13676217       5.26133360       4.54140436       0.61525580       4.34856833      -3.52315015 
O       3.24188117       9.30513119       1.63297409       1.83363391      -0.54130838      -0.63892519 
O       9.11555437       3.48678896       6.24570084      -2.47635309       1.10219272       2.47604666 
O       7.29343878       1.70935928       6.76067579      -0.48730226       0.81974749      -1.23493885 
O       2.12779292       3.52788689       8.78646179      -0.04140095      -1.78845676      -0.58381714 
O       6.92596567       9.28391862       6.82491491       4.88575745       0.26968179      -1.06594395 

