ITEM: TIMESTEP
0
ITEM: NUMBER OF ATOMS
108
ITEM: BOX BOUNDS pp pp pp
0.0000000000000000e+00 1.0956000000000000e+01
0.0000000000000000e+00 1.0956000000000000e+01
0.0000000000000000e+00 1.0629000000000000e+01
ITEM: ATOMS id type x y z fx fy fz vx vy vz
   1 1    1.949842609999999920589175417    1.612389480000000041570729081    2.246311500000000016541434888   -0.495257034227137793447326430    2.714165834677926270046555146    3.486956614000818355236788193   -0.349055715573849068000811258   -0.540776824404237244081627978    0.094872844030720715480242688
   2 1    3.231099480000000134793936013    7.291757800000000067086602940   10.610181889999999782503437018    3.228194794954487356619665661    0.178662530494361121435886730   -1.060369638969963279606645301    0.554781682048225643910654981   -0.514068681013705508497935170   -0.069220314897371820750393567
   3 1    5.086749189999999920530626696    5.374359089999999561371168966    2.243068689999999865136715016    1.253919423420607248687019819    1.224420799399086989822649230   -0.273597653947886154668367453   -0.857370303894087637530674328   -0.772576966974476864180587654    0.328229659257063044464075574
   4 1    8.926571369999999561173353868    5.120659540000000120585355035    7.824784519999999687911440560    2.283499963084787420797283630    1.653322835675997026783079491    2.382963001881396536418833421    0.152118725946934096882046106    1.077038082590901613144751536   -0.293234024940383586343983779
   5 1    0.259272100000000005337597031    7.013375589999999881740677665    5.330541819999999653134636901   -0.331299322208698843184038196    4.714472215150261824589961179   -1.878395319935504570452167172   -0.447529842007313549689939691   -0.584456600258126290903248901    0.889619608633345881898435437
   6 1   10.736598759999999685987859266   10.880092780000000018958417058   10.615321330000000443760654889    0.843101383384543323629145561    1.702530972961992183911661414    0.349247101130484516318119859   -0.531792461202096000683070542    0.017525558562634345471931141    0.495866123122871371720066236
   7 1    7.188178240000000052134510042    3.548039900000000024249402486    5.141905020000000270385953627   -0.910522594386766970231406049   -2.560018617223658310422251816    0.908942840879995550551484484    0.635127474942878467167872714   -1.004517838686829867000938066   -0.618647585138826450190663309
   8 1    7.268007279999999958874923323    7.106965690000000002157776180    5.450533870000000113975602289   -1.423451103236449633016036387   -0.550635900925886545564935659    0.225051825459386678485174116    0.748784458541680963961084672    0.171201861231879221003637781    0.917297601337876300497953252
   9 1    1.649426459999999927674707578    5.283368300000000239435848925    2.643377239999999961383991831   -0.410576465690532854679872798    0.218922391809060201683934110   -0.354820484641989231100467350    0.431212465294659563763701726    0.377862587285640150192023157    0.787972162841680701106383822
  10 1   10.728394910000000450622792414    3.264657810000000104366790765    5.312207639999999564395238849    3.711745963966089245644752737    2.690558934659804002365035558   -2.524071957483311479109033826   -2.214039067050920461809937478    0.910032684221885435071897064   -1.206949630789138749875633039
  11 1   10.823574170000000549407559447    3.635197509999999798679937157    0.193662289999999986944700936    0.747062356879717004431995520    0.372417636205667645921124631   -2.563523455370774417616530627    0.137417082833309639466889962   -1.108308548078735800146432666    0.212725910203526380470862023
  12 1    1.935424840000000035189486880    5.151987680000000402458226745    7.793367530000000265033577307    0.065260805381958164606004402    2.185941479415748567305399774   -1.020864017656936351130525509   -0.508577336865394413756291669   -0.349793315927756198746578775   -1.038584469850684977032528877
  13 1    8.946162779999999870028659643    9.047340889999999191672941379    8.007849059999999852266228118    0.837163689438053859603883211   -0.470222315690268510834926019   -0.022210491836587256675450419   -0.048428260325105720873750670   -0.604182152905728409031382853    1.498260029338068788362647865
  14 1    1.709807159999999992550101524    1.689404459999999996711039785    7.930354720000000412483132095    0.305039386383006538849826939    0.445867370198552992466289879    1.758892346254507410563405756    1.383700588011761656304088319    0.571087145556905761978327973    0.284314871753014897226563562
  15 1    7.389370719999999614913122059    7.287011009999999622266386723   10.475857899999999389706317743   -2.186280666362681479597540601   -0.520612678643061932426405747    0.784816707959262283011980799   -0.529876731048686044900364323   -0.076107976377497749131961768   -0.025431121636050997569800103
  16 1    8.730777129999999885967554292    9.039344870000000753407221055    2.951338380000000150005234900    1.660433807515766080342700661   -0.184074291225957920037359372   -2.650211472089127884288473069   -0.706402684233909727851141724   -0.871250174807780553010161384    0.460130489898824712735603271
  17 1    5.078994640000000337920482707    8.986125330000000133168214234    2.419384029999999796700649313    1.620612078194437533085192626    0.232724373075050172676725424    0.071892784038300905358198634    0.242324573872840648425253107   -0.333676106150881557343979011    0.673954128767094928775804874
  18 1    5.442605880000000340146470990    9.307152459999999294382178050    7.983922330000000400218596042   -4.474604776552894236374413595   -4.440505924994919695336648147    0.769962353361262286099986341    0.508675675298596030593500927   -0.023697096992488817651656419   -1.134806970988085250695576178
  19 1   10.950757330000000067116161517   10.751653069999999701167325838    5.300467379999999728568127466   -1.549852574546328520810334339    1.364043630549380159422412362   -2.079343237669008637169554277    1.099324906698952553085746331   -0.659503841336970153541585660   -0.729490020771968672441687431
  20 1    3.527675219999999889353148319    3.473559589999999808185293659    5.181676829999999789322373545   -0.411746471987321172036899952   -0.107454105153530626859392783   -0.743832287316011364630696789    0.436115556307710205974359496    0.964474616583000265990222033    1.075198500645087706928393345
  21 1   10.953803869999999776041477162    7.294074010000000107822870632   10.325891739999999430210664286   -3.660725455519277193872085263   -2.345226286333143228546305181   -1.046738880888389733314625119   -0.997983193188849759813763285   -0.770972711288002487961534825   -0.657437187639131392913327545
  22 1    1.645627900000000032321167964    9.098723429999999723349901615    7.931848419999999677543200960    1.431878549628987196129514814   -0.291133911653609800396225182   -0.642599740211553638324915028    0.315450645151360231643877796    0.067022694840548652228662263    0.177966055742107248649475082
  23 1    7.240641379999999571737134829    3.782527120000000131483375299    0.074847079999999996391402135    0.660494969791416419724328080   -3.536612914722954581492331272   -1.778501554246327387431847455    0.112245745304424451860292322   -0.191606226698723819401593005    0.406110103272336153690247329
  24 1    8.949955629999999828783074918    5.408037069999999779668087285    2.687265660000000000451336746    0.578919183311888740917083851    0.272099292044036822346697591   -0.645101508329662176599583745   -0.208707245783009531781004853   -0.064399344947855291509952735   -1.838221394572124189892292634
  25 1    3.823680369999999939523149806    6.990410719999999855645000935    4.813164610000000287470811600   -2.628874963513958995520169992    0.584577550983932603401171946    2.602997189405583000620936218    0.333779743100610093442526249    1.035388385119274889945018003   -0.874378399366067426967674692
  26 1    3.773733179999999798326371092    0.046673979999999996859383344    0.022074630000000001334159450   -3.080823486746237627187383623   -2.283313687586477680468988183   -0.510048237642845236905486672    0.114001226798675137086291898    0.498387092492275141086821577   -0.078242295945785370059333275
  27 1    7.199962629999999919050424069    0.072845460000000000766462449    5.242678149999999703823050368    2.470942397523846256746082872   -1.424311123830835912329462190   -1.419523329736116945554158519    0.276327825472778065840628869   -0.327322265859318783931541930   -0.173459860088244405273982807
  28 1    5.669625810000000321053903463    1.624243869999999922981714917    2.625673690000000171096417034   -1.695273327117810202580017176   -1.418758029025246170107266153    1.492102634609585587455171662   -0.614562661906355334195950491   -0.274533484873955624383512486    0.759088086324931299309071164
  29 1    5.349467930000000315260422212    1.725043019999999982516669661    7.581398270000000216839453060    1.939661460518608659953088136    0.970292158322114683954850989    1.513710622166358765738891634    0.306983911251743457615503985    0.785674781145287659533948954    1.309108225730847063772444017
  30 1    1.425602280000000110504743134    8.986638729999999242181729642    2.579601010000000194111180463   -1.319361946125747087066315544    3.351300961558521418481859655   -0.967553297873626649838740832    0.430919199017399390250204760    0.491596534696800313568587626   -0.371668501648607374487909283
  31 1    3.329988769999999931314960122   10.934126239999999441465661221    5.250665520000000086042746261    3.692098773197235672682836594   -0.829245881533834050536313498   -1.165570442584702437471833036    0.330402845709762471582138232   -0.667524237582704738080963125   -0.449291098459704052459073864
  32 1    3.735774800000000173128000824    3.610602720000000154243480210   10.216593100000000760019247537   -2.473053005913949498051351839   -0.720640000860132468041285847   -2.527592353763767896168701554    0.255404884585385627548959064    0.974808500540214395435612005   -0.868303544166666663173259622
  33 1    7.181718260000000242371243075   10.953563819999999395804479718   10.547285739999999520932760788    3.942929541567595119744282783    2.246887263991244942928915407   -2.185238786396501264874814296    0.038098979682530204060597612   -0.518895182498029239326342577    1.270193210504438896535361891
  34 1    9.036333499999999574470166408    1.791452480000000013760086404    2.522221519999999994610107024    0.635768476995272280305471213    0.035688287863672896182976046    2.310819722995856473346520943   -0.157297046726044859044080226    0.229729364755715953494430437   -0.341866910312249472347900792
  35 1    5.442805159999999808917436894    5.475869389999999725660018157    7.883840089999999634073901689   -1.576720618019826103406444417   -0.478569468741115888743564710   -1.125381374206560147754885293   -0.107460476289760270551809640    0.111807741904248081343808963    0.290518666502582789679109965
  36 1    9.049765450000000654995346849    1.700167640000000091049514594    7.771384630000000015570549294   -1.199236365137585913487328071   -0.472138571118196070930395081    3.157665261591003247332309911    0.329564371475095041486014225    0.176214342230854553728036649    0.096629312700826849868995794
  37 2   10.505774900000000471322891826    9.584548079999999359301909863    1.647642320000000104585069494    0.584452372462997971069853520   -0.620414837565127053053970485   -0.979996351608444227210270583    0.064877744423521260808129796   -2.461354701114312426568631054    4.481072468349124982012199325
  38 2    5.069864789999999565850430372    7.108639110000000371769601770    3.365243969999999862352524360    2.929428637509293942287058599   -0.626462380760246184685513526   -1.868302317860798256177190524   -1.348571583084015479414574656   -1.375792682486513207607004006   -2.853023924755534679320589930
  39 2   10.824998340000000496274878969    5.572166600000000080683548731    4.057715560000000110107976070    0.460579762743862364260394315   -2.736686574483338851848657214   -0.848751406120862417203909445    2.818442739576100919407508627    5.195788235341012750723166391   -1.089560199241687454829730086
  40 2   10.520126610000000155764610099    1.731661099999999953169549372    4.229479139999999581789325021    1.204855675321734986837896031   -2.175302453483925368971085845    0.007698947903698738493005749    0.661061778753299855715397371    2.155237969412802101487613982   -3.654269901478695015129005697
  41 2    1.762981340000000063383822635   10.869558259999999805245352036    3.884804799999999946891193758    0.000339053084086993195001014    1.237205322462660461724226479   -1.448144427275667389665159135   -2.469192798654553655524068745   -2.205444216169217597212082183   -3.109549512774327784114802853
  42 2    1.702418549999999974886577547    0.084679030000000002353921502    1.168723490000000087007947513   -0.660456890970649412864190708   -0.690244896726228795991175957   -2.309953462098789156442535386    0.509382899242187048294283613   -1.507276312040636723210695891   -0.303307363313090994072496187
  43 2    2.122603059999999874918330534    3.981060900000000124521193356    0.674087349999999974059505803   -1.930204250392314024864504063   -1.369566372155640365804174508    1.256071914658719368418360318   -2.422024702419427466537626970   -3.385025362188228026383285396    5.962809409500700930095717922
  44 2    0.449506379999999983176905971    1.935586440000000019168169274    9.725751620000000485788405058   -0.759411530067475970540158414   -0.647018502513079352134184319   -0.083310747703735366087585135   -0.005393199886988384213204473   -0.092863000347226679065393284    1.342080745211109427117435189
  45 2    1.744104050000000016851231521   10.828521350000000822433321446    8.973917809999999661840774934   -0.136106279437902433215867859    0.040410957083056864291847887   -0.053514271053227258079232342    0.101767492721469537952927453    4.356744971522505949224068900   -3.315425250391634381941230458
  46 2    1.757487570000000109970983431   10.475639879999999237725205603    6.272265479999999726601345174   -3.825873348342260005239268139    0.900233690341338821383487812    1.339380644102290629504636854    1.144312844463710066023054424    2.166386819447244871383873033    0.003671886174108783887359841
  47 2   10.954229399999999117198967724    1.810007230000000078007360571    6.749824539999999650774498150    0.564248216257411283613976138   -0.867943730955710868180119633    1.271803212575489894220481801   -2.109645873355872947030320574    0.599834817930033126209821148    0.808237394670097475390946329
  48 2    1.884323650000000016646595213    3.387104480000000084061184680    3.323790339999999954301301841   -0.854355877195784207955853162   -0.981300272529775252650097173    0.762447909971940118722955049    0.932711603790029375460335359   -0.205795644597440402501220547    0.097851422842888086117696389
  49 2    1.471964999999999967883468344    7.533258390000000304098648485    0.959705699999999994886934473   -0.578775605453669350630718782    0.790252340847945600188495519    0.191536050550445979823166454    4.603027114488313920048767613   -2.630943940186843299500196736   -0.933615162542606791262755905
  50 2    1.806305309999999941794612823    7.192859089999999788744844409    8.943021319999999718675098848   -0.216247433315608028614462910    1.586381394620889562219190339    0.065226383067054527487016458   -3.239890579743358145492493350   -1.640540385618159069380794790   -3.465971199148494275021903377
  51 2   10.728629149999999725650923210    2.286713419999999885590113990    1.623963349999999916661863608    4.024119797991959401883832470   -0.532314019709221097897966501    0.349677500168344979059042998   -0.844782557911520459725807086    0.631481062954656668928521412    2.164377295182498883718835714
  52 2    3.747839110000000140132669912    5.108256250000000164845914696    6.455353299999999627800661983   -1.986913333410680992940910983    2.630609024603171253176014943    1.939941704653786125334136159   -2.613985622692060584171258597   -0.683735539196392072547325824    0.067968875927167868300493581
  53 2    3.510420620000000102578496808    1.652877710000000055501345742    6.734096059999999717149421485   -1.554882370483270381811280458    0.076713971241918824106598152    0.474827454650118274681602770   -2.581785912474570565677822742    0.560638693359808093497065329   -0.248729748214236073833305340
  54 2    5.390971229999999891902007221    3.505739549999999926654936644    8.697857909999999748151822132   -0.544049955660733886020352656    0.618736768861516406303735494   -0.071789027303164359983256304   -1.680362356503645182570494399    5.297948294531825474962261069    0.566253823914013576512616055
  55 2   10.832870989999999977726474754    5.284404519999999827462033863    1.480132250000000038170355765   -0.085715250650426622058830617   -0.104497152958941935674275214   -0.150557970277233055256260741   -2.446261035929735427885134413    2.107285540807048107581067597   -1.241978236816204450576606177
  56 2    2.362215270000000089112290880    7.519582889999999686381215724    5.950428709999999732360720373   -3.382166078239221551626769724   -0.088198605962891696297134558    1.457957977966945817271948727    0.462649144743671192347989063   -2.914588637969773632363512661    1.119668767335840087184806180
  57 2   10.852983580000000074505805969    8.615023479999999622691575496    6.894661560000000299908151646    0.084780866649986963423657471    1.239217201338491669559971342    0.575506993322194126960766880    0.878970905835237070746757126    0.226652987668459177106328184    3.618593523217055629714877796
  58 2    3.876222059999999913770807325    1.663074890000000083389863903    4.104410670000000038726284401   -1.163812813962684433732874822   -0.606463861113550106729519484    0.582052967046529534655974203    3.638649286727600351554201552   -1.021454087918474140650459958   -2.380201260852723876837444550
  59 2    5.867386759999999590320385323   10.671627049999999670149009035    3.376312050000000120064669318    0.676825535189982452344281683    0.156267983609545302314813853    0.368067672954413671604356750   -1.897850822284802285722093984    3.808403780168729824140427809   -0.155871180972132511444172565
  60 2    5.511657709999999710248630436   10.654014509999999660294633941    0.752216140000000033083438211   -1.672046465587613717218573584   -1.232903226950192943078832286    2.331563294699167787626947757    2.191990476979923663236604625    3.112419393873433026698194226    4.001440120877717276925977785
  61 2    3.900288890000000119329115478    1.674056640000000095724885796    1.640563510000000002619913175   -1.701089707421292285260960853   -0.693838763123666435461700530   -2.104473855894300804436625185   -0.663358272134193738267526896   -1.824242553406868028176290863   -0.524227737739087484847289033
  62 2    3.614812999999999831857167010    1.621164360000000081996063273    9.540652789999999328074409277    0.529596112983604205837195877    0.779693200334407587881457857   -0.952655453064636392745967441   -2.073037912131655780001437961    0.398327823822384630148008000   -3.197540848908760668933837223
  63 2    5.788870469999999990307060216    0.010757700000000000248312482    8.840197870000000790469130152   -1.038296352645561304584020945    1.671115783978687430177956230    0.216403897656342381061733704   -3.323933544290531116871534323   -1.812506158577308568169428327   -1.799832627744074375897298523
  64 2   10.896863350000000281170287053    9.156391100000000449199433206    9.644156830000000013569660950    0.281496985626930151802582714   -1.304821335798579395870433473   -1.425927158839691566427632097   -3.509261853262197750069617541    0.959162292984525266525963616    2.426366405292895045420209499
  65 2    3.484418849999999956423835101    5.083448579999999772383034724    3.793037729999999996266524249    0.699994130413988058236895995    0.669567204658667258776461040    0.732615220284399404349073848   -0.716362228675295087398922078    0.215249193063546312432166019   -3.712098607991069609823853170
  66 2    5.592534569999999760625541967    3.369782279999999907715846348    3.371224160000000136250264404   -0.219449472812646734221075917    4.002895257213904933735193481   -0.173926666500917759261568563   -1.630281295365524130147605320   -2.977047435839947908675640065   -2.142408373912217278700609313
  67 2    5.325381609999999987792307365    4.155090170000000249217464443    0.542552629999999980192626481    0.286183361652531331742466136    1.460403201978215603773492148    2.106204489957275161060579194    3.330596258817719590439310196   -1.474228271130325840232444534   -1.906628523909897898747090039
  68 2    8.984033070000000620325408818    7.099243900000000273564637610    6.240616669999999643891896994    1.203293323914134349550408842   -0.413843894560914082880742626    1.704444593047877098968001519   -2.063754723658781209394419420    1.396189914477457660879622381   -3.425834421856265965544707797
  69 2    3.514173149999999967718622429    5.488705000000000389093202102    9.191194440000000298596205539    2.167628512732957091202479205    0.678446635115625418244178491    0.739952574039831278973622375    1.536392924506214674451598512    2.000670627702902049094291215    0.512626795417532310494834746
  70 2    5.300510720000000119966898637    3.745419580000000081554389908    6.023561759999999765113898320    3.108003828255936795699199138   -3.259697621395148292577914617    0.056082169214332289186586422    2.136648069522400383846161276   -2.252610869711883623267567600    0.312862636865479437631165638
  71 2   10.942880849999999881561052462    5.458748560000000082936821855    9.191889789999999393899088318   -0.190886459338417080466854259   -0.942255522777903697928536531    0.677243369736456934937507413   -2.161162419147202307101451879   -0.723291012465254734564723549    2.362327457678965902942991306
  72 2    9.159881029999999313417902158    0.083711510000000002862385884    6.438247200000000169950453710   -0.480899999048937376588952475   -1.792097828018201388644570216   -1.014200778987295104016652658    6.592573883444649673890580743    2.914595146969122918534367273   -0.484433506035522265520398832
  73 2    1.734713989999999927960061541    3.596683669999999999333795131    6.294625489999999601309355057   -0.288175034449528189028910674   -1.406257371735104122478787758   -1.035615562182252480383226612    3.450336103472593229923859326   -1.816291750592548437381879012   -0.117777643074194554584366301
  74 2    6.620186880000000329005160893    1.937912840000000080920017353    0.956906119999999971170723256    1.155186983897490859973800070    0.228038172323886678682924867    0.343546466028380015345078391    1.298224421548687779193187453    2.021361510051390641962143491    1.581267579396563371929573805
  75 2    9.019277089999999219571691356    0.757089510000000021072708023    0.855259830000000054184283726   -1.241700827126150930013182005   -2.274455429782686888273701697   -1.684523206626393543317021795    1.436293837491658731408961103    2.362950074413010081997299494   -3.590783863786056961941994814
  76 2    7.325876540000000325392193190    8.717104040000000608756636211    4.383967079999999683082023694   -0.613328204357976969340882079    2.840234477677717528365519684   -0.514436258270882795784473274    0.251804331910572332109410354   -1.297128701212424184419091944   -1.094528724642087169627302501
  77 2    7.500802010000000130673925014    1.907809260000000062262870415    3.908682530000000099335011328   -2.160004154036443413389179113   -3.017675668191786009231236676    1.244003042786164137112336903    1.126702106524663404840680414   -0.713938427637140438086760241   -3.884653137392615196432643643
  78 2    3.511436349999999873006117923    9.568796969999999291189851647    7.256765439999999678377662349    2.719651889367099339978040007    0.285155351248583044387885366   -0.527963557943914585379729942    1.463499310536469755206212540   -2.349459084878401160523253566    1.995185058803100597302204733
  79 2    8.945128199999999196734279394    7.260508220000000179084054253    9.057303799999999682768248022    1.827778305831152305671594149   -0.356245578830075126930410079   -4.026834755357178607937385095   -0.829609543506053204175998417    1.097940155556960784011266696    0.489230126894675210191820725
  80 2    7.348457840000000018676473701    1.721818340000000002731894710    9.313388079999999291658241418    0.619800936466128993274082859    0.344578056228399765004155597   -0.315164829335684126832006768    2.675593018138652023907297917    5.052679195081352325757961808    0.935986911111612029934292423
  81 2    7.714256330000000438928964286    9.094098689999999152178133954    9.645029779999999774986463308   -1.744930232814202009095083667    2.697382402361810704860545229   -1.027022802325890049601753162   -1.618020028452375136396312882   -0.330911542895697685651157371    0.720433528686466151391698531
  82 2    5.844856400000000284933321382    7.278290799999999727276644990    8.696497510000000374930095859    0.419519812486423171460359072   -0.601921012735054494768860422   -0.016027981770712039499837687   -1.978197384215733212187160461   -4.512704752030662014306017227    0.181161466164374951315352291
  83 2    9.057191319999999379319888249    7.209691880000000274719695881    3.642728359999999998564135240   -0.105116264258537595033260459   -1.024937486648611617567894427   -0.553877821481309040585472303    0.670581542145040843116987617    1.368175568811428544080399661   -0.324135414742852179248444600
  84 2    5.149134840000000323811946146    7.411208770000000001232365321    6.171599180000000295365225611    2.646250438656898129607952797   -1.325925566351261908337733075    0.312365037658910438267412246   -3.216136306625554830418423080    2.985246024944943066259384068   -0.209845918643511597512230082
  85 2    7.300659220000000004802132025    8.942661129999999403139554488    1.438412790000000107681898953   -0.718850852116937333313728686    0.793319271779818757650559746    1.636777739193307601439641985    1.595791098034890609369540471   -0.217894490805594781557275041   -2.658868146359898432251611666
  86 2    9.089107679999999689357537136    7.300772509999999826391103852    0.667789030000000005671267900    3.943158499277475748101551289   -0.646673173261220757268574744    2.827207313489520146276845480    0.057575587907213954252938493    1.767545614965217337655190022   -0.551574933900266795028244360
  87 2    7.636225399999999829958596820    5.247418050000000278032530332    9.466307190000000204577190743   -1.275655241868824729678522090    0.876784039478837318171144943   -0.358720376163300658234334151   -1.147895290724112227209730008    3.164072988537596220481873388    0.008774949871292337527650673
  88 2    4.034540859999999895535438554    8.978513209999999133970050025    9.639727609999999557999217359   -1.155468343925040830555417415    0.823628515982723241606322517    1.440369997705200688642435125    1.389680853801484650134057119   -0.545702534677735884294236257    2.204094985497144776331879257
  89 2    9.323872850000000767067831475   10.899982299999999568740349787    9.031152309999999516776370001    0.166081498660486770457822558    0.472619224256865033684249511   -1.071229247109137805438194846   -1.323214641848642791899237636    0.503748522365700224234785765   -1.493143425893939779669494783
  90 2    7.229691189999999600956925860    5.181592539999999580402345600    6.832519109999999784577084938   -1.005054993649447281356401618    0.304833583541841313113707201    1.654960901892288838155309350    0.546744315759527421683117154    1.554520588320840612794881963   -1.222008550914640556683821160
  91 2    5.481094190000000310192262987    0.416356269999999972775128754    5.907082800000000410989287047   -2.436853421504871608505027325   -0.832045357941930130429852852    1.016234009338373933672983185   -2.027777022904757586729829200   -4.617712298167759854550240561    1.296225991429629909035270430
  92 2    0.415841010000000010915499615    5.613805319999999987601313478    6.492439690000000318548245559   -1.249276356376765928501981762   -2.475276001415191551302541484    2.796569298639129286243587558    1.714054937998590100178830653    0.578489350027649340546531675   -0.997825193263755405581605373
  93 2   10.861363609999999724209374108    9.207080239999999804467734066    4.036716270000000328366240865   -0.294788719436925750194689044   -1.731980246986848603896191889    1.789697609990935855961424750   -1.827170422095967694531282177    1.521511649104313690372691781    0.361558704488339599514290512
  94 2    1.581015110000000056800217862    7.323643050000000265242761088    3.451352689999999778791561766    1.040800960264137042798893162   -2.843909394580036664734734586    1.328230594667554331778092092   -4.060704924626620027083845343   -1.321874658398956237093102573   -1.166356230687375150623097397
  95 2    3.957490710000000078139237303    9.063814439999999805763764016    4.211261989999999677536379750   -0.776941257429441756165999777    1.049366386713965315635732622    0.248265016019116824264045817    0.338233565050660434092577589    1.187887503564066804528920329    0.812866214559816224749511093
  96 2    3.236044909999999941163650874    5.997076110000000070954229159    1.548869250000000086231466412    0.748389057131514934262384031   -0.663372644561729063461541500   -0.126093547692940649573856149    0.048914836121187382778074948    0.594735873757809119233286310    0.872542506419764163361207920
  97 2    5.254545040000000000190993887    7.174171109999999629280864610    0.843935270000000015144792087   -1.090527409667076952359821007    0.937332406311141563826083711   -0.160239974040316424108709725   -0.135121393837278530591916592    0.135885574774482265070219000    0.414651675346381642928150768