LAMMPS (27 Jun 2024)
OMP_NUM_THREADS environment is not set. Defaulting to 1 thread. (src/comm.cpp:98)
  using 1 OpenMP thread(s) per MPI task
# user-set variables
variable TEMP equal 900

# necessary preliminaries
units metal
atom_style atomic
dimension 3
boundary p p p

read_data orthog_Hf_7_4_4_Hfint_DATA
Reading data file ...
  orthogonal box = (0 0 0) to (22.422218 22.19224 20.321894)
  5 by 2 by 1 MPI processor grid
  reading atoms ...
  448 atoms
  read_data CPU = 0.004 seconds

# neighbor parameters
neighbor 2.0 bin
neigh_modify every 1 delay 0 check no

# interatomic potential parameters
pair_style     pod
pair_coeff * * Hf_param.pod Hf_coefficients.pod Hf
**************** Begin of POD Potentials ****************
species: Hf 
periodic boundary conditions: 1 1 1
number of environment clusters: 8
number of principal compoments: 2
inner cut-off radius: 1
outer cut-off radius: 5
cut-off function type: 1
gaussian_exponents: 
polynomial_degrees: 
bessel polynomial degree: 4
inverse polynomial degree: 10
one-body potential: 1
two-body radial basis functions: 8
three-body radial basis functions: 8
three-body angular degree: 6
four-body radial basis functions: 7
four-body angular degree: 5
five-body radial basis functions: 0
five-body angular degree: 0
six-body radial basis functions: 0
six-body angular degree: 0
seven-body radial basis functions: 0
seven-body angular degree: 0
number of local descriptors per element for one-body potential: 1
number of local descriptors per element for two-body potential: 8
number of local descriptors per element for three-body potential: 56
number of local descriptors per element for four-body potential: 112
number of local descriptors per element for five-body potential: 0
number of local descriptors per element for six-body potential: 0
number of local descriptors per element for seven-body potential: 0
number of local descriptors per element for all potentials: 177
number of global descriptors: 1409
**************** End of POD Potentials ****************

**************** Begin of Model Coefficients ****************
total number of coefficients for POD potential: 1409
total number of elements for PCA projection matrix: 352
total number of elements for PCA centroids: 16
**************** End of Model Coefficients ****************


thermo 100
thermo_style custom step temp etotal pe ke press vol

# dump output
dump 1 all custom 100 ${TEMP}K_nvt.lammpstrj id type x y z
dump 1 all custom 100 900K_nvt.lammpstrj id type x y z
dump_modify 1 sort id

velocity all create ${TEMP} 9928459 rot yes mom yes dist gaussian
velocity all create 900 9928459 rot yes mom yes dist gaussian
fix 1 all nvt temp ${TEMP} ${TEMP} 0.1
fix 1 all nvt temp 900 ${TEMP} 0.1
fix 1 all nvt temp 900 900 0.1

# run
run 100000

CITE-CITE-CITE-CITE-CITE-CITE-CITE-CITE-CITE-CITE-CITE-CITE-CITE

Your simulation uses code contributions which should be cited:

- Type Label Framework: https://doi.org/10.1021/acs.jpcb.3c08419

@Article{Gissinger24,
 author = {Jacob R. Gissinger, Ilia Nikiforov, Yaser Afshar, Brendon Waters, Moon-ki Choi, Daniel S. Karls, Alexander Stukowski, Wonpil Im, Hendrik Heinz, Axel Kohlmeyer, and Ellad B. Tadmor},
 title = {Type Label Framework for Bonded Force Fields in LAMMPS},
 journal = {J. Phys. Chem. B},
 year =    2024,
 volume =  128,
 number =  13,
 pages =   {3282–-3297}
}

CITE-CITE-CITE-CITE-CITE-CITE-CITE-CITE-CITE-CITE-CITE-CITE-CITE

Neighbor list info ...
  update: every = 1 steps, delay = 0 steps, check = no
  max neighbors/atom: 2000, page size: 100000
  master list distance cutoff = 7
  ghost atom cutoff = 7
  binsize = 3.5, bins = 7 7 6
  1 neighbor lists, perpetual/occasional/extra = 1 0 0
  (1) pair pod, perpetual
      attributes: full, newton on
      pair build: full/bin/atomonly
      stencil: full/bin/3d
      bin: standard
Per MPI rank memory allocation (min/avg/max) = 2.588 | 2.588 | 2.589 Mbytes
   Step          Temp          TotEng         PotEng         KinEng         Press          Volume    
         0   900           -3212.8064     -3264.8078      52.001356      9787.2854      10112.159    
       100   360.04302     -3209.7876     -3230.5907      20.803028      16521.661      10112.159    
       200   583.02878     -3200.2265     -3233.9134      33.686986      17248.705      10112.159    
       300   703.70482     -3189.0513     -3229.7108      40.659561      19612.329      10112.159    
       400   840.70269     -3177.7211     -3226.2963      48.5752        20829.6        10112.159    
       500   924.3493      -3168.0664     -3221.4747      53.408241      22262.764      10112.159    
       600   892.31224     -3161.6943     -3213.2515      51.557163      25151.494      10112.159    
       700   961.73865     -3159.4957     -3215.0643      55.568571      25340.47       10112.159    
       800   886.97015     -3164.5228     -3215.7713      51.248501      23644.555      10112.159    
       900   928.80913     -3170.2556     -3223.9216      53.665927      23212.272      10112.159    
      1000   839.00525     -3174.5535     -3223.0306      48.477123      22017.715      10112.159    
      1100   839.92874     -3172.5229     -3221.0534      48.530482      22919.211      10112.159    
      1200   885.23346     -3167.3137     -3218.4618      51.148156      23867.174      10112.159    
      1300   987.50714     -3162.9144     -3219.9718      57.057456      24223.699      10112.159    
      1400   899.47307     -3164.9222     -3216.8931      51.970911      23834.358      10112.159    
      1500   881.31046     -3168.9703     -3219.8918      50.921488      23347.443      10112.159    
      1600   900.50881     -3171.3762     -3223.4069      52.030755      22657.382      10112.159    
      1700   877.47069     -3170.8127     -3221.5124      50.699629      22597.607      10112.159    
      1800   893.29486     -3168.2178     -3219.8318      51.613938      23404.75       10112.159    
      1900   927.61155     -3166.1559     -3219.7526      53.596732      23867.777      10112.159    
      2000   892.45211     -3166.4378     -3218.0031      51.565245      23847.442      10112.159    
      2100   851.89186     -3168.0671     -3217.2888      49.221702      24186.957      10112.159    
      2200   921.35689     -3167.9131     -3221.1484      53.235342      23032.261      10112.159    
      2300   922.8204      -3169.7369     -3223.0568      53.319903      22554.219      10112.159    
      2400   862.17844     -3172.8612     -3222.6773      49.816054      22011.325      10112.159    
      2500   860.73101     -3172.2228     -3221.9552      49.732422      22516.316      10112.159    
      2600   917.09837     -3167.0742     -3220.0635      52.989288      23429.061      10112.159    
      2700   867.30656     -3165.8353     -3215.9477      50.112352      23849.429      10112.159    
      2800   1013.6687     -3163.8399     -3222.4089      58.569052      23718.746      10112.159    
      2900   882.54185     -3167.2305     -3218.2231      50.992637      23493.975      10112.159    
      3000   891.70469     -3168.1293     -3219.6513      51.522059      23496.397      10112.159    
      3100   898.61727     -3168.3761     -3220.2975      51.921463      23439.58       10112.159    
      3200   915.75491     -3168.152      -3221.0637      52.911664      23462.962      10112.159    
      3300   882.84583     -3168.9908     -3220.001       51.010201      23319.245      10112.159    
      3400   870.83501     -3169.5256     -3219.8418      50.316224      23287.208      10112.159    
      3500   902.23575     -3166.9452     -3219.0758      52.130536      23987.557      10112.159    
      3600   960.16606     -3164.739      -3220.2167      55.477708      23694.448      10112.159    
      3700   897.35518     -3167.9393     -3219.7878      51.84854       22838.889      10112.159    
      3800   884.09482     -3171.6808     -3222.7632      51.082366      22379.895      10112.159    
      3900   878.4586      -3171.742      -3222.4987      50.756709      22816.457      10112.159    
      4000   870.72493     -3170.1642     -3220.474       50.309864      23819.98       10112.159    
      4100   909.34428     -3168.6434     -3221.1847      52.541262      23033.412      10112.159    
      4200   894.11106     -3168.3167     -3219.9778      51.661098      23765.248      10112.159    
      4300   897.64321     -3167.925      -3219.7902      51.865183      23100.902      10112.159    
      4400   904.28809     -3166.5957     -3218.8448      52.249119      23077.038      10112.159    
      4500   954.6229      -3163.7251     -3218.8825      55.157428      23988.712      10112.159    
      4600   935.46175     -3166.3001     -3220.3504      54.050311      23593.708      10112.159    
      4700   869.34791     -3169.9918     -3220.2221      50.230301      23251.456      10112.159    
      4800   908.14829     -3169.7841     -3222.2563      52.472159      22790.385      10112.159    
      4900   907.34677     -3168.715      -3221.1409      52.425847      23659.636      10112.159    
      5000   916.91811     -3164.5023     -3217.4812      52.978873      24218.909      10112.159    
      5100   952.40077     -3161.7728     -3216.8018      55.029035      24151.518      10112.159    
      5200   968.12851     -3164.1815     -3220.1193      55.937773      23412.809      10112.159    
      5300   914.35697     -3167.9957     -3220.8266      52.830892      23716.655      10112.159    
      5400   892.10258     -3168.7327     -3220.2778      51.545049      23457.868      10112.159    
      5500   880.76303     -3169.4872     -3220.377       50.889858      23869.296      10112.159    
      5600   917.85767     -3169.2452     -3222.2784      53.03316       23421.382      10112.159    
      5700   937.44128     -3167.0274     -3221.1921      54.164687      23479.527      10112.159    
      5800   914.6583      -3165.4941     -3218.3424      52.848302      24889.304      10112.159    
      5900   884.24355     -3165.8305     -3216.9214      51.09096       24331.876      10112.159    
      6000   909.75498     -3167.525      -3220.09        52.564992      23181.332      10112.159    
      6100   914.55315     -3170.547      -3223.3892      52.842227      22183.542      10112.159    
      6200   869.06095     -3172.0488     -3222.2626      50.21372       22560.131      10112.159    
      6300   847.92262     -3170.7041     -3219.6965      48.992362      23459.848      10112.159    
      6400   941.16688     -3164.9828     -3219.3628      54.379949      24316.172      10112.159    
      6500   923.90371     -3165.8399     -3219.2224      53.382496      24145.547      10112.159    
      6600   867.45543     -3168.6443     -3218.7652      50.120954      22293.957      10112.159    
      6700   888.03054     -3168.9389     -3220.2486      51.30977       23651.721      10112.159    
      6800   881.88151     -3169.3221     -3220.2766      50.954483      23810.905      10112.159    
      6900   853.44114     -3171.9325     -3221.2437      49.311219      23518.248      10112.159    
      7000   885.99997     -3171.5863     -3222.7787      51.192444      22905.62       10112.159    
      7100   915.18421     -3167.9358     -3220.8145      52.878689      23660.717      10112.159    
      7200   917.1032      -3165.2702     -3218.2597      52.989567      24321.85       10112.159    
      7300   976.22074     -3164.0136     -3220.4189      56.405336      24540.185      10112.159    
      7400   850.30087     -3167.1169     -3216.2467      49.129776      25130.713      10112.159    
      7500   948.90116     -3166.8687     -3221.6955      54.826831      23195.568      10112.159    
      7600   889.62        -3169.2367     -3220.6383      51.401608      22827.145      10112.159    
      7700   867.91489     -3170.0201     -3220.1677      50.147502      22754.571      10112.159    
      7800   934.7608      -3167.2985     -3221.3083      54.009811      24718.13       10112.159    
      7900   892.01161     -3165.6888     -3217.2286      51.539793      24341.588      10112.159    
      8000   957.76654     -3163.2417     -3218.5808      55.339066      24094.806      10112.159    
      8100   901.54742     -3165.3746     -3217.4654      52.090765      24121.902      10112.159    
      8200   898.02508     -3169.2454     -3221.1327      51.887247      23267.988      10112.159    
      8300   930.73446     -3171.0149     -3224.792       53.777171      21610.57       10112.159    
      8400   845.6465      -3171.6908     -3220.5517      48.86085       24125.611      10112.159    
      8500   897.05722     -3168.811      -3220.6423      51.831325      23645.31       10112.159    
      8600   897.93855     -3168.1471     -3220.0293      51.882247      23527.497      10112.159    
      8700   882.84127     -3168.2589     -3219.2688      51.009937      23444.763      10112.159    
      8800   857.07402     -3169.1728     -3218.6939      49.521124      24492.961      10112.159    
      8900   895.75242     -3168.2389     -3219.9949      51.755934      23297.202      10112.159    
      9000   939.7555      -3164.6539     -3218.9523      54.2984        24900.427      10112.159    
      9100   885.352       -3165.462      -3216.617       51.155006      25325.536      10112.159    
      9200   916.33052     -3168.1983     -3221.1432      52.944922      22826.463      10112.159    
      9300   862.72379     -3173.9539     -3223.8014      49.847564      22353.125      10112.159    
      9400   854.28494     -3174.1177     -3223.4777      49.359973      22669.659      10112.159    
      9500   875.04645     -3170.7554     -3221.3149      50.559558      23334.249      10112.159    
      9600   959.89013     -3167.5335     -3222.9952      55.461765      22567.506      10112.159    
      9700   852.39148     -3167.686      -3216.9365      49.25057       23945.918      10112.159    
      9800   950.20345     -3165.2764     -3220.1785      54.902076      23639.238      10112.159    
      9900   916.82749     -3165.656      -3218.6296      52.973637      22878.054      10112.159    
     10000   885.65668     -3170.8184     -3221.991       51.17261       23990.617      10112.159    
     10100   909.34406     -3172.2838     -3224.8251      52.541249      22133.672      10112.159    
     10200   858.95309     -3170.7145     -3220.3442      49.629695      22439.5        10112.159    
     10300   943.35033     -3166.9224     -3221.4285      54.506107      23648.221      10112.159    
     10400   892.22351     -3166.4051     -3217.9571      51.552036      23647.406      10112.159    
     10500   924.67321     -3165.9901     -3219.4171      53.426957      24502.669      10112.159    
     10600   856.11606     -3170.4577     -3219.9235      49.465774      22951.217      10112.159    
     10700   868.15694     -3173.446      -3223.6075      50.161487      22298.399      10112.159    
     10800   911.27652     -3171.5552     -3224.2081      52.652906      22194.962      10112.159    
     10900   873.5209      -3169.6348     -3220.1062      50.471413      23133.736      10112.159    
     11000   897.17501     -3166.7317     -3218.5699      51.838131      23796          10112.159    
     11100   954.06323     -3164.2616     -3219.3867      55.125091      23470.679      10112.159    
     11200   904.47212     -3165.4276     -3217.6873      52.259752      23899.331      10112.159    
     11300   911.63155     -3166.6786     -3219.352       52.673419      23585.836      10112.159    
     11400   903.56354     -3167.317      -3219.5243      52.207255      23973.555      10112.159    
     11500   875.34924     -3169.194      -3219.771       50.577053      22625.207      10112.159    
     11600   906.99295     -3171.5462     -3223.9516      52.405404      22039.533      10112.159    
     11700   848.95167     -3173.3029     -3222.3547      49.05182       22726.813      10112.159    
     11800   872.19394     -3168.3643     -3218.7591      50.394742      23769.798      10112.159    
     11900   924.98206     -3165.4161     -3218.8609      53.444802      23453.867      10112.159    
     12000   916.6976      -3165.4        -3218.3662      52.966132      23855.666      10112.159    
     12100   901.34467     -3166.4792     -3218.5583      52.079051      22799.402      10112.159    
     12200   902.11797     -3171.2506     -3223.3743      52.123731      22987.442      10112.159    
     12300   864.86197     -3172.9664     -3222.9375      49.971106      23029.746      10112.159    
     12400   851.09144     -3170.5541     -3219.7296      49.175455      23142.548      10112.159    
     12500   903.43077     -3167.6616     -3219.8612      52.199584      23434.064      10112.159    
     12600   959.35462     -3166.5911     -3222.0219      55.430824      23436.605      10112.159    
     12700   854.8658      -3168.6816     -3218.0752      49.393535      24137.375      10112.159    
     12800   868.67755     -3170.1737     -3220.3653      50.191568      24409.952      10112.159    
     12900   844.98721     -3174.7729     -3223.5957      48.822757      21598.596      10112.159    
     13000   813.27557     -3176.6023     -3223.5928      46.990481      21356.46       10112.159    
     13100   891.86644     -3171.9949     -3223.5263      51.531405      22386.948      10112.159    
     13200   879.88443     -3169.8152     -3220.6543      50.839093      23509.427      10112.159    
     13300   925.14683     -3166.8486     -3220.303       53.454322      24479.245      10112.159    
     13400   906.03059     -3165.9084     -3218.2582      52.3498        24082.164      10112.159    
     13500   947.95029     -3166.2054     -3220.9773      54.77189       23326.534      10112.159    
     13600   870.6672      -3170.5304     -3220.8369      50.306528      23243.671      10112.159    
     13700   884.80959     -3172.4635     -3223.5872      51.123665      22332.072      10112.159    
     13800   846.84563     -3172.0241     -3220.9543      48.930135      22489.937      10112.159    
     13900   923.32447     -3165.8133     -3219.1624      53.349027      23969.17       10112.159    
     14000   887.63521     -3165.9711     -3217.2581      51.286927      24445.601      10112.159    
     14100   921.82831     -3167.9413     -3221.2039      53.26258       23808.543      10112.159    
     14200   840.43795     -3171.3981     -3219.958       48.559903      23088.266      10112.159    
     14300   907.51755     -3170.073      -3222.5087      52.435715      23258.391      10112.159    
     14400   892.02346     -3169.0066     -3220.5471      51.540477      23334.09       10112.159    
     14500   897.5014      -3167.8788     -3219.7358      51.856989      23817.41       10112.159    
     14600   927.27656     -3164.4776     -3218.055       53.577376      24205.078      10112.159    
     14700   893.61043     -3164.9912     -3216.6234      51.632171      24572.972      10112.159    
     14800   925.92471     -3167.3418     -3220.841       53.499268      23212.413      10112.159    
     14900   850.02043     -3171.1906     -3220.3042      49.113573      22936.705      10112.159    
     15000   925.66979     -3170.492      -3223.9765      53.484538      22427.271      10112.159    
     15100   875.66197     -3169.6629     -3220.258       50.595122      23131.372      10112.159    
     15200   928.79966     -3163.8238     -3217.4892      53.66538       24632.27       10112.159    
     15300   965.56943     -3161.535      -3217.3249      55.789911      24672.401      10112.159    
     15400   894.71517     -3165.2011     -3216.8971      51.696003      23987.817      10112.159    
     15500   898.09688     -3168.4877     -3220.3791      51.891396      23170.024      10112.159    
     15600   869.31786     -3170.9652     -3221.1937      50.228564      22858.39       10112.159    
     15700   904.04355     -3170.3434     -3222.5784      52.23499       22701.724      10112.159    
     15800   979.7275      -3165.7864     -3222.3944      56.607954      23649.474      10112.159    
     15900   915.35479     -3163.3957     -3216.2842      52.888545      25236.021      10112.159    
     16000   910.48406     -3164.842      -3217.4491      52.607118      24191.404      10112.159    
     16100   878.62138     -3166.1757     -3216.9418      50.766115      23844.459      10112.159    
     16200   920.9549      -3166.9665     -3220.1786      53.212115      23667.701      10112.159    
     16300   909.9416      -3169.0829     -3221.6587      52.575775      22884.253      10112.159    
     16400   878.25443     -3171.9664     -3222.7113      50.744913      22017.934      10112.159    
     16500   842.07697     -3175.3561     -3224.0107      48.654605      21079.062      10112.159    
     16600   850.32022     -3175.1912     -3224.3221      49.130894      22591.83       10112.159    
     16700   889.9834      -3169.7946     -3221.2172      51.422604      23008.711      10112.159    
     16800   870.8531      -3166.8824     -3217.1997      50.317269      23443.471      10112.159    
     16900   946.11571     -3164.6077     -3219.2735      54.665889      23938.866      10112.159    
     17000   845.44367     -3167.0739     -3215.923       48.849131      24571.933      10112.159    
     17100   871.49904     -3170.2151     -3220.5696      50.354591      22881.487      10112.159    
     17200   879.1485      -3171.8253     -3222.6218      50.796571      23165.572      10112.159    
     17300   917.45069     -3170.3389     -3223.3485      53.009645      22549.114      10112.159    
     17400   920.62144     -3163.7052     -3216.8981      53.192849      24237.205      10112.159    
     17500   936.54633     -3160.8626     -3214.9755      54.112977      24320.011      10112.159    
     17600   940.03274     -3163.9042     -3218.2187      54.314419      24377.447      10112.159    
     17700   908.89287     -3168.5181     -3221.0333      52.51518       23377.834      10112.159    
     17800   918.30599     -3170.2907     -3223.3498      53.059063      22809.989      10112.159    
     17900   833.04883     -3172.4554     -3220.5884      48.132966      22237.199      10112.159    
     18000   889.17399     -3169.4527     -3220.8286      51.375837      23542.604      10112.159    
     18100   892.74345     -3166.7658     -3218.3479      51.582078      23942.953      10112.159    
     18200   882.13806     -3166.0876     -3217.0569      50.969306      23710.023      10112.159    
     18300   926.45702     -3166.3559     -3219.8859      53.530024      23771.033      10112.159    
     18400   895.11616     -3170.2454     -3221.9646      51.719171      22572.596      10112.159    
     18500   848.7261      -3173.4722     -3222.511       49.038787      22993.54       10112.159    
     18600   867.13824     -3172.0404     -3222.143       50.102627      22345.905      10112.159    
     18700   941.38953     -3165.9421     -3220.3349      54.392814      23676.203      10112.159    
     18800   874.71581     -3165.7783     -3216.3188      50.540454      23721.018      10112.159    
     18900   919.64102     -3164.9754     -3218.1116      53.1362        23907.532      10112.159    
     19000   922.99116     -3167.6986     -3221.0284      53.329769      23843.582      10112.159    
     19100   850.16849     -3171.0946     -3220.2167      49.122127      23229.915      10112.159    
     19200   859.9733      -3171.2983     -3220.9869      49.688642      22816.258      10112.159    
     19300   893.0068      -3168.6666     -3220.2639      51.597294      22574.19       10112.159    
     19400   984.4997      -3163.4355     -3220.3192      56.883689      24588.23       10112.159    
     19500   908.73019     -3163.7224     -3216.2282      52.505781      24031.432      10112.159    
     19600   916.81569     -3164.3022     -3217.2752      52.972955      23809.516      10112.159    
     19700   884.96258     -3169.3281     -3220.4606      51.132505      22934.774      10112.159    
     19800   907.0736      -3171.167      -3223.577       52.410064      22903.519      10112.159    
     19900   859.02369     -3171.0996     -3220.7334      49.633774      22761.123      10112.159    
     20000   951.57675     -3167.4502     -3222.4316      54.981424      23576.193      10112.159    
     20100   900.34451     -3166.6239     -3218.6452      52.021262      23364.716      10112.159    
     20200   890.66392     -3166.8282     -3218.2901      51.461925      24277.259      10112.159    
     20300   835.0895      -3170.5005     -3218.7513      48.250874      22960.824      10112.159    
     20400   890.69834     -3173.5019     -3224.9659      51.463913      22186.44       10112.159    
     20500   902.4184      -3172.9        -3225.0411      52.14109       22381.832      10112.159    
     20600   921.66268     -3169.2037     -3222.4567      53.25301       22669.552      10112.159    
     20700   893.82413     -3167.3476     -3218.9921      51.644519      23010.209      10112.159    
     20800   915.6549      -3167.3316     -3220.2374      52.905885      23257.225      10112.159    
     20900   858.97963     -3167.5992     -3217.2305      49.631229      24220.278      10112.159    
     21000   891.60861     -3166.8545     -3218.371       51.516508      23504.408      10112.159    
     21100   905.50354     -3167.7848     -3220.1041      52.319347      23424.011      10112.159    
     21200   907.04085     -3170.2037     -3222.6119      52.408172      22536.63       10112.159    
     21300   883.48683     -3175.6526     -3226.6998      51.047237      21814.541      10112.159    
     21400   816.45676     -3175.9561     -3223.1304      47.174288      22071.726      10112.159    
     21500   869.38456     -3170.984      -3221.2164      50.232418      23026.432      10112.159    
     21600   868.59103     -3168.8394     -3219.0259      50.186569      23365.042      10112.159    
     21700   945.15772     -3165.5736     -3220.1842      54.610537      23436.528      10112.159    
     21800   938.76854     -3164.9936     -3219.235       54.241375      23077.587      10112.159    
     21900   921.03181     -3167.917      -3221.1336      53.216559      22484.877      10112.159    
     22000   860.27        -3172.7967     -3222.5024      49.705785      22361.572      10112.159    
     22100   882.41146     -3172.1331     -3223.1182      50.985103      22249.483      10112.159    
     22200   867.47794     -3170.1309     -3220.2532      50.122255      22741.635      10112.159    
     22300   913.50321     -3166.8746     -3219.6561      52.781562      23277.832      10112.159    
     22400   930.28607     -3166.0426     -3219.7939      53.751264      23638.465      10112.159    
     22500   924.94522     -3166.1163     -3219.5589      53.442673      24068.362      10112.159    
     22600   887.97488     -3168.0982     -3219.4047      51.306553      23661.972      10112.159    
     22700   883.82652     -3168.642      -3219.7088      51.066864      22939.246      10112.159    
     22800   889.58205     -3167.7498     -3219.1492      51.399415      23588.338      10112.159    
     22900   901.83619     -3167.1129     -3219.2204      52.10745       23537.306      10112.159    
     23000   921.93129     -3168.3593     -3221.6278      53.268531      22884.745      10112.159    
     23100   872.8949      -3170.8441     -3221.2794      50.435243      23097.742      10112.159    
     23200   881.09139     -3172.8999     -3223.8087      50.90883       22660.764      10112.159    
     23300   877.79496     -3172.1809     -3222.8993      50.718365      22986.722      10112.159    
     23400   841.06618     -3168.1427     -3216.7389      48.596203      23454.082      10112.159    
     23500   963.03746     -3165.1929     -3220.8365      55.643616      23053.022      10112.159    
     23600   863.74923     -3166.468      -3216.3749      49.906813      24292.967      10112.159    
     23700   908.5734      -3167.5579     -3220.0546      52.496721      23462.719      10112.159    
     23800   878.01502     -3170.9769     -3221.708       50.73108       22402.497      10112.159    
     23900   899.15103     -3171.2646     -3223.2169      51.952303      22233.947      10112.159    
     24000   982.68892     -3165.7085     -3222.4876      56.779063      23483.569      10112.159    
     24100   913.92715     -3161.9695     -3214.7756      52.806057      24951.87       10112.159    
     24200   972.05393     -3161.8251     -3217.9897      56.164581      24637.17       10112.159    
     24300   901.00804     -3166.8807     -3218.9403      52.0596        23750.473      10112.159    
     24400   886.72736     -3168.6115     -3219.846       51.234473      23579.6        10112.159    
     24500   907.0478      -3169.0917     -3221.5002      52.408573      22625.049      10112.159    
     24600   879.39991     -3170.6132     -3221.4243      50.811098      22913.077      10112.159    
     24700   888.71393     -3170.6463     -3221.9955      51.349255      22681.021      10112.159    
     24800   904.91063     -3166.3549     -3218.6399      52.285089      24071.715      10112.159    
     24900   929.04375     -3164.9516     -3218.6311      53.679484      24162.707      10112.159    
     25000   909.86033     -3166.6021     -3219.1732      52.571079      23232.983      10112.159    
     25100   870.74066     -3170.1974     -3220.5081      50.310773      24127.393      10112.159    
     25200   835.37034     -3175.0289     -3223.296       48.267101      22943.895      10112.159    
     25300   879.82376     -3173.6248     -3224.4604      50.835588      21224.388      10112.159    
     25400   852.36599     -3170.4442     -3219.6933      49.249097      22772.499      10112.159    
     25500   911.36025     -3167.7492     -3220.4069      52.657743      24287.801      10112.159    
     25600   906.96904     -3167.1199     -3219.5239      52.404022      24063.874      10112.159    
     25700   912.4612      -3166.6342     -3219.3556      52.721356      24329.843      10112.159    
     25800   918.42676     -3167.5883     -3220.6543      53.066041      24085.59       10112.159    
     25900   850.65737     -3171.0192     -3220.1696      49.150374      22988.173      10112.159    
     26000   930.54317     -3171.1907     -3224.9568      53.766119      21869.859      10112.159    
     26100   837.38394     -3170.6856     -3219.069       48.383445      23134.026      10112.159    
     26200   933.78159     -3166.118      -3220.0713      53.953232      23804.486      10112.159    
     26300   913.9841      -3166.1265     -3218.9358      52.809348      23537.138      10112.159    
     26400   902.13216     -3167.2455     -3219.37        52.124551      23541.554      10112.159    
     26500   885.09232     -3172.1552     -3223.2952      51.140001      22945.354      10112.159    
     26600   871.75171     -3173.857      -3224.2262      50.36919       21680.976      10112.159    
     26700   857.17932     -3170.6742     -3220.2015      49.527208      23063.677      10112.159    
     26800   901.91239     -3167.8944     -3220.0063      52.111853      23764.117      10112.159    
     26900   863.09219     -3168.0165     -3217.8853      49.86885       23967.362      10112.159    
     27000   938.77436     -3166.9732     -3221.2149      54.241711      23284.983      10112.159    
     27100   893.37982     -3168.1266     -3219.7454      51.618847      23182.094      10112.159    
     27200   868.50042     -3170.8836     -3221.0649      50.181333      23038.263      10112.159    
     27300   881.79558     -3171.8109     -3222.7604      50.949518      23274.126      10112.159    
     27400   873.60869     -3170.3472     -3220.8237      50.476485      23005.85       10112.159    
     27500   950.32771     -3165.2467     -3220.1559      54.909256      24503.583      10112.159    
     27600   955.86893     -3165.0052     -3220.2347      55.229423      23520.914      10112.159    
     27700   903.82616     -3167.4736     -3219.6961      52.222429      24155.669      10112.159    
     27800   880.83668     -3169.8334     -3220.7275      50.894113      22934.204      10112.159    
     27900   855.52328     -3173.3496     -3222.7811      49.431523      22184.58       10112.159    
     28000   825.41961     -3177.8557     -3225.5479      47.692155      21015.099      10112.159    
     28100   858.8315      -3175.3617     -3224.9844      49.62267       22240.566      10112.159    
     28200   855.46263     -3172.4336     -3221.8616      49.428019      23279.742      10112.159    
     28300   888.71183     -3168.9003     -3220.2494      51.349134      23227.296      10112.159    
     28400   936.39528     -3165.7291     -3219.8334      54.10425       23419.494      10112.159    
     28500   882.27557     -3166.4315     -3217.4087      50.977252      24383.129      10112.159    
     28600   935.77809     -3167.6375     -3221.7061      54.068589      23433.455      10112.159    
     28700   836.3829      -3172.4892     -3220.8148      48.325606      23577.696      10112.159    
     28800   842.86318     -3173.3622     -3222.0623      48.700032      22572.926      10112.159    
     28900   898.51948     -3169.4718     -3221.3876      51.915813      23967.722      10112.159    
     29000   925.21568     -3168.4553     -3221.9136      53.4583        23440.708      10112.159    
     29100   910.11787     -3168.439      -3221.025       52.58596       22951.778      10112.159    
     29200   902.05077     -3166.7428     -3218.8626      52.119849      23691.621      10112.159    
     29300   958.02788     -3164.1007     -3219.4549      55.354166      24608.972      10112.159    
     29400   883.36769     -3166.8417     -3217.882       51.040353      24187.365      10112.159    
     29500   917.9539      -3169.6386     -3222.6774      53.03872       23114.866      10112.159    
     29600   887.77392     -3171.7317     -3223.0266      51.294942      23488.832      10112.159    
     29700   853.81646     -3173.7035     -3223.0364      49.332904      22002.539      10112.159    
     29800   904.07186     -3170.7186     -3222.9552      52.236626      22652.084      10112.159    
     29900   882.4435      -3166.801      -3217.788       50.986954      24025.958      10112.159    
     30000   938.43646     -3164.6436     -3218.8658      54.222187      24086.225      10112.159    
     30100   926.07493     -3165.111      -3218.6189      53.507947      24235.297      10112.159    
     30200   921.3684      -3169.2524     -3222.4884      53.236007      22456.733      10112.159    
     30300   824.69159     -3173.0484     -3220.6984      47.65009       23425.628      10112.159    
     30400   872.50945     -3170.8791     -3221.2921      50.412972      23236.935      10112.159    
     30500   918.05365     -3168.0196     -3221.0641      53.044483      23224.22       10112.159    
     30600   918.82299     -3166.7308     -3219.8198      53.088935      23459.688      10112.159    
     30700   880.05178     -3166.4965     -3217.3452      50.848762      24806.164      10112.159    
     30800   903.78434     -3164.8979     -3217.1179      52.220013      23758.107      10112.159    
     30900   940.98242     -3163.9896     -3218.3589      54.369291      23690.192      10112.159    
     31000   906.22238     -3166.6691     -3219.03        52.360881      23056.827      10112.159    
     31100   881.97951     -3170.4329     -3221.393       50.960145      23299.131      10112.159    
     31200   868.01681     -3171.489      -3221.6424      50.15339       23192.695      10112.159    
     31300   917.0964      -3169.4249     -3222.414       52.989174      22971.826      10112.159    
     31400   916.75383     -3166.595      -3219.5644      52.969381      23819.361      10112.159    
     31500   944.42805     -3159.9728     -3214.5412      54.568377      25799.716      10112.159    
     31600   946.56218     -3161.8132     -3216.5049      54.691686      24946.71       10112.159    
     31700   871.20825     -3166.0325     -3216.3703      50.33779       24664.653      10112.159    
     31800   908.4985      -3168.456      -3220.9484      52.492394      23670.386      10112.159    
     31900   864.78368     -3171.4998     -3221.4664      49.966583      23141.201      10112.159    
     32000   902.38463     -3169.9812     -3222.1204      52.139138      22217.075      10112.159    
     32100   890.70461     -3167.996      -3219.4603      51.464275      23540.353      10112.159    
     32200   867.26029     -3167.0577     -3217.1673      50.10968       24509.648      10112.159    
     32300   905.07676     -3167.2552     -3219.5499      52.294688      23946.796      10112.159    
     32400   915.77367     -3168.9881     -3221.9008      52.912748      22822.038      10112.159    
     32500   898.95589     -3170.4393     -3222.3803      51.941029      22373.334      10112.159    
     32600   895.62588     -3172.0656     -3223.8142      51.748623      22778.844      10112.159    
     32700   822.75964     -3173.8892     -3221.4276      47.538464      22624.291      10112.159    
     32800   902.40658     -3169.4952     -3221.6356      52.140407      22416.807      10112.159    
     32900   891.78002     -3166.5446     -3218.071       51.526412      23646.631      10112.159    
     33000   953.46988     -3165.7552     -3220.846       55.090808      24090.772      10112.159    
     33100   870.55277     -3169.1655     -3219.4655      50.299916      23951.601      10112.159    
     33200   852.08794     -3169.9919     -3219.225       49.233032      22778.439      10112.159    
     33300   922.78454     -3168.5536     -3221.8715      53.317831      23695.078      10112.159    
     33400   898.18045     -3168.9724     -3220.8687      51.896224      23273.417      10112.159    
     33500   889.49466     -3168.7747     -3220.1691      51.394365      22893.389      10112.159    
     33600   906.39093     -3167.083      -3219.4536      52.370619      24072.161      10112.159    
     33700   919.91688     -3163.5161     -3216.6682      53.15214       23921.039      10112.159    
     33800   968.72944     -3161.2263     -3217.1988      55.972494      24763.281      10112.159    
     33900   911.45507     -3165.602      -3218.2652      52.663222      23701.64       10112.159    
     34000   872.42309     -3168.5401     -3218.9481      50.407982      23131.792      10112.159    
     34100   923.61358     -3168.9174     -3222.2832      53.365732      24274.021      10112.159    
     34200   917.84443     -3170.6634     -3223.6958      53.032395      22670.484      10112.159    
     34300   823.21498     -3172.5462     -3220.1109      47.564773      23390.511      10112.159    
     34400   948.07848     -3167.4241     -3222.2034      54.779297      23174.643      10112.159    
     34500   896.04684     -3165.6505     -3217.4235      51.772945      24091.35       10112.159    
     34600   925.81048     -3165.5669     -3219.0596      53.492667      24292.033      10112.159    
     34700   871.33933     -3169.4447     -3219.79        50.345364      23518.323      10112.159    
     34800   837.60334     -3172.8307     -3221.2268      48.396122      22455.577      10112.159    
     34900   905.07209     -3172.0625     -3224.3569      52.294418      22350.888      10112.159    
     35000   878.73212     -3171.0171     -3221.7896      50.772513      22304.808      10112.159    
     35100   948.69137     -3167.4485     -3222.2632      54.814709      23751.52       10112.159    
     35200   910.73456     -3166.2899     -3218.9115      52.621592      24095.217      10112.159    
     35300   902.58783     -3166.8868     -3219.0377      52.150879      23983.499      10112.159    
     35400   873.09996     -3171.066      -3221.5131      50.447091      23491.505      10112.159    
     35500   844.94215     -3175.5283     -3224.3484      48.820153      21942.834      10112.159    
     35600   893.40323     -3173.5919     -3225.2121      51.6202        21474.142      10112.159    
     35700   882.16442     -3169.8612     -3220.832       50.970829      22906.003      10112.159    
     35800   950.93476     -3167.2295     -3222.1738      54.944331      23343.647      10112.159    
     35900   877.93473     -3168.2352     -3218.9616      50.726441      23805.859      10112.159    
     36000   832.66428     -3170.2637     -3218.3745      48.110747      23713.202      10112.159    
     36100   909.40137     -3170.3634     -3222.908       52.544561      22799.103      10112.159    
     36200   875.16613     -3168.2465     -3218.8129      50.566473      23153.443      10112.159    
     36300   937.88036     -3164.1733     -3218.3633      54.190057      24230.121      10112.159    
     36400   890.8209      -3164.3189     -3215.7899      51.470995      24488.446      10112.159    
     36500   883.43826     -3167.5702     -3218.6147      51.044431      23900.729      10112.159    
     36600   878.49635     -3172.1408     -3222.8997      50.758891      22466.418      10112.159    
     36700   899.62229     -3171.0264     -3223.006       51.979533      22707.21       10112.159    
     36800   904.87541     -3169.0717     -3221.3548      52.283054      22891.011      10112.159    
     36900   927.05881     -3167.2303     -3220.7951      53.564795      23223.516      10112.159    
     37000   911.23336     -3165.1007     -3217.7511      52.650412      23921.024      10112.159    
     37100   958.95602     -3161.5426     -3216.9504      55.407793      24476.595      10112.159    
     37200   964.61445     -3163.5985     -3219.3333      55.734733      23532.787      10112.159    
     37300   852.68722     -3169.3562     -3218.6239      49.267658      23405.889      10112.159    
     37400   888.38203     -3170.2991     -3221.6292      51.330079      22734.258      10112.159    
     37500   912.83444     -3170.3921     -3223.135       52.742921      22663.942      10112.159    
     37600   904.8237      -3167.696      -3219.9761      52.280067      23421.047      10112.159    
     37700   923.72485     -3163.9885     -3217.3607      53.372161      24693.79       10112.159    
     37800   948.28291     -3164.7662     -3219.5573      54.791109      24296.15       10112.159    
     37900   876.48311     -3167.5362     -3218.1787      50.642567      23812.784      10112.159    
     38000   920.47581     -3168.0275     -3221.2119      53.184434      23238.874      10112.159    
     38100   894.91129     -3170.1455     -3221.8528      51.707334      23061.211      10112.159    
     38200   815.40328     -3171.5601     -3218.6735      47.113418      22815.463      10112.159    
     38300   940.46956     -3166.2804     -3220.6201      54.339658      23694.1        10112.159    
     38400   915.50344     -3166.2032     -3219.1004      52.897134      23398.92       10112.159    
     38500   916.57701     -3167.6511     -3220.6103      52.959164      23943.99       10112.159    
     38600   856.42851     -3170.332      -3219.8158      49.483827      24130.755      10112.159    
     38700   853.39115     -3170.536      -3219.8444      49.308331      23373.132      10112.159    
     38800   921.09108     -3166.2567     -3219.4767      53.219984      24396.36       10112.159    
     38900   905.83275     -3163.1885     -3215.5269      52.338369      24712.558      10112.159    
     39000   1012.8328     -3161.5781     -3220.0988      58.520756      24228.618      10112.159    
     39100   931.37078     -3167.6301     -3221.4441      53.813938      23348.952      10112.159    
     39200   876.0781      -3169.8224     -3220.4416      50.619166      23799.843      10112.159    
     39300   899.36501     -3169.9898     -3221.9544      51.964667      24088.363      10112.159    
     39400   931.98477     -3167.1741     -3221.0235      53.849413      23016.22       10112.159    
     39500   906.70458     -3165.1102     -3217.4989      52.388742      24450.118      10112.159    
     39600   910.42127     -3166.5896     -3219.1931      52.60349       23538.083      10112.159    
     39700   901.48394     -3169.9452     -3222.0323      52.087097      23210.706      10112.159    
     39800   849.09442     -3174.3874     -3223.4475      49.060069      22282.731      10112.159    
     39900   783.92132     -3179.4862     -3224.7806      45.294413      21827.066      10112.159    
     40000   812.34663     -3179.8129     -3226.7497      46.936807      21422.036      10112.159    
     40100   838.66241     -3173.2888     -3221.7461      48.457315      22087.392      10112.159    
     40200   918.11894     -3168.8009     -3221.8492      53.048256      22518.74       10112.159    
     40300   929.46444     -3166.2892     -3219.993       53.703791      23946.63       10112.159    
     40400   873.98592     -3166.7551     -3217.2534      50.498281      24168.164      10112.159    
     40500   932.94361     -3166.1941     -3220.0989      53.904814      23137.894      10112.159    
     40600   879.87051     -3167.7036     -3218.5419      50.838289      23678.661      10112.159    
     40700   889.08526     -3170.5561     -3221.9268      51.370711      22925.044      10112.159    
     40800   872.70336     -3172.4013     -3222.8254      50.424176      22516.079      10112.159    
     40900   838.2162      -3173.3107     -3221.7422      48.431532      22912.123      10112.159    
     41000   877.21861     -3170.3422     -3221.0272      50.685064      23534.63       10112.159    
     41100   910.72683     -3165.9558     -3218.5769      52.621145      24293.984      10112.159    
     41200   920.43654     -3164.8818     -3218.064       53.182165      23495.395      10112.159    
     41300   945.58198     -3166.8917     -3221.5267      54.635051      23801.789      10112.159    
     41400   833.21525     -3170.9686     -3219.1112      48.142581      22399.056      10112.159    
     41500   874.71486     -3170.5492     -3221.0896      50.540399      23403.742      10112.159    
     41600   909.96075     -3169.3663     -3221.9432      52.576881      22644.359      10112.159    
     41700   893.30001     -3167.4839     -3219.0981      51.614236      23112.232      10112.159    
     41800   949.88664     -3162.2003     -3217.0841      54.883771      24084.512      10112.159    
     41900   928.06604     -3161.9054     -3215.5284      53.622992      25386.314      10112.159    
     42000   905.41452     -3164.5663     -3216.8805      52.314203      24598.895      10112.159    
     42100   920.19608     -3166.9443     -3220.1125      53.168271      23513.607      10112.159    
     42200   858.61858     -3170.0407     -3219.6511      49.610368      22517.946      10112.159    
     42300   884.94072     -3170.2422     -3221.3734      51.131242      22036.304      10112.159    
     42400   914.92003     -3167.0633     -3219.9267      52.863425      23142.894      10112.159    
     42500   901.45963     -3164.0711     -3216.1568      52.085693      24743.912      10112.159    
     42600   905.16038     -3165.6444     -3217.9439      52.299519      24207.151      10112.159    
     42700   944.46123     -3167.6703     -3222.2406      54.570294      22487.855      10112.159    
     42800   899.59676     -3168.849      -3220.827       51.978058      23391.206      10112.159    
     42900   909.65603     -3168.6569     -3221.2162      52.559275      23008.224      10112.159    
     43000   842.36104     -3169.2202     -3217.8912      48.671019      24221.911      10112.159    
     43100   973.54063     -3164.8835     -3221.134       56.250482      23415.084      10112.159    
     43200   948.59934     -3162.495      -3217.3044      54.809391      24062.346      10112.159    
     43300   916.4511      -3164.3068     -3217.2587      52.951889      24690.213      10112.159    
     43400   904.43097     -3170.4283     -3222.6857      52.257375      22014.571      10112.159    
     43500   889.47136     -3170.8877     -3222.2808      51.393019      22589.627      10112.159    
     43600   865.50284     -3168.6701     -3218.6782      50.008135      24170.838      10112.159    
     43700   933.42076     -3165.7329     -3219.6653      53.932384      24125.608      10112.159    
     43800   907.67055     -3166.1286     -3218.5731      52.444555      23336.743      10112.159    
     43900   892.60242     -3171.1563     -3222.7302      51.573929      22644.549      10112.159    
     44000   877.23296     -3173.0633     -3223.7492      50.685893      22482.333      10112.159    
     44100   864.48107     -3170.27       -3220.2191      49.949098      22891.146      10112.159    
     44200   839.27424     -3167.5539     -3216.0465      48.492665      24567.419      10112.159    
     44300   953.1619      -3165.4988     -3220.5718      55.073013      23921.355      10112.159    
     44400   959.54019     -3167.0064     -3222.4479      55.441546      23241.586      10112.159    
     44500   849.69084     -3171.4119     -3220.5064      49.094529      23326.396      10112.159    
     44600   880.55834     -3170.748      -3221.626       50.878031      22695.895      10112.159    
     44700   884.86838     -3168.9605     -3220.0875      51.127062      23695.275      10112.159    
     44800   917.21314     -3167.1684     -3220.1644      52.995919      23668.293      10112.159    
     44900   894.51133     -3167.0531     -3218.7374      51.684225      24068.847      10112.159    
     45000   918.89778     -3165.8598     -3218.953       53.093257      24088.541      10112.159    
     45100   902.96465     -3165.5696     -3217.7422      52.172651      24174.69       10112.159    
     45200   876.99683     -3168.313      -3218.9852      50.67225       23471.326      10112.159    
     45300   872.04401     -3171.4278     -3221.8139      50.386079      22833.512      10112.159    
     45400   901.5511      -3170.7528     -3222.8438      52.090978      22022.102      10112.159    
     45500   859.18892     -3168.6877     -3218.331       49.643321      23818.331      10112.159    
     45600   916.17804     -3164.0523     -3216.9884      52.936112      24616.727      10112.159    
     45700   1000.7789     -3160.0818     -3217.9061      57.824292      24086.957      10112.159    
     45800   910.8546      -3164.3403     -3216.9688      52.628527      24149.02       10112.159    
     45900   879.66761     -3168.3619     -3219.1884      50.826566      23528.705      10112.159    
     46000   924.0677      -3169.3177     -3222.7097      53.391971      22824.698      10112.159    
     46100   857.04802     -3170.5104     -3220.03        49.519622      22680.265      10112.159    
     46200   940.09474     -3168.1908     -3222.5088      54.318002      22524.483      10112.159    
     46300   924.62138     -3163.9961     -3217.42        53.423962      24549.665      10112.159    
     46400   933.78027     -3163.6173     -3217.5705      53.953156      24399.337      10112.159    
     46500   878.2097      -3167.3742     -3218.1165      50.742328      23841.277      10112.159    
     46600   920.44738     -3168.7264     -3221.9091      53.182791      23469.588      10112.159    
     46700   865.31335     -3169.096      -3219.0932      49.997186      24012.567      10112.159    
     46800   967.40311     -3167.4388     -3223.3347      55.89586       22790.697      10112.159    
     46900   851.45944     -3169.8592     -3219.0559      49.196717      22694.931      10112.159    
     47000   899.49958     -3170.6872     -3222.6596      51.972442      22906.977      10112.159    
     47100   874.199       -3170.2403     -3220.7509      50.510593      23601.042      10112.159    
     47200   907.59897     -3167.2524     -3219.6928      52.440419      23231.142      10112.159    
     47300   995.74797     -3163.1621     -3220.6957      57.533605      23691.614      10112.159    
     47400   921.47041     -3165.2531     -3218.495       53.241901      24168.465      10112.159    
     47500   893.21227     -3168.5163     -3220.1255      51.609166      24238.802      10112.159    
     47600   928.96507     -3169.313      -3222.9879      53.674938      22851.284      10112.159    
     47700   848.74039     -3170.5357     -3219.5753      49.039613      23267.797      10112.159    
     47800   963.39006     -3167.0141     -3222.678       55.663989      23146.773      10112.159    
     47900   929.77097     -3163.6215     -3217.343       53.721502      23975.711      10112.159    
     48000   991.45488     -3159.6677     -3216.9533      57.285554      24647.807      10112.159    
     48100   960.95901     -3159.1409     -3214.6645      55.523525      25079.891      10112.159    
     48200   926.78069     -3164.6666     -3218.2154      53.548725      23621.893      10112.159    
     48300   924.97497     -3168.6334     -3222.0778      53.444392      23510          10112.159    
     48400   810.13824     -3171.793      -3218.6022      46.809208      23240.77       10112.159    
     48500   938.57353     -3169.1047     -3223.3348      54.230107      22718.292      10112.159    
     48600   887.32612     -3167.6033     -3218.8724      51.269069      22724.842      10112.159    
     48700   912.01224     -3165.7975     -3218.4929      52.695415      23561.453      10112.159    
     48800   978.39503     -3162.3474     -3218.8784      56.530965      23761.272      10112.159    
     48900   920.04437     -3162.3635     -3215.523       53.159506      24121.886      10112.159    
     49000   890.83946     -3166.1333     -3217.6053      51.472067      23959.195      10112.159    
     49100   880.94478     -3170.0191     -3220.9195      50.900359      23431.736      10112.159    
     49200   933.70029     -3170.0918     -3224.0403      53.948535      22458.537      10112.159    
     49300   865.42544     -3169.6338     -3219.6374      50.003663      22666.843      10112.159    
     49400   890.74049     -3165.8793     -3217.3457      51.466349      24071.251      10112.159    
     49500   931.289       -3164.0336     -3217.8428      53.809212      23885.159      10112.159    
     49600   944.58323     -3165.0536     -3219.631       54.577344      23560.314      10112.159    
     49700   912.2488      -3167.5866     -3220.2957      52.709083      23173.207      10112.159    
     49800   845.08591     -3169.2227     -3218.0512      48.82846       23582.096      10112.159    
     49900   973.97895     -3168.1149     -3224.3907      56.275807      22515.503      10112.159    
     50000   832.30958     -3171.6082     -3219.6984      48.090252      22363.802      10112.159    
     50100   851.51639     -3175.1988     -3224.3988      49.200008      21558.656      10112.159    
     50200   799.58573     -3176.3503     -3222.5498      46.199491      22267.67       10112.159    
     50300   862.78573     -3171.3751     -3221.2262      49.851143      23089.553      10112.159    
     50400   896.46596     -3168.4555     -3220.2526      51.797162      23125.715      10112.159    
     50500   911.83492     -3166.401      -3219.0861      52.68517       24170.431      10112.159    
     50600   920.24883     -3165.5873     -3218.7586      53.171319      23471.898      10112.159    
     50700   888.79889     -3168.0351     -3219.3892      51.354164      22781.17       10112.159    
     50800   853.91075     -3172.075      -3221.4133      49.338352      23280.665      10112.159    
     50900   915.9989      -3171.1632     -3224.0889      52.925761      22641.666      10112.159    
     51000   870.47219     -3168.6182     -3218.9134      50.295261      22887.791      10112.159    
     51100   933.29439     -3163.1575     -3217.0826      53.925082      24844.891      10112.159    
     51200   906.82449     -3164.3771     -3216.7728      52.395671      24488.258      10112.159    
     51300   880.38137     -3167.704      -3218.5718      50.867806      23427.188      10112.159    
     51400   913.8103      -3169.8662     -3222.6655      52.799305      23147.939      10112.159    
     51500   877.26762     -3170.4925     -3221.1804      50.687896      22972.513      10112.159    
     51600   890.14581     -3166.7466     -3218.1786      51.431988      24204.628      10112.159    
     51700   934.81592     -3161.8499     -3215.8629      54.012995      24240.871      10112.159    
     51800   948.031       -3164.1003     -3218.8768      54.776553      24793.932      10112.159    
     51900   899.71296     -3167.25       -3219.2348      51.984771      23385.645      10112.159    
     52000   884.37501     -3168.6927     -3219.7912      51.098556      22748.963      10112.159    
     52100   874.38318     -3169.4954     -3220.0166      50.521235      23030.395      10112.159    
     52200   881.67852     -3169.0362     -3219.9789      50.942754      23098.402      10112.159    
     52300   889.38128     -3166.6018     -3217.9896      51.387814      23574.861      10112.159    
     52400   987.47514     -3163.7454     -3220.801       57.055607      23746.185      10112.159    
     52500   918.41662     -3166.6941     -3219.7595      53.065455      23592.62       10112.159    
     52600   858.90574     -3169.9159     -3219.5429      49.62696       23282.267      10112.159    
     52700   877.97664     -3169.6875     -3220.4164      50.728862      22978.049      10112.159    
     52800   947.14223     -3168.5619     -3223.2871      54.725201      23071.334      10112.159    
     52900   867.56092     -3168.989      -3219.116       50.127049      23933.397      10112.159    
     53000   930.49001     -3167.8131     -3221.5762      53.763047      23278.598      10112.159    
     53100   849.15301     -3169.147      -3218.2104      49.063453      22843.653      10112.159    
     53200   906.78055     -3171.5948     -3223.9879      52.393131      22986.956      10112.159    
     53300   861.41191     -3174.5101     -3224.2819      49.771764      21660.805      10112.159    
     53400   898.74843     -3172.7679     -3224.6969      51.929041      21262.373      10112.159    
     53500   954.17228     -3170.9225     -3226.0539      55.131392      22897.668      10112.159    
     53600   865.95129     -3175.2754     -3225.3094      50.034046      21537.898      10112.159    
     53700   886.59146     -3176.9473     -3228.1739      51.22662       20916.588      10112.159    
     53800   865.01797     -3176.935      -3226.9151      49.98012       21307.223      10112.159    
     53900   884.71703     -3175.1236     -3226.2419      51.118317      21641.361      10112.159    
     54000   960.81254     -3169.6708     -3225.1858      55.515061      23051.39       10112.159    
     54100   914.58015     -3168.5196     -3221.3634      52.843787      22862.466      10112.159    
     54200   933.86005     -3171.785      -3225.7428      53.957766      21792.74       10112.159    
     54300   897.69966     -3175.0099     -3226.8783      51.868445      21481.773      10112.159    
     54400   929.82867     -3176.2533     -3229.9781      53.724836      20706.083      10112.159    
     54500   866.79764     -3177.4369     -3227.5199      50.082948      21218.7        10112.159    
     54600   889.26461     -3173.8527     -3225.2338      51.381073      22092.111      10112.159    
     54700   932.62443     -3170.1195     -3224.0059      53.886373      23141.464      10112.159    
     54800   934.24757     -3170.9634     -3224.9435      53.980156      22356.081      10112.159    
     54900   923.2822      -3173.5632     -3226.9097      53.346585      22031.898      10112.159    
     55000   883.48315     -3176.3874     -3227.4345      51.047025      21543.992      10112.159    
     55100   880.25104     -3177.2945     -3228.1548      50.860276      21101.039      10112.159    
     55200   886.77555     -3175.3904     -3226.6277      51.237257      21681.624      10112.159    
     55300   909.3348      -3174.0081     -3226.5488      52.540714      21779.248      10112.159    
     55400   888.81569     -3175.0059     -3226.361       51.355135      22208.372      10112.159    
     55500   918.3136      -3174.4676     -3227.5271      53.059503      21122.877      10112.159    
     55600   916.25306     -3171.6329     -3224.5733      52.940447      21912.887      10112.159    
     55700   936.9328      -3168.0352     -3222.1705      54.135307      23218.284      10112.159    
     55800   898.53836     -3170.6202     -3222.5371      51.916904      23049.35       10112.159    
     55900   965.43144     -3175.1513     -3230.9332      55.781938      21047.548      10112.159    
     56000   823.63471     -3178.0767     -3225.6657      47.589025      21382.464      10112.159    
     56100   919.22888     -3175.0433     -3228.1557      53.112387      21841.273      10112.159    
     56200   902.34999     -3173.1214     -3225.2586      52.137137      22672.42       10112.159    
     56300   949.89613     -3171.7319     -3226.6162      54.884319      21698.733      10112.159    
     56400   920.46864     -3173.8375     -3227.0215      53.18402       21837.192      10112.159    
     56500   847.07572     -3178.1819     -3227.1253      48.943429      21320.75       10112.159    
     56600   896.3662      -3178.0937     -3229.8851      51.791398      21222.167      10112.159    
     56700   897.42541     -3176.3834     -3228.236       51.852599      21236.322      10112.159    
     56800   898.45079     -3171.5851     -3223.497       51.911844      22108.7        10112.159    
     56900   966.31298     -3170.1375     -3225.9704      55.832873      22194.219      10112.159    
     57000   904.98135     -3172.4172     -3224.7064      52.289175      22428.12       10112.159    
     57100   897.15963     -3175.7478     -3227.5851      51.837242      21015.977      10112.159    
     57200   843.69306     -3177.1885     -3225.9365      48.747982      21415.716      10112.159    
     57300   900.94379     -3175.011      -3227.0669      52.055888      21299.33       10112.159    
     57400   928.50637     -3173.4077     -3227.0561      53.648434      21812.03       10112.159    
     57500   862.78196     -3174.5927     -3224.4436      49.850925      21221.261      10112.159    
     57600   900.57937     -3174.0152     -3226.0501      52.034832      21557.843      10112.159    
     57700   963.59795     -3170.6938     -3226.3698      55.676         22051.781      10112.159    
     57800   886.53667     -3173.2734     -3224.4968      51.223455      21802.722      10112.159    
     57900   921.80953     -3175.5584     -3228.8199      53.261496      20913.651      10112.159    
     58000   906.05098     -3177.4574     -3229.8083      52.350978      21094.443      10112.159    
     58100   825.27109     -3178.201      -3225.8846      47.683573      21822.793      10112.159    
     58200   926.07726     -3173.4538     -3226.9618      53.508082      21531.604      10112.159    
     58300   908.01421     -3171.859      -3224.3234      52.464411      22320.301      10112.159    
     58400   980.64186     -3171.3068     -3227.9675      56.660785      21350.11       10112.159    
     58500   830.7527      -3176.6415     -3224.6418      48.000297      22435.907      10112.159    
     58600   890.61609     -3177.431      -3228.8901      51.459161      21034.033      10112.159    
     58700   867.58996     -3177.3204     -3227.4491      50.128728      20916.992      10112.159    
     58800   944.26473     -3172.2088     -3226.7677      54.558941      21693.28       10112.159    
     58900   943.95572     -3171.4017     -3225.9428      54.541086      21955.076      10112.159    
     59000   895.62672     -3173.9333     -3225.682       51.748672      22163.909      10112.159    
     59100   916.88284     -3175.919      -3228.8958      52.976835      21523.74       10112.159    
     59200   902.29793     -3178.5799     -3230.714       52.134129      20349.899      10112.159    
     59300   828.53404     -3181.6787     -3229.5508      47.872105      20557.741      10112.159    
     59400   858.35985     -3179.1471     -3228.7425      49.595418      21425.056      10112.159    
     59500   882.44653     -3174.4997     -3225.4868      50.987129      21671.436      10112.159    
     59600   949.95194     -3171.8646     -3226.7522      54.887544      22449.513      10112.159    
     59700   902.89966     -3173.8501     -3226.019       52.168897      22145.447      10112.159    
     59800   908.4021      -3176.1012     -3228.5881      52.486824      21184.655      10112.159    
     59900   928.66974     -3175.7609     -3229.4188      53.657874      20730.751      10112.159    
     60000   908.98862     -3171.8086     -3224.3293      52.520712      22838.17       10112.159    
     60100   924.63446     -3169.4116     -3222.8364      53.424718      24281.899      10112.159    
     60200   914.05184     -3172.1779     -3224.9912      52.813261      22925.351      10112.159    
     60300   903.52644     -3176.087      -3228.2921      52.205112      21773.271      10112.159    
     60400   873.48268     -3177.3517     -3227.8209      50.469204      21340.326      10112.159    
     60500   863.59469     -3176.9273     -3226.8252      49.897883      21896.617      10112.159    
     60600   918.76627     -3174.1634     -3227.249       53.085658      21882.035      10112.159    
     60700   931.0723      -3172.0047     -3225.8014      53.796692      22754.975      10112.159    
     60800   922.35911     -3172.1275     -3225.4208      53.29325       22321.272      10112.159    
     60900   887.20705     -3177.4396     -3228.7017      51.262189      20546.627      10112.159    
     61000   887.93676     -3179.1602     -3230.4646      51.304351      20383.431      10112.159    
     61100   850.00125     -3177.0882     -3226.2007      49.112464      21853.082      10112.159    
     61200   922.66206     -3173.689      -3226.9998      53.310754      22157.491      10112.159    
     61300   900.56211     -3172.3116     -3224.3454      52.033835      21618.921      10112.159    
     61400   1002.7122     -3169.1838     -3227.1198      57.935992      22683.203      10112.159    
     61500   899.58479     -3172.8688     -3224.8462      51.977366      22346.999      10112.159    
     61600   879.36336     -3175.7689     -3226.5779      50.808986      22282.701      10112.159    
     61700   898.54829     -3176.2596     -3228.177       51.917478      21735.53       10112.159    
     61800   888.74043     -3177.0452     -3228.396       51.350786      20970.391      10112.159    
     61900   931.16414     -3174.3004     -3228.1024      53.801998      21536.85       10112.159    
     62000   897.284       -3170.6203     -3222.4647      51.844428      23109.965      10112.159    
     62100   925.31589     -3170.6046     -3224.0687      53.46409       22808.503      10112.159    
     62200   909.60334     -3174.1512     -3226.7074      52.556231      20873.461      10112.159    
     62300   918.68409     -3175.1557     -3228.2366      53.08091       20950.901      10112.159    
     62400   894.54649     -3175.6208     -3227.307       51.686257      21364.951      10112.159    
     62500   864.92557     -3175.4146     -3225.3894      49.974781      21842.121      10112.159    
     62600   929.28566     -3172.2945     -3225.988       53.693461      22122.66       10112.159    
     62700   941.77509     -3169.9331     -3224.3482      54.415091      21780.539      10112.159    
     62800   957.95591     -3170.5332     -3225.8832      55.350007      22170.106      10112.159    
     62900   882.7114      -3176.2593     -3227.2618      51.002434      21097.418      10112.159    
     63000   885.93893     -3178.3381     -3229.527       51.188918      20703.012      10112.159    
     63100   873.14259     -3177.7432     -3228.1928      50.449554      20916.378      10112.159    
     63200   919.53972     -3173.413      -3226.5433      53.130347      21954.221      10112.159    
     63300   898.34998     -3172.011      -3223.917       51.906019      22720.044      10112.159    
     63400   920.77492     -3172.6273     -3225.829       53.201716      22506.379      10112.159    
     63500   903.64268     -3175.1475     -3227.3593      52.211828      21564.916      10112.159    
     63600   898.47275     -3175.8968     -3227.8099      51.913113      21599.608      10112.159    
     63700   891.22545     -3175.944      -3227.4384      51.494369      21994.612      10112.159    
     63800   879.27753     -3175.3453     -3226.1493      50.804027      22166.112      10112.159    
     63900   929.94438     -3173.2243     -3226.9558      53.731521      22575.766      10112.159    
     64000   989.51398     -3170.0462     -3227.2196      57.17341       22285.135      10112.159    
     64100   878.12763     -3169.6794     -3220.417       50.737586      23754.446      10112.159    
     64200   932.49614     -3172.851      -3226.7299      53.87896       22722.535      10112.159    
     64300   865.88605     -3177.6279     -3227.6582      50.030277      21517.04       10112.159    
     64400   900.78119     -3177.2409     -3229.2874      52.046493      20843.678      10112.159    
     64500   896.90281     -3174.2884     -3226.1108      51.822403      22365.887      10112.159    
     64600   897.46802     -3172.5443     -3224.3993      51.85506       22502.851      10112.159    
     64700   949.00124     -3172.6125     -3227.4451      54.832613      22453.749      10112.159    
     64800   878.08045     -3176.0499     -3226.7848      50.734861      21880.14       10112.159    
     64900   878.9564      -3178.2664     -3229.0519      50.785472      21718.011      10112.159    
     65000   879.74124     -3177.4998     -3228.3306      50.83082       21378.717      10112.159    
     65100   915.84007     -3175.4412     -3228.3578      52.916585      21586.636      10112.159    
     65200   891.782       -3173.6717     -3225.1982      51.526526      22072.356      10112.159    
     65300   939.63331     -3171.1136     -3225.4049      54.29134       23067.254      10112.159    
     65400   913.58366     -3171.0935     -3223.8797      52.78621       22689.931      10112.159    
     65500   902.33233     -3175.1867     -3227.3228      52.136116      21994.563      10112.159    
     65600   857.73931     -3178.314      -3227.8736      49.559564      21494.008      10112.159    
     65700   923.93592     -3176.5675     -3229.9519      53.384357      21385.999      10112.159    
     65800   896.50564     -3173.7983     -3225.5977      51.799455      22385.393      10112.159    
     65900   895.55503     -3171.7525     -3223.497       51.744529      22450.037      10112.159    
     66000   954.43399     -3170.1982     -3225.3447      55.146513      22684.535      10112.159    
     66100   949.59641     -3169.1643     -3224.0313      54.867002      22973.317      10112.159    
     66200   869.30116     -3173.8652     -3224.0928      50.227599      22567.022      10112.159    
     66300   931.01611     -3174.5897     -3228.3832      53.793445      21927.399      10112.159    
     66400   910.94497     -3175.5286     -3228.1623      52.633749      21484.754      10112.159    
     66500   835.57666     -3178.7616     -3227.0406      48.279022      22016.47       10112.159    
     66600   887.86635     -3180.33       -3231.6303      51.300283      20437.849      10112.159    
     66700   862.32453     -3179.9216     -3229.746       49.824495      20869.154      10112.159    
     66800   893.15173     -3174.6248     -3226.2304      51.605668      22332.561      10112.159    
     66900   919.55887     -3172.3968     -3225.5283      53.131454      22716.62       10112.159    
     67000   905.95779     -3173.1757     -3225.5212      52.345593      22692.686      10112.159    
     67100   882.21096     -3175.7493     -3226.7229      50.973519      22383.481      10112.159    
     67200   872.64937     -3179.9926     -3230.4137      50.421057      20844.285      10112.159    
     67300   810.08115     -3181.9492     -3228.7551      46.80591       21267.193      10112.159    
     67400   901.52913     -3179.253      -3231.3427      52.089708      20841.569      10112.159    
     67500   881.17296     -3176.8013     -3227.7148      50.913543      21632.308      10112.159    
     67600   934.53916     -3173.5023     -3227.4993      53.997004      22174.365      10112.159    
     67700   906.2679      -3173.4233     -3225.7868      52.363511      22587.872      10112.159    
     67800   842.94508     -3175.4735     -3224.1783      48.704764      22747.846      10112.159    
     67900   903.64672     -3177.8115     -3230.0235      52.212061      21563.434      10112.159    
     68000   890.46834     -3181.2174     -3232.6681      51.450624      20742.675      10112.159    
     68100   774.08658     -3181.4163     -3226.1425      44.726169      21335.804      10112.159    
     68200   923.36547     -3175.991      -3229.3424      53.351397      21848.239      10112.159    
     68300   904.77932     -3174.162      -3226.4395      52.277502      22757.313      10112.159    
     68400   896.40096     -3173.126      -3224.9194      51.793406      23210.882      10112.159    
     68500   899.03397     -3174.8934     -3226.8389      51.94554       21858.728      10112.159    
     68600   834.27883     -3178.0748     -3226.2788      48.204034      22130.245      10112.159    
     68700   949.86992     -3176.4108     -3231.2936      54.882805      21400.997      10112.159    
     68800   894.35633     -3172.3774     -3224.0527      51.675269      22978.929      10112.159    
     68900   968.5685      -3167.8084     -3223.7716      55.963195      23302.133      10112.159    
     69000   931.02648     -3170.9409     -3224.7349      53.794044      22489.889      10112.159    
     69100   883.26097     -3174.0702     -3225.1044      51.034187      22737.147      10112.159    
     69200   928.81125     -3174.6361     -3228.3022      53.66605       22220.672      10112.159    
     69300   812.37793     -3178.2243     -3225.1629      46.938616      21920.94       10112.159    
     69400   954.14658     -3177.1789     -3232.3088      55.129907      20502.278      10112.159    
     69500   873.64546     -3176.2906     -3226.7692      50.47861       21883.506      10112.159    
     69600   963.39341     -3170.016      -3225.6802      55.664182      22557.629      10112.159    
     69700   940.76154     -3167.791      -3222.1475      54.356529      23187.982      10112.159    
     69800   918.9658      -3170.3706     -3223.4677      53.097186      23403.593      10112.159    
     69900   928.10634     -3174.7701     -3228.3954      53.62532       21665.202      10112.159    
     70000   883.23087     -3176.9078     -3227.9403      51.032448      21995.474      10112.159    
     70100   905.43908     -3176.5916     -3228.9073      52.315622      21215.857      10112.159    
     70200   933.54368     -3175.0561     -3228.9956      53.939486      21489.811      10112.159    
     70300   936.9069      -3170.3843     -3224.5182      54.133811      22755.553      10112.159    
     70400   941.46582     -3169.4618     -3223.859       54.397222      23560.154      10112.159    
     70500   903.73931     -3172.8454     -3225.0628      52.217411      22784.432      10112.159    
     70600   936.74183     -3174.5746     -3228.6989      54.124273      21637.518      10112.159    
     70700   867.50116     -3176.5188     -3226.6424      50.123596      21945.765      10112.159    
     70800   904.58452     -3176.1492     -3228.4155      52.266247      21503.363      10112.159    
     70900   902.1498      -3175.5232     -3227.6488      52.12557       22055.182      10112.159    
     71000   913.20843     -3171.4356     -3224.2001      52.76453       22679.336      10112.159    
     71100   934.25655     -3167.9322     -3221.9128      53.980675      23984.496      10112.159    
     71200   944.10659     -3171.3415     -3225.8913      54.549803      23296.934      10112.159    
     71300   917.60646     -3174.8765     -3227.8951      53.018645      21745.109      10112.159    
     71400   826.60841     -3177.2044     -3224.9653      47.760843      22396.174      10112.159    
     71500   891.08747     -3176.3151     -3227.8015      51.486397      22095.817      10112.159    
     71600   867.41288     -3174.9153     -3225.0338      50.118496      21918.294      10112.159    
     71700   986.43324     -3169.7209     -3226.7163      56.995407      22472.343      10112.159    
     71800   950.73295     -3170.2502     -3225.1829      54.93267       22275.556      10112.159    
     71900   899.14432     -3174.226      -3226.1779      51.951916      22203.041      10112.159    
     72000   860.95342     -3176.9679     -3226.7132      49.745273      21324.41       10112.159    
     72100   867.39224     -3175.7214     -3225.8387      50.117303      21852.121      10112.159    
     72200   945.29789     -3173.6525     -3228.2712      54.618636      21214.452      10112.159    
     72300   928.21034     -3174.4718     -3228.1031      53.63133       20717.148      10112.159    
     72400   902.16318     -3174.7186     -3226.8449      52.126343      21594.059      10112.159    
     72500   842.88166     -3175.011      -3223.7121      48.701099      21905.187      10112.159    
     72600   885.50754     -3176.228      -3227.3919      51.163992      21247.244      10112.159    
     72700   933.03143     -3176.7594     -3230.6693      53.909889      20229.167      10112.159    
     72800   873.85263     -3177.7119     -3228.2025      50.49058       20429.622      10112.159    
     72900   871.8418      -3176.2888     -3226.6632      50.374396      21655.899      10112.159    
     73000   908.63634     -3172.5314     -3225.0317      52.500358      21849.07       10112.159    
     73100   911.64701     -3170.8767     -3223.551       52.674312      22986.46       10112.159    
     73200   917.50726     -3172.2082     -3225.2211      53.012913      21972.837      10112.159    
     73300   886.61687     -3178.1649     -3229.393       51.228089      21271.565      10112.159    
     73400   849.32541     -3178.3669     -3227.4403      49.073415      21305.924      10112.159    
     73500   940.10637     -3175.0643     -3229.3829      54.318674      21500.596      10112.159    
     73600   931.26009     -3173.7622     -3227.5697      53.807542      22038.836      10112.159    
     73700   930.45905     -3173.1417     -3226.903       53.761258      21777.496      10112.159    
     73800   881.83715     -3173.8098     -3224.7617      50.95192       22839.618      10112.159    
     73900   914.89824     -3174.8841     -3227.7462      52.862166      22051.119      10112.159    
     74000   891.75254     -3176.6175     -3228.1424      51.524824      21490.037      10112.159    
     74100   867.5294      -3178.1381     -3228.2634      50.125228      21269.43       10112.159    
     74200   865.56589     -3178.0337     -3228.0455      50.011778      21453.338      10112.159    
     74300   947.37602     -3173.6967     -3228.4354      54.738709      22404.343      10112.159    
[...]
     81800   907.02772     -3177.9292     -3230.3366      52.407413      20657.07       10112.159    
     81900   884.41734     -3178.1166     -3229.2176      51.101001      20190.645      10112.159    
     82000   896.65611     -3174.4943     -3226.3025      51.808149      21407.901      10112.159    
     82100   951.18614     -3168.3549     -3223.3137      54.958855      22811.521      10112.159    
     82200   949.17537     -3170.3376     -3225.1803      54.842674      22817.853      10112.159    
     82300   925.21342     -3174.044      -3227.5021      53.45817       20811.172      10112.159    
     82400   851.05009     -3176.9849     -3226.158       49.173065      21356.221      10112.159    
     82500   897.35667     -3177.1482     -3228.9968      51.848626      21305.738      10112.159    
     82600   867.25009     -3176.3464     -3226.4555      50.10909       21314.194      10112.159    
     82700   940.0616      -3171.9193     -3226.2354      54.316087      22275.684      10112.159    
     82800   863.462       -3171.4133     -3221.3036      49.890217      22390.76       10112.159    
     82900   968.81406     -3169.3899     -3225.3673      55.977383      22667.168      10112.159    
     83000   888.74754     -3172.7082     -3224.0594      51.351197      22661.08       10112.159    
     83100   869.86395     -3177.2289     -3227.489       50.260117      21515.076      10112.159    
     83200   890.49939     -3177.5411     -3228.9935      51.452418      21302.552      10112.159    
     83300   932.47866     -3175.616      -3229.4939      53.87795       20547.288      10112.159    
     83400   878.87934     -3172.5423     -3223.3234      50.78102       22948.072      10112.159    
     83500   942.82598     -3169.0683     -3223.5441      54.475811      22837.948      10112.159    
     83600   964.49955     -3171.0416     -3226.7697      55.728094      22133.126      10112.159    
     83700   843.65052     -3174.0467     -3222.7922      48.745524      22476.603      10112.159    
     83800   916.79107     -3174.0827     -3227.0542      52.971532      22036.591      10112.159    
     83900   905.51349     -3174.559      -3226.8789      52.319922      21019.154      10112.159    
     84000   875.37256     -3175.92       -3226.4984      50.5784        21735.59       10112.159    
     84100   861.68059     -3179.9828     -3229.7701      49.787288      20522.223      10112.159    
     84200   862.40785     -3179.4881     -3229.3174      49.829309      20549.208      10112.159    
     84300   892.18386     -3175.7343     -3227.2841      51.549745      21563.408      10112.159    
     84400   900.38574     -3172.5033     -3224.5269      52.023644      22356.678      10112.159    
     84500   919.74147     -3172.6047     -3225.7467      53.142004      21556.861      10112.159    
     84600   897.7779      -3174.6367     -3226.5097      51.872965      21191.644      10112.159    
     84700   902.42921     -3176.7008     -3228.8426      52.141715      20638.323      10112.159    
     84800   879.85237     -3179.6551     -3230.4924      50.83724       20159.196      10112.159    
     84900   829.17478     -3181.4355     -3229.3446      47.909126      20175.925      10112.159    
     85000   899.5105      -3176.6206     -3228.5937      51.973073      21383.421      10112.159    
     85100   907.47702     -3172.8384     -3225.2718      52.433373      21213.048      10112.159    
     85200   960.43981     -3170.8266     -3226.3201      55.493525      22152.847      10112.159    
     85300   887.69395     -3173.8259     -3225.1162      51.290321      22523.006      10112.159    
     85400   887.59119     -3176.3405     -3227.6249      51.284384      21289.025      10112.159    
     85500   889.10763     -3175.5076     -3226.8796      51.372003      21773.339      10112.159    
     85600   929.04115     -3174.6065     -3228.2859      53.679333      21539.163      10112.159    
     85700   882.52652     -3175.5452     -3226.537       50.991751      21804.85       10112.159    
     85800   836.4877      -3176.0123     -3224.344       48.331661      22176.207      10112.159    
     85900   896.3742      -3174.9683     -3226.7602      51.79186       21483.371      10112.159    
     86000   943.42099     -3173.1702     -3227.6804      54.51019       21523.848      10112.159    
     86100   887.53167     -3173.2834     -3224.5644      51.280945      21927.621      10112.159    
     86200   911.52314     -3173.0504     -3225.7175      52.667155      21980.543      10112.159    
     86300   849.33743     -3176.2088     -3225.2829      49.074109      21441.736      10112.159    
     86400   869.59683     -3178.028      -3228.2727      50.244683      21102.076      10112.159    
     86500   964.52405     -3175.35       -3231.0795      55.72951       21132.204      10112.159    
     86600   883.77765     -3172.3277     -3223.3917      51.064041      22837.812      10112.159    
     86700   921.67483     -3167.3843     -3220.638       53.253713      23964.707      10112.159    
     86800   949.35634     -3166.3537     -3221.2069      54.85313       23357.811      10112.159    
     86900   912.87035     -3171.1631     -3223.9081      52.744996      22240.084      10112.159    
     87000   944.79041     -3173.4918     -3228.0811      54.589314      21669.629      10112.159    
     87100   880.19308     -3176.8935     -3227.7504      50.856927      20776.615      10112.159    
     87200   899.0675      -3176.7024     -3228.6498      51.947477      21453.423      10112.159    
     87300   880.49565     -3174.4816     -3225.3561      50.874409      23188.569      10112.159    
     87400   938.64563     -3171.5032     -3225.7374      54.234273      22594.903      10112.159    
     87500   946.96885     -3171.1783     -3225.8935      54.715183      22268.885      10112.159    
     87600   878.43709     -3175.2713     -3226.0267      50.755467      22076.078      10112.159    
     87700   879.9232      -3178.68       -3229.5213      50.841333      21721.387      10112.159    
     87800   878.97895     -3179.1905     -3229.9772      50.786775      20696.032      10112.159    
     87900   845.31621     -3175.6651     -3224.5069      48.841766      21640.294      10112.159    
     88000   949.31171     -3172.0084     -3226.859       54.850552      22068.091      10112.159    
     88100   888.04051     -3173.9353     -3225.2456      51.310346      22022.944      10112.159    
     88200   870.05088     -3174.7793     -3225.0502      50.270918      22512.536      10112.159    
     88300   894.52644     -3177.1513     -3228.8364      51.685098      21431.303      10112.159    
     88400   899.69374     -3177.8948     -3229.8784      51.983661      21176.294      10112.159    
     88500   892.4155      -3176.6558     -3228.219       51.56313       21614.832      10112.159    
     88600   841.29645     -3175.3943     -3224.0038      48.609507      22444.565      10112.159    
     88700   951.9592      -3170.3658     -3225.3693      55.003522      23286.084      10112.159    
     88800   954.81849     -3171.2149     -3226.3836      55.16873       22204.336      10112.159    
     88900   906.60478     -3173.9154     -3226.2984      52.382976      21979.406      10112.159    
     89000   889.99796     -3176.2383     -3227.6617      51.423446      21432.615      10112.159    
     89100   876.02941     -3177.1874     -3227.8037      50.616353      21731.171      10112.159    
     89200   947.71288     -3173.5158     -3228.274       54.758173      22102.165      10112.159    
     89300   961.66981     -3169.3807     -3224.9453      55.564594      21948.26       10112.159    
     89400   963.45722     -3169.1861     -3224.854       55.667869      22686.011      10112.159    
     89500   931.80728     -3173.6938     -3227.533       53.839158      22128.614      10112.159    
     89600   847.83183     -3177.1384     -3226.1255      48.987117      21721.723      10112.159    
     89700   930.157       -3176.8361     -3230.5799      53.743806      21344.553      10112.159    
     89800   864.95691     -3177.6382     -3227.6148      49.976591      20685.138      10112.159    
     89900   897.51308     -3173.4482     -3225.3058      51.857664      22134.491      10112.159    
     90000   901.17656     -3171.5431     -3223.6125      52.069337      22656.129      10112.159    
     90100   911.11144     -3172.2214     -3224.8648      52.643368      22413.136      10112.159    
     90200   913.71147     -3175.5486     -3228.3422      52.793595      21645.363      10112.159    
     90300   873.62294     -3178.435      -3228.9123      50.477308      20273.809      10112.159    
     90400   913.99064     -3176.2965     -3229.1062      52.809725      20995.749      10112.159    
     90500   878.65117     -3175.8471     -3226.6149      50.767836      21873.676      10112.159    
     90600   870.39136     -3175.7925     -3226.0831      50.29059       21791.59       10112.159    
     90700   973.54849     -3171.6497     -3227.9007      56.250936      22331.322      10112.159    
     90800   923.13493     -3169.8419     -3223.18        53.338076      22495.771      10112.159    
     90900   935.72437     -3171.0344     -3225.0998      54.065485      22776.711      10112.159    
     91000   860.8804      -3177.5558     -3227.2968      49.741054      21861.763      10112.159    
     91100   889.78326     -3178.8325     -3230.2436      51.411041      20651.666      10112.159    
     91200   870.18862     -3177.7771     -3228.056       50.278876      20917.89       10112.159    
     91300   902.72699     -3173.467      -3225.626       52.15892       22723.244      10112.159    
     91400   913.99023     -3172.6308     -3225.4405      52.809702      22042.553      10112.159    
     91500   917.55362     -3173.9414     -3226.957       53.015592      21562.157      10112.159    
     91600   865.42939     -3177.9924     -3227.9963      50.003891      21257.517      10112.159    
     91700   876.06618     -3179.2551     -3229.8736      50.618477      20307.564      10112.159    
     91800   866.69069     -3178.083      -3228.1597      50.076768      21105.15       10112.159    
     91900   837.78606     -3177.4719     -3225.8785      48.406679      21356.758      10112.159    
     92000   927.63898     -3173.7682     -3227.3666      53.598317      21647.981      10112.159    
     92100   921.51432     -3172.0959     -3225.3403      53.244439      21995.902      10112.159    
     92200   937.22973     -3172.3989     -3226.5514      54.152463      21711.189      10112.159    
     92300   829.31726     -3177.5024     -3225.4197      47.917358      21184.275      10112.159    
     92400   894.53171     -3178.7529     -3230.4383      51.685402      20410.596      10112.159    
     92500   858.40908     -3177.8399     -3227.4382      49.598263      20761.606      10112.159    
     92600   908.75583     -3174.8996     -3227.4068      52.507262      21433.023      10112.159    
     92700   933.00923     -3173.6564     -3227.565       53.908606      21864.976      10112.159    
     92800   892.3247      -3174.098      -3225.6559      51.557883      22227.423      10112.159    
     92900   902.69269     -3175.2028     -3227.3597      52.156938      21573.84       10112.159    
     93000   843.6306      -3179.8964     -3228.6408      48.744373      20630.436      10112.159    
     93100   832.7831      -3181.0789     -3229.1965      48.117612      20322.062      10112.159    
     93200   884.8799      -3176.586      -3227.7137      51.127727      21411.59       10112.159    
     93300   884.16003     -3174.6819     -3225.768       51.086134      21619.359      10112.159    
     93400   901.93935     -3173.8363     -3225.9497      52.113411      21977.471      10112.159    
     93500   877.70787     -3173.4074     -3224.1208      50.713333      22589.344      10112.159    
     93600   930.72839     -3173.3047     -3227.0815      53.776821      21926.764      10112.159    
     93700   904.22978     -3176.2918     -3228.5375      52.24575       20877.942      10112.159    
     93800   843.38091     -3178.9379     -3227.6679      48.729946      20797.178      10112.159    
     93900   892.82536     -3177.7129     -3229.2997      51.586811      20634.823      10112.159    
     94000   948.07583     -3172.3597     -3227.1388      54.779143      21929.281      10112.159    
     94100   905.32509     -3170.8194     -3223.1284      52.309036      21967.923      10112.159    
     94200   936.25354     -3171.7132     -3225.8093      54.09606       21866.436      10112.159    
     94300   911.94825     -3175.6843     -3228.376       52.691718      20842.695      10112.159    
     94400   874.59205     -3177.3629     -3227.8962      50.533303      21402.44       10112.159    
     94500   890.56563     -3176.9826     -3228.4388      51.456245      21575.912      10112.159    
     94600   912.64916     -3175.5439     -3228.2761      52.732216      20948.311      10112.159    
     94700   945.82937     -3172.8378     -3227.4871      54.649345      22182.42       10112.159    
     94800   886.6858      -3171.6436     -3222.8757      51.232071      23120.989      10112.159    
     94900   947.89893     -3170.1467     -3224.9157      54.768923      23186.337      10112.159    
     95000   900.84828     -3172.3815     -3224.4319      52.050369      22456.312      10112.159    
     95100   933.67377     -3175.2067     -3229.1537      53.947003      21507.198      10112.159    
     95200   907.74844     -3178.2736     -3230.7226      52.449055      20404.96       10112.159    
     95300   831.70314     -3179.0004     -3227.0556      48.055213      21577.953      10112.159    
     95400   898.41398     -3175.1416     -3227.0514      51.909717      22311.662      10112.159    
     95500   922.94592     -3173.0073     -3226.3344      53.327155      21825.581      10112.159    
     95600   899.4858      -3173.6736     -3225.6452      51.971646      22024.427      10112.159    
     95700   918.26327     -3173.8779     -3226.9345      53.056595      21553.372      10112.159    
     95800   913.71888     -3175.6472     -3228.4412      52.794023      21356.506      10112.159    
     95900   863.50095     -3179.4145     -3229.307       49.892468      20714.231      10112.159    
     96000   841.11343     -3179.0607     -3227.6596      48.598933      20869.721      10112.159    
     96100   912.96633     -3173.3867     -3226.1372      52.750542      22214.021      10112.159    
     96200   928.15094     -3172.1053     -3225.7332      53.627897      22313.629      10112.159    
     96300   912.89383     -3174.3349     -3227.0812      52.746353      22066.624      10112.159    
     96400   861.81211     -3177.3892     -3227.184       49.794887      20654.207      10112.159    
     96500   906.07142     -3176.2333     -3228.5855      52.352159      21711.705      10112.159    
     96600   892.50115     -3175.1635     -3226.7316      51.568078      21870.912      10112.159    
     96700   904.62163     -3174.8758     -3227.1442      52.268391      21625.321      10112.159    
     96800   929.00286     -3174.6155     -3228.2927      53.677121      21455.04       10112.159    
     96900   824.10802     -3178.5685     -3226.1848      47.616372      21349.717      10112.159    
     97000   841.77673     -3181.8758     -3230.513       48.637257      20295.45       10112.159    
     97100   855.70607     -3179.3661     -3228.8082      49.442085      20376.292      10112.159    
     97200   924.00455     -3174.7049     -3228.0932      53.388322      20809.178      10112.159    
     97300   910.78829     -3172.5474     -3225.1721      52.624696      21982.424      10112.159    
     97400   913.93604     -3172.0856     -3224.8922      52.806571      21985.09       10112.159    
     97500   896.98022     -3174.3033     -3226.1302      51.826876      22112.133      10112.159    
     97600   848.847       -3179.0671     -3228.1129      49.045773      20878.42       10112.159    
     97700   890.27789     -3180.1421     -3231.5817      51.43962       20591.136      10112.159    
     97800   884.85846     -3178.1171     -3229.2436      51.126489      20463.053      10112.159    
     97900   883.22829     -3175.1291     -3226.1614      51.032299      22159.723      10112.159    
     98000   891.88041     -3175.2414     -3226.7736      51.532212      22230.303      10112.159    
     98100   949.55486     -3175.1683     -3230.0329      54.864601      21317.016      10112.159    
     98200   882.36277     -3175.8051     -3226.7874      50.98229       21707.383      10112.159    
     98300   933.47238     -3175.3034     -3229.2388      53.935366      20678.023      10112.159    
     98400   853.7753      -3175.0408     -3224.3714      49.330526      22371.08       10112.159    
     98500   932.10941     -3171.5715     -3225.4281      53.856615      22199.809      10112.159    
     98600   937.642       -3172.1665     -3226.3428      54.176284      21530.216      10112.159    
     98700   876.58039     -3176.1089     -3226.7571      50.648188      20768.452      10112.159    
     98800   870.52546     -3178.9202     -3229.2186      50.298338      20749.078      10112.159    
     98900   817.07395     -3181.4819     -3228.6918      47.209949      20052.739      10112.159    
     99000   850.24984     -3181.8849     -3231.0117      49.126827      20294.296      10112.159    
     99100   886.68327     -3177.1948     -3228.4267      51.231925      20596.873      10112.159    
     99200   920.0355      -3173.4125     -3226.5715      53.158993      21672.272      10112.159    
     99300   860.0021      -3172.8306     -3222.5209      49.690306      22642.452      10112.159    
     99400   895.80099     -3172.8979     -3224.6567      51.758741      21816.411      10112.159    
     99500   956.04491     -3175.1683     -3230.4079      55.239591      20171.305      10112.159    
     99600   871.40638     -3179.0397     -3229.3889      50.349237      20420.025      10112.159    
     99700   873.31031     -3179.1424     -3229.6016      50.459245      20910.338      10112.159    
     99800   892.72482     -3175.3094     -3226.8904      51.581002      21956.116      10112.159    
     99900   912.28324     -3172.0346     -3224.7457      52.711073      21271.786      10112.159    
    100000   934.81885     -3171.599      -3225.6122      54.013165      21812.639      10112.159    
Loop time of 1500.89 on 10 procs for 100000 steps with 448 atoms

Performance: 5.757 ns/day, 4.169 hours/ns, 66.627 timesteps/s, 29.849 katom-step/s
99.9% CPU use with 10 MPI tasks x 1 OpenMP threads

MPI task timing breakdown:
Section |  min time  |  avg time  |  max time  |%varavg| %total
---------------------------------------------------------------
Pair    | 1167.4     | 1340.2     | 1449.7     | 320.1 | 89.29
Neigh   | 14.224     | 17.945     | 21.882     |  68.6 |  1.20
Comm    | 28.575     | 141.58     | 318.1      |1008.5 |  9.43
Output  | 0.22605    | 0.33189    | 0.37193    |   9.2 |  0.02
Modify  | 0.65463    | 0.75661    | 0.81529    |   5.5 |  0.05
Other   |            | 0.1246     |            |       |  0.01

Nlocal:           44.8 ave          48 max          40 min
Histogram: 3 1 0 0 0 0 0 0 1 5
Nghost:          683.2 ave         716 max         638 min
Histogram: 2 0 0 0 2 2 0 0 0 4
Neighs:              0 ave           0 max           0 min
Histogram: 10 0 0 0 0 0 0 0 0 0
FullNghs:       2635.6 ave        2833 max        2344 min
Histogram: 3 1 0 0 0 0 0 0 1 5

Total # of neighbors = 26356
Ave neighs/atom = 58.830357
Neighbor list builds = 100000
Dangerous builds not checked
Total wall time: 0:25:00
