(written by ASE)

97 atoms
2 atom types

0.0      12.880619210125166  xlo xhi
0.0      11.154943116692575  ylo yhi
0.0      15.046356078130312  zlo zhi
    -6.4403077717034334                       0                       0  xy xz yz

Masses

     1      178.48999995408445 # Hf
     2      15.998999995884349 # O

Atoms # atomic

     1   1      6.3697053266115136      11.114177060249855      14.980757141059884
     2   1   -0.054245175975761062      1.8755491674114855        2.58230388117815
     3   1      6.4212647004943753      11.143943131081954      5.0134668558970095
     4   1   -0.010229298483189804      1.8521586382062141      7.5456597076976486
     5   1      6.4349273298111269      11.151825437940118      10.029064308303759
     6   1   -0.016589616319327091      1.8624355296354131      12.563523144328451
     7   1      11.238083987251276      2.8007890843426924        15.0374561852699
     8   1     -1.6358064232700555      4.6509192487342119      2.5236358219967086
     9   1      11.234020067594546      2.7978830669917021      5.0486496198517816
    10   1     -1.6190836012950651       4.645822430097712      7.5417187882920294
    11   1       11.26234459182273      2.7774773161482096      10.034718698990634
    12   1      -1.621687268507997      4.6446832363986887      12.534172527632727
    13   1      9.6544347265095407      5.5739927240785647       15.04476934603391
    14   1     -3.2303972709899398        7.41284108391398      2.5236380660468321
    15   1      9.6451378030359294      5.5686235160573494      5.0351217608592176
    16   1     -3.2264512286000882      7.4298666797482884       7.541721072059854
    17   1      9.6454090943538198       5.568779093735734       10.03334976883874
    18   1     -3.2287392574652198      7.4281825561650798      12.534174543306067
    19   1      8.0445956432528813      8.3320745016009621      15.037458250590367
    20   1      -4.843155780721629      10.170191768247207      2.5823058670632149
    21   1      8.0400489725195925      8.3300035947628039      5.0486492127453424
    22   1     -4.8414043222394509       10.21999482962107       7.545657175694191
    23   1      8.0365482234644876      8.3647395478364253      10.034720804028803
    24   1     -4.8356832702710966      10.209356582513188      12.563525060707542
    25   1     -3.2442169583234426      11.147638914444681      15.044177979249813
    26   1      3.1947867051951611      1.8445115565771246      2.5266281536127297
    27   1     -3.2199143708820164      11.143733494618216      5.0277705008902354
    28   1      3.2099647638448441      1.8532658257999317      7.5360837500551154
    29   1     -3.2306400730085083      11.146475361047003      10.032456378724525
    30   1      3.2172306140766098      1.8574654962791344      12.543418093576987
    31   1      1.5917196700299499      2.7715475126797786      15.044176142306128
    32   1      1.5987484757409713      4.6399940951507253      2.5189158895271961
    33   1      1.6004900219059146      2.7945414865425491      5.0277707888435694
    34   1      1.5980050215856543      4.6414742138134333      7.5311753769517802
    35   1      1.5975073270871532      2.7838886316749236      10.032456527665905
    36   1      1.5997914202494876       4.644881770965025      12.541337680382838
    37   1  -0.0068139774965265566      5.5695449130958146      15.041290005893961
    38   1  -0.0031764796918630784      7.4347903913947171      2.5110945904221653
    39   1   -0.013619934027437046      5.5721180951597198      5.0176085780709805
    40   1   -0.009801331269689505       7.430973796821787      7.5254528604777491
    41   1  -0.0091615343802891342      5.5746916499733556      10.030416636456509
    42   1   -0.011601561582658947      7.4299306718102649      12.537980214009332
    43   1     -1.6203469039357101      8.3642702156274709      15.041287295160846
    44   1     -1.6225760656024448      10.219502366780143      2.5189180740007675
    45   1     -1.6215224167631193      8.3570906024586797      5.0176106136031722
    46   1     -1.6216728327580296      10.218117702271597      7.5311798551226001
    47   1     -1.6170651252904662      8.3596666859258999      10.030418681918126
    48   1     -1.6178268311630171      10.217964492057721      12.541329875854533
    49   1   -0.014305865010489208      11.144397694342096      15.043073757647667
    50   1      6.4251701758294182      1.8574207159397949      2.5181744394793077
    51   1  -0.0089355483479418678      11.146252315667256      5.0192632175071825
    52   1      6.4283479973692037      1.8514508066151403      7.5301540660510984
    53   1   -0.012910077430757819      11.150379511509517      10.026463970540728
    54   1      6.4307347345289916      1.8539448549185253      12.540427301021893
    55   1      4.8088795903676518      2.7764049856915261  0.00014638951757034785
    56   1      4.8211624633765817      4.6356534346042437      2.5181747472914928
    57   1       4.819426746818765      2.7824933286875586       5.019044462337841
    58   1      4.8175847115471901      4.6413869400047281      7.5301514844005135
    59   1      4.8188659598888357      2.7821659335316866      10.029290659483475
    60   1      4.8209378676215193      4.6422019321063877       12.54042494774809
    61   1      3.2038767092053488      5.5703525307973845      15.043071235573635
    62   1      3.2131846462828251       7.429066144291613       2.511185325510787
    63   1      3.2081619315259058      5.5740755047418613      5.0192559888855461
    64   1      3.2046052571333776      7.4306585210693399      7.5264887279159556
    65   1      3.2097463285883414      5.5685759955037692      10.026464347858893
    66   1      3.2032107890473434      7.4232050174425916      12.533501626151773
    67   1      1.5953452570037554      8.3576987789053785      15.043559237040094
    68   1       1.600039157828584       10.22310828723468      2.5111852857930859
    69   1      1.5987854654473128      8.3596873181272411      5.0132898440317355
    70   1       1.597127497421593      10.214889387369167       7.526490902460103
    71   1      1.5989627734506657      8.3597951939143371      10.031932522103215
    72   1      1.5899738459662203      10.217406314446601      12.533499153724868
    73   1      3.2013360251638376      11.138303971660752      15.039432518227789
    74   1      9.6434888335923645      1.8593348261072049      2.5245936143635834
    75   1      3.2052636916708979      11.153334359075306      5.0314380830754999
    76   1      9.6420198060328097      1.8552234771656824      7.5377333552726773
    77   1      3.2000630464913824       11.15044519605676      10.022512903262429
    78   1      9.6485078768014993      1.8480742682857827      12.541179564213959
    79   1       8.034667750170307      2.7793695247503276    0.001086864966677929
    80   1      8.0394209680472084      4.6415629786210646      2.5118782305982599
    81   1      8.0314833396016816      2.7827518255890453      5.0243365481534479
    82   1      8.0365211258901219      4.6398886976456266      7.5286071906679508
    83   1      8.0385254893295883      2.7852066545761089      10.035153260289993
    84   1      8.0384270760980208      4.6409835341266259      12.546959353613266
    85   1      6.4243431402978874      5.5685405742049809   0.0010846904225316964
    86   1      6.4319806035519314      7.4218416903375797      2.5245912610897814
    87   1      6.4256816939677845      5.5641004700747825      5.0243336686201028
    88   1      6.4276833129395881      7.4226237293481301       7.537738012173155
    89   1      6.4313295988649397      5.5689604112942108       10.03515558377552
    90   1      6.4247378560600543      7.4318197775227279      12.541179246472348
    91   1      4.8064148185867319      8.3582243258035369      15.039435109807799
    92   1      4.7834363889060665      10.198350411271889      2.5523661971394929
    93   1       4.821398400499624      8.3541138231046492      5.0314402874079223
    94   1       4.824454771819866       10.22202706115603      7.5400123669027561
    95   1      4.8162867316635438       8.351057134267684      10.022517867975091
    96   1      4.7882751444406892      10.201139123275015      12.512703541230307
    97   2      1.4061611613054881     0.81184750433151265      1.3201178417005741
