(written by ASE)

97 atoms
2 atom types

0.0      12.880619210125166  xlo xhi
0.0      11.154943116692575  ylo yhi
0.0      15.046356078130312  zlo zhi
    -6.4403077717034334                       0                       0  xy xz yz

Masses

     1      178.48999995408445 # Hf
     2      15.998999995884349 # O

Atoms # atomic

     1   1      6.3159252606665701      11.083127128525728      14.896550182906001
     2   1   -0.066846650709937672      2.0303311661598014      2.5824103841941888
     3   1      6.4366437921675965      11.152822251316106       5.083632186733146
     4   1  -0.0091281259066295327      1.8480028816750835       7.548030089899572
     5   1   0.0019846608563461273   0.0011366751197569925      10.039249773790459
     6   1  -0.0046767140248909055      1.8737632327800517      12.552308950660354
     7   1       11.23895696122087      2.8260210274434558      15.035050891208533
     8   1     -1.6513286449160751      4.6781105759832613      2.5266030123078065
     9   1      11.232499188559229      2.8000734653045298      5.0665694026776622
    10   1     -1.6178147913035716      4.6463759030027658      7.5424167474569916
    11   1      11.260794617687758      2.7768012992504172      10.037714198093333
    12   1     -1.6193731067634607      4.6469767755695948      12.530658593374943
    13   1     -3.2182421227607509       5.578578250975549      15.037627696233544
    14   1     -3.2146100141775333      7.3858027754667797      2.5266052464285043
    15   1      9.6454086410096682      5.5687798896067813       5.045953790805398
    16   1     -3.2253375126802823      7.4306887540948425      7.5424190312248172
    17   1      9.6471291129437002      5.5697721493914587      10.032851986888335
    18   1      -3.225595919191687      7.4290399107699834       12.53066059911886
    19   1       8.066883637920526       8.320214552137319      15.035052946599576
    20   1     -4.7154113958865231      10.081887548318123      2.5824123601498283
    21   1      8.0411854659393764      8.3275912793937419      5.0665689955712239
    22   1     -4.8444527295813016      10.223026352814017      7.5480275479666892
    23   1      8.0351877874824638      8.3637352391685429      10.037716303131502
    24   1     -4.8199167411952324      10.214009597260167      12.552310867039443
    25   1      3.2923845561587086   0.0061483355541345286      14.999013799498774
    26   1      3.2735267007255877      1.8899721037301678      2.5201082248496784
    27   1      -3.217021216924715      11.152386275170944      5.0370817400535968
    28   1      3.2112937981406908      1.8540331462332547       7.535655603164515
    29   1     -3.2290883563266783       11.14526492177772      10.026148244603663
    30   1      3.2246265640543927      1.8617355459373304      12.527084129340381
    31   1      1.6515167907074575      2.8482140729511864      14.999011972484515
    32   1      1.6184152884410847      4.6542732407419862      2.5050574601067042
    33   1      1.6094301219510636      2.7927206343281794      5.0370820280069317
    34   1      1.5994458512315688      4.6461980409350412      7.5252966408291062
    35   1      1.5972349077916217      2.7858376795739042      10.026148393545043
    36   1      1.6035376379909148       4.658478855068255      12.530036693607974
    37   1  -0.0028468314624594719      5.5740933866546456   0.0013509777509045911
    38   1    0.012831974795500124      7.4440328720966527       2.507289297037063
    39   1   -0.012831941768442335      5.5678793363303178      5.0098499435691783
    40   1   -0.011584908733856796      7.4299440505033214      7.5221450710191444
    41   1  -0.0078912032655181173      5.5746449252908228      10.027512090889788
    42   1   -0.013675823427659191      7.4287330974438683      12.533171929513275
    43   1     -1.6144242327146097      8.3654316332699334   0.0013482670177907944
    44   1     -1.6003765500891309      10.229394751750048      2.5050596445802755
    45   1      -1.624799289511927      8.3598924110739823      5.0098519890307953
    46   1      -1.616861469933768       10.21700358354774      7.5253011189999279
    47   1     -1.6164704280774449      8.3607901838389385      10.027514136351405
    48   1     -1.6041783077702156      10.214410272998345      12.530028889079666
    49   1   0.0063199193548019407      11.142828176189782      15.045348827295893
    50   1      6.4432225980652502      1.8640627937731242      2.5115582052200263
    51   1  -0.0023918959574689698      11.148916579631717      5.0151999179344289
    52   1      6.4299422883585047      1.8517145421614993      7.5295113839969217
    53   1   -0.011673273383741186       11.15191738623194      10.024646885706206
    54   1      6.4354785995779027      1.8537494433904793      12.540702385821104
    55   1      4.8285885333863297      2.7877839570356926      15.039413682107948
    56   1      4.8359408845155754      4.6479662447684458      2.5115585130322118
    57   1      4.8275662620831765      2.7871926752187055      5.0221671176612581
    58   1      4.8186102571115557      4.6426357624220156      7.5295088023463368
    59   1      4.8237960290455328      2.7850123109256715      10.027772629080896
    60   1      4.8231405775073695      4.6464079393310227      12.540700032547301
    61   1       3.212830352497043      5.5889997390775346      15.045346305221861
    62   1      3.2255707517139327      7.4548487596372883      2.5110026836613546
    63   1      3.2137410791207426      5.5784103423330809      5.0151926893127925
    64   1      3.2071951124584364      7.4318052201345735      7.5234346749921128
    65   1      3.2116965653650955       5.568878154495402      10.024647253094944
    66   1      3.2070197979144344      7.4240584229152065      12.527397879321807
    67   1      1.5909611756027775      8.3551676268922552      15.035730540513196
    68   1      1.6285606077363024      10.220943659024895      2.5110026439436526
    69   1      1.5942532814926984      8.3570706553108973      5.0154613597032434
    70   1      1.5994154960613738      10.216558913266951      7.5234368495362602
    71   1      1.6009171106103737      8.3609235375738855      10.029345867088281
    72   1      1.5926174178350285      10.220278320903189      12.527395406894902
    73   1      3.2099445786470451      11.131752703721418      15.033905144749676
    74   1      9.6599903555963351      1.8698052250185253      2.5186315802918573
    75   1      3.2176348011636375      11.146540169128661      5.0198242697557607
    76   1       9.640706054187314      1.8526972011220166       7.533888373974551
    77   1      3.1976868479977756      11.153611009896139      10.015715874026824
    78   1      9.6520997029964679      1.8456520095657794      12.541598139138545
    79   1      8.0437467249693402       2.779307114356131      15.044703821756189
    80   1      8.0431156336225342      4.6436960943670789       2.507319581784305
    81   1      8.0376100149038407       2.778768349953987      5.0245976423923748
    82   1      8.0357782557314579      4.6394598037453578      7.5275963155932883
    83   1      8.0400595356818574      2.7841367520298372      10.035396223398276
    84   1      8.0394600564013707      4.6415799236223627      12.539333207433577
    85   1      6.4288285802872522      5.5764343960075458      15.044701647212042
    86   1      6.4492989912725793      7.4308972219377996      2.5186292270180552
    87   1      6.4252952443530535      5.5713980635706841      5.0245947628590297
    88   1      6.4248386078172244      7.4227491243725963      7.5338930308750278
    89   1      6.4311700522071016      5.5708238879440675      10.035398546883803
    90   1      6.4244360201477786      7.4361415185017679      12.541597821396936
    91   1      4.8050455392827827      8.3689551861081721      15.033907736329686
    92   1      4.8243026395397779      10.221944552499297      2.5383604349060245
    93   1      4.8217000178063776      8.3682246067091732      5.0198264740881839
    94   1      4.8306444632191816       10.22560067327575      7.5402016813260069
    95   1      4.8178403016203371      8.3474163768247482      10.015720838739487
    96   1      4.7765329622758603        10.1943597727974      12.481663353380085
    97   2     0.63738962800837484     0.36799710168961453      1.6738183198060261
