ITEM: TIMESTEP
0
ITEM: NUMBER OF ATOMS
12
ITEM: BOX BOUNDS xy xz yz pp pp pp
-8.8344296827430302e-01 5.1364755065543157e+00 0.0000000000000000e+00
0.0000000000000000e+00 5.1934133375444702e+00 -8.8344296827430302e-01
0.0000000000000000e+00 5.2461598045212767e+00 0.0000000000000000e+00
ITEM: ATOMS id type x y z fx fy fz vx vy vz
   1 1    0.7762038189194449    2.3501668291581748    3.6827979808248501    1.0024797464403754   -0.2247976503771754    1.0690916956254848    0.0000000000000000    0.0000000000000000    0.0000000000000000
   2 1    3.0469099746817370    4.9441501055567114    4.1383582854866257   -0.1326897124712520    0.5508280486932010    0.8790388951899014    0.0000000000000000    0.0000000000000000    0.0000000000000000
   3 1    3.4768272330490273    2.8432475252613392    1.5633593416957141   -1.0024760559775610    0.2247982095331635   -1.0690930064951372    0.0000000000000000    0.0000000000000000    0.0000000000000000
   4 1    1.2061213570633653    0.2492642696233426    1.1077988397499436    0.1326877359215048   -0.5508283698014811   -0.8790365620884782    0.0000000000000000    0.0000000000000000    0.0000000000000000
   5 2    1.9923882927377357    3.7560995537962394    0.0946801107327303    1.5408596948474929    0.1709029161571665    0.3456783728741027    0.0000000000000000    0.0000000000000000    0.0000000000000000
   6 2    2.4156598997102234    1.2320915917164750    2.5350885021667509   -0.2378493131930816    0.1911138217932001    0.3311833481706790    0.0000000000000000    0.0000000000000000    0.0000000000000000
   7 2    2.2606429953448761    1.4373149847910920    5.1514771274669080   -1.5408598893646410   -0.1709031540777423   -0.3456784450123255    0.0000000000000000    0.0000000000000000    0.0000000000000000
   8 2    1.8373715411046627    3.9613223454047071    2.7110687546088519    0.2378499179751383   -0.1911137390359896   -0.3311831443741409    0.0000000000000000    0.0000000000000000    0.0000000000000000
   9 2   -0.0400985627356137    1.7101732621660006    1.8395909106552650    0.2594972614776547   -0.1412515919260082   -0.1545207317682304    0.0000000000000000    0.0000000000000000    0.0000000000000000
  10 2    4.6379928082576054    4.3323593692785289    0.8066572267456065   -0.5765741837483859    0.0944873084945676    0.0961014514824447    0.0000000000000000    0.0000000000000000    0.0000000000000000
  11 2    4.2931299793086213    3.4832413293659501    3.4065663976917779   -0.2594978739354600    0.1412510861645034    0.1545203120688684    0.0000000000000000    0.0000000000000000    0.0000000000000000
  12 2   -0.3849615448673520    0.8610550379485409    4.4395001680755115    0.5765726720282127   -0.0944868856174099   -0.0961021856731665    0.0000000000000000    0.0000000000000000    0.0000000000000000
