ITEM: TIMESTEP
0
ITEM: NUMBER OF ATOMS
12
ITEM: BOX BOUNDS xy xz yz pp pp pp
-8.8344296827430302e-01 5.1364755065543157e+00 0.0000000000000000e+00
0.0000000000000000e+00 5.1934133375444702e+00 -8.8344296827430302e-01
0.0000000000000000e+00 5.2461598045212767e+00 0.0000000000000000e+00
ITEM: ATOMS id type x y z fx fy fz vx vy vz
   1 1    0.7929680599999999    2.3789195900000002    3.7137930099999998   -0.0274637886802638   -0.1339493465954549    0.0865766072282806    0.0000000000000000    0.0000000000000000    0.0000000000000000
   2 1    3.0183409399999994    4.9756267799999998    4.1554425899999998    0.0274640627462443   -0.1339509225348836   -0.0865275163654185    0.0000000000000000    0.0000000000000000    0.0000000000000000
   3 1    3.4600634499999998    2.8144947700000000    1.5323642200000001    0.0274573469588166    0.1339504384886354   -0.0865751030537278    0.0000000000000000    0.0000000000000000    0.0000000000000000
   4 1    1.2346900599999999    0.2177875900000000    1.0907146500000000   -0.0274626161201987    0.1339503675258475    0.0865264315371838    0.0000000000000000    0.0000000000000000    0.0000000000000000
   5 2    1.4366105600000001    3.8562449400000003    5.1337742300000002    0.0924190586051178    0.2892948283056221    0.2739780649364108    0.0000000000000000    0.0000000000000000    0.0000000000000000
   6 2    2.3746984400000013    1.2595377600000000    2.7354618799999999   -0.0924099824031156    0.2893005611712743   -0.2739663075629122    0.0000000000000000    0.0000000000000000    0.0000000000000000
   7 2    2.8164204399999999    1.3371694199999999    0.1123830000000000   -0.0924182402622725   -0.2892947336716238   -0.2739779078554145    0.0000000000000000    0.0000000000000000    0.0000000000000000
   8 2    1.8783325600000000    3.9338766100000004    2.5106953600000006    0.0924106393772275   -0.2893010248305086    0.2739658853056292    0.0000000000000000    0.0000000000000000    0.0000000000000000
   9 2    0.0452384800000002    1.7177678800000000    1.8164965900000001   -0.2842233025627419    0.1850362140959758   -0.0115092004006533    0.0000000000000000    0.0000000000000000    0.0000000000000000
  10 2    4.6495150299999999    4.3144750600000004    0.8065822900000003    0.2842101415006428    0.1850238524084562    0.0114847643158436    0.0000000000000000    0.0000000000000000    0.0000000000000000
  11 2    4.2077925199999999    3.4756464900000004    3.4296606500000002    0.2842254159883906   -0.1850377882499801    0.0115095429538441    0.0000000000000000    0.0000000000000000    0.0000000000000000
  12 2   -0.3964840300000000    0.8789393100000001    4.4395749499999999   -0.2842087351478448   -0.1850224461133543   -0.0114852610390638    0.0000000000000000    0.0000000000000000    0.0000000000000000
ITEM: TIMESTEP
1
ITEM: NUMBER OF ATOMS
12
ITEM: BOX BOUNDS xy xz yz pp pp pp
-8.8344296827430302e-01 5.1364755065543157e+00 0.0000000000000000e+00
0.0000000000000000e+00 5.1934133375444702e+00 -8.8344296827430302e-01
0.0000000000000000e+00 5.2461598045212767e+00 0.0000000000000000e+00
ITEM: ATOMS id type x y z fx fy fz vx vy vz
   1 1    0.7929673177026889    2.3789159695876476    3.7137953500115506   -0.0275603114670422   -0.1341484310195660    0.0867686536547694   -0.0014872034609867   -0.0072462056023539    0.0046852137743415
   2 1    3.0183416823047180    4.9756231595450524    4.1554402513152882    0.0275606195303603   -0.1341500190800897   -0.0867195994146837    0.0014872191949052   -0.0072462911196393   -0.0046825610869483
   3 1    3.4600641921232027    2.8144983904418646    1.5323618800291046    0.0275538784794160    0.1341495223448043   -0.0867671512383460    0.0014868554805228    0.0072462646108607   -0.0046851325115404
   4 1    1.2346893177343812    0.2177912104399463    1.0907169886553911   -0.0275591674175586    0.1341494656780644    0.0867185139203788   -0.0014871408471551    0.0072462611612618    0.0046825024269942
   5 2    1.4366384276296362    3.8563321726688082    5.1338568441204782    0.0918210785865242    0.2879914008758080    0.2737337140843010    0.0555549470515441    0.1740723079379839    0.1651545604927124
   6 2    2.3746705751071624    1.2596249943974707    2.7353792694247878   -0.0918120318010947    0.2879971075670160   -0.2737220106598054   -0.0555494823269595    0.1740757573708021   -0.1651474862286013
   7 2    2.8163925726171231    1.3370821873597274    0.1123003859268875   -0.0918202579908893   -0.2879913065050093   -0.2737335573306616   -0.0555544528533641   -0.1740722509463226   -0.1651544658604198
   8 2    1.8783604250909398    3.9337893754627200    2.5107779704478870    0.0918126924515244   -0.2879975709615362    0.2737215902004600    0.0555498796375714   -0.1740760369104455    0.1651472321195978
   9 2    0.0451527765763849    1.7178236749925213    1.8164931195671801   -0.2828893099782364    0.1835879372313420   -0.0118394019540640   -0.1710046010723777    0.1111532781133781   -0.0070404331396835
  10 2    4.6496007294550878    4.3145308512650340    0.8065857530644724    0.2828762382544707    0.1835756836754227    0.0118150769914371    0.1709966909554405    0.1111458557429503    0.0070257299514977
  11 2    4.2078782240608881    3.4755906945328157    3.4296641205361120    0.2828914128096665   -0.1835894999705646    0.0118397425684512    0.1710058724236823   -0.1111542239981337    0.0070406391389799
  12 2   -0.3965697290310222    0.8788835191590149    4.4395714867857476   -0.2828748414571400   -0.1835742898356902   -0.0118155708222323   -0.1709958457060863   -0.1111450114028145   -0.0070260286387257
ITEM: TIMESTEP
2
ITEM: NUMBER OF ATOMS
12
ITEM: BOX BOUNDS xy xz yz pp pp pp
-8.8344296827430302e-01 5.1364755065543157e+00 0.0000000000000000e+00
0.0000000000000000e+00 5.1934133375444702e+00 -8.8344296827430302e-01
0.0000000000000000e+00 5.2461598045212767e+00 0.0000000000000000e+00
ITEM: ATOMS id type x y z fx fy fz vx vy vz
   1 1    0.7929650855930779    2.3789050975887953    3.7138023804275484   -0.0278448486893432   -0.1347428589702737    0.0873386870980860   -0.0029847062955720   -0.0145138584314140    0.0093910252107419
   2 1    3.0183439144383892    4.9756122874177606    4.1554332248778261    0.0278452583752443   -0.1347444827140037   -0.0872897425878809    0.0029847414289740   -0.0145140307580501   -0.0093857237916072
   3 1    3.4600664237109608    2.8145092625292221    1.5323548497349770    0.0278384418472583    0.1347439485002395   -0.0873371899242118    0.0029840112773713    0.0145139763845541   -0.0093908628743555
   4 1    1.2346870857183057    0.2178020825223225    1.0907240150048541   -0.0278437898732782    0.1347439341652081    0.0872886551303116   -0.0029845841422066    0.0145139710159038    0.0093856064006326
   5 2    1.4367216698941032    3.8565930846158762    5.1341045391209859    0.0900338764645290    0.2840929470992944    0.2730026980824922    0.1103906769468892    0.3465760638796926    0.3300150132261100
   6 2    2.3745873410353471    1.2598859115147414    2.7351315850275428   -0.0900249176127943    0.2840985755077337   -0.2729911559321120   -0.1103797828829948    0.3465829312477682   -0.3300009295953045
   7 2    2.8163093310942928    1.3368212754981075    0.1120526910682792   -0.0900330491939204   -0.2840928535214658   -0.2730025423609845   -0.1103896858584913   -0.3465759502148428   -0.3300148243714590
   8 2    1.8784436597592751    3.9335284579261796    2.5110256544642398    0.0900255891905833   -0.2840990380953025    0.2729907408773198    0.1103805819077461   -0.3465834900039097    0.3300004235491043
   9 2    0.0448964707978555    1.7179901865562268    1.8164825091337207   -0.2789042689227053    0.1792633828338759   -0.0128222650110499   -0.3404053245275225    0.2205658425039377   -0.0144768019099944
  10 2    4.6498570233819114    4.3146973517114864    0.8065963414599032    0.2788914640445001    0.1792514519373842    0.0127982727044916    0.3403896116957464    0.2205511276618821    0.0144475293485320
  11 2    4.2081345317448475    3.4754241815520039    3.4296747312782783    0.2789063401063006   -0.1792649114938998    0.0128225998312943    0.3404078544926517   -0.2205677205553974    0.0144772115768290
  12 2   -0.3968260216914122    0.8787170199771945    4.4395608979427221   -0.2788900957363838   -0.1792500952487930   -0.0127987579077607   -0.3403879326688613   -0.2205494539397359   -0.0144481232493136
ITEM: TIMESTEP
3
ITEM: NUMBER OF ATOMS
12
ITEM: BOX BOUNDS xy xz yz pp pp pp
-8.8344296827430302e-01 5.1364755065543157e+00 0.0000000000000000e+00
0.0000000000000000e+00 5.1934133375444702e+00 -8.8344296827430302e-01
0.0000000000000000e+00 5.2461598045212767e+00 0.0000000000000000e+00
ITEM: ATOMS id type x y z fx fy fz vx vy vz
   1 1    0.7929613482900978    2.3788869418707850    3.7138141320619718   -0.0283025337508502   -0.1357242407090329    0.0882685459242210   -0.0045022700770214   -0.0218241025907777    0.0141373760647476
   2 1    3.0183476517875758    4.9755941314835361    4.1554214798677043    0.0283031115833744   -0.1357259216878654   -0.0882197838474253    0.0045023319012882   -0.0218243642381808   -0.0141294338105251
   3 1    3.4600701601457571    2.8145274183946336    1.5323430983033559    0.0282961703004719    0.1357253269420693   -0.0882670573825330    0.0045012299005519    0.0218242793509180   -0.0141371330297855
   4 1    1.2346833485660968    0.2178202383819781    1.0907357598681924   -0.0283016159981937    0.1357253813372159    0.0882186932346828   -0.0045020945005226    0.0218242750650212    0.0141292575501879
   5 2    1.4368592089835299    3.8570253247965680    5.1345168741469305    0.0870776025773683    0.2776348405619303    0.2717910542656321    0.1637960802991378    0.5159569489386299    0.4942896850053117
   6 2    2.3744498155413964    1.2603181602599662    2.7347192675655974   -0.0870687892249202    0.2776403392782046   -0.2717797789355851   -0.1637798272842710    0.5159671715301314   -0.4942687210934973
   7 2    2.8161717932454060    1.3363890354592978    0.1116403562781446   -0.0870767644463914   -0.2776347483291969   -0.2717909002872730   -0.1637945870329935   -0.5159567792452940   -0.4942894027651478
   8 2    1.8785811862547552    3.9330962084827119    2.5114379712949852    0.0870694787159588   -0.2776408004738522    0.2717793728046592    0.1637810367196299   -0.5159680088397328    0.4942679674306281
   9 2    0.0444719659273298    1.7182648066775292    1.8164641659633600   -0.2723187175955877    0.1721230745054738   -0.0144347322226066   -0.5066186388270245    0.3265213434587145   -0.0226957549632304
  10 2    4.6502815086784794    4.3149719535203577    0.8066146481231695    0.2723063535610705    0.1721116756124276    0.0144112919199520    0.5065953366738609    0.3264995938562518    0.0226521797849034
  11 2    4.2085590397698738    3.4751495590917050    3.4296930749592658    0.2723207364698463   -0.1721245468902852    0.0144350574219452    0.5066224020899084   -0.3265241264318133    0.0226963636494185
  12 2   -0.3972505048963599    0.8784424202511354    4.4395425905392489   -0.2723050321921527   -0.1721103801470925   -0.0144117628956711   -0.5065928466137911   -0.3264971204154711   -0.0226530620076212
ITEM: TIMESTEP
4
ITEM: NUMBER OF ATOMS
12
ITEM: BOX BOUNDS xy xz yz pp pp pp
-8.8344296827430302e-01 5.1364755065543157e+00 0.0000000000000000e+00
0.0000000000000000e+00 5.1934133375444702e+00 -8.8344296827430302e-01
0.0000000000000000e+00 5.2461598045212767e+00 0.0000000000000000e+00
ITEM: ATOMS id type x y z fx fy fz vx vy vz
   1 1    0.7929560810529239    2.3788614493836140    3.7138306551796778   -0.0289093344690623   -0.1370788739874675    0.0895284725966968   -0.0060486050138651   -0.0291974850769688    0.0189429129220435
   2 1    3.0183529191021918    4.9755686386892837    4.1554049660102050    0.0289101451432997   -0.1370806305154701   -0.0894799650267890    0.0060487043669976   -0.0291978396340615   -0.0189323416424513
   3 1    3.4600754261707616    2.8145529110879237    1.5323265754689175    0.0289030313834179    0.1370799549834386   -0.0895269959291972    0.0060472224834787    0.0291977204134506   -0.0189425897427563
   4 1    1.2346780815293046    0.2178457310724526    1.0907522735199544   -0.0289086121307682    0.1370801018578325    0.0894788702390205   -0.0060483851086280    0.0291977215675112    0.0189321063146292
   5 2    1.4370492620547015    3.8576249985137538    5.1350931184909960    0.0829856271151359    0.2686756644953239    0.2701086066840674    0.2150761860621628    0.6806889755468629    0.6576916854065358
   6 2    2.3742597813807786    1.2609178458578019    2.7341430475853561   -0.0829770152469276    0.2686809832696258   -0.2700977008286733   -0.2150546787241845    0.6807024599960971   -0.6576640330792572
   7 2    2.8159817419202269    1.3357893619396168    0.1110641122627489   -0.0829847743085765   -0.2686755741933928   -0.2701084551970670   -0.2150741829182757   -0.6806887508128405   -0.6576913110577134
   8 2    1.8787712218327144    3.9324965219085000    2.5120141903991011    0.0829777291863936   -0.2686814424181025    0.2700973070220671    0.2150563113437016   -0.6807035748221502    0.6576630382068018
   9 2    0.0438832335202014    1.7186432292431444    1.8164371176237941   -0.2632159914319248    0.1622668759697632   -0.0166389271834884   -0.6681013800895359    0.4273517937416347   -0.0320655672599270
  10 2    4.6508702140552591    4.3153503508991991    0.8066416458194731    0.2632042364145205    0.1622562098573011    0.0166162545764492    0.6680708051853157    0.4273233907560851    0.0320080874010268
  11 2    4.2091477765490275    3.4747711332991407    3.4297201240055770    0.2632179379846348   -0.1622682706708204    0.0166392390185905    0.6681063390695346   -0.4273554412429847    0.0320663680346316
  12 2   -0.3978392073846397    0.8780640257363637    4.4395155918187070   -0.2632029796401447   -0.1622549986480402   -0.0166167059716785   -0.6680675377234466   -0.4273201614638565   -0.0320092477513555
ITEM: TIMESTEP
5
ITEM: NUMBER OF ATOMS
12
ITEM: BOX BOUNDS xy xz yz pp pp pp
-8.8344296827430302e-01 5.1364755065543157e+00 0.0000000000000000e+00
0.0000000000000000e+00 5.1934133375444702e+00 -8.8344296827430302e-01
0.0000000000000000e+00 5.2461598045212767e+00 0.0000000000000000e+00
ITEM: ATOMS id type x y z fx fy fz vx vy vz
   1 1    0.7929492510800701    2.3788285469006309    3.7138520178878158   -0.0296331347919510   -0.1387881419548980    0.0910778550281577   -0.0076309037278213   -0.0366536793588054    0.0238243804026693
   2 1    3.0183597491963097    4.9755357358042680    4.1553836151844195    0.0296342404566513   -0.1387899880331852   -0.0910296732518109    0.0076310548761834   -0.0366541312879320   -0.0238111957821955
   3 1    3.4600822545907239    2.8145858138354605    1.5323052131238704    0.0296269086649690    0.1387892151864290   -0.0910763932815486    0.0076291825551249    0.0366539729202212   -0.0238239778032804
   4 1    1.2346712517958796    0.2178786338251132    1.0907736240808217   -0.0296326601534873    0.1387894747570644    0.0910285734921058   -0.0076306514704336    0.0366539850597672    0.0238109011396624
   5 2    1.4372893613556543    3.8583867027476617    5.1358322575177429    0.0778042122021440    0.2572966542069206    0.2679686203110543    0.2635600351618095    0.8392883163934602    0.8199410861669242
   6 2    2.3740197061839479    1.2616795651799586    2.7334039394994392   -0.0777958556695466    0.2573017444503137   -0.2679581825476673   -0.2635334112481345    0.8393049395313413   -0.8199069979802865
   7 2    2.8157416448795693    1.3350276579576721    0.1103249736560292   -0.0778033414170628   -0.2572965664704535   -0.2679684721643311   -0.2635575122938069   -0.8392880379745353   -0.8199406214678887
   8 2    1.8790112988774426    3.9317348013330675    2.5127532973713991    0.0777965999638259   -0.2573022007997630    0.2679578043631647    0.2635354835769339   -0.8393063304125449    0.8199057703250845
   9 2    0.0431357631671508    1.7191195102650125    1.8164000348288400   -0.2517109197742831    0.1498325041804831   -0.0193829638274320   -0.8233701381545606    0.5214608451316226   -0.0429274471863764
  10 2    4.6516176502888502    4.3158266003018699    0.8066786642979716    0.2516999339124034    0.1498227598332681    0.0193612694365842    0.8233327060672978    0.5214262876673371    0.0428565891013414
  11 2    4.2098952524480131    3.4742948482092193    3.4297572076953351    0.2517127748834779   -0.1498338008664494    0.0193832586467177    0.8233762434706893   -0.5214653041817798    0.0429284308889321
  12 2   -0.3985866399718068    0.8775877799282077    4.4394785720437469   -0.2516987582771439   -0.1498216544897262   -0.0193616962049910   -0.8233287051475050   -0.5214223598521358   -0.0428580142492058
ITEM: TIMESTEP
6
ITEM: NUMBER OF ATOMS
12
ITEM: BOX BOUNDS xy xz yz pp pp pp
-8.8344296827430302e-01 5.1364755065543157e+00 0.0000000000000000e+00
0.0000000000000000e+00 5.1934133375444702e+00 -8.8344296827430302e-01
0.0000000000000000e+00 5.2461598045212767e+00 0.0000000000000000e+00
ITEM: ATOMS id type x y z fx fy fz vx vy vz
   1 1    0.7929408192454682    2.3787881420248964    3.7138783039404832   -0.0304351781151038   -0.1408290263504637    0.0928662138171285   -0.0092544432788880   -0.0442112335821684    0.0287960610859030
   2 1    3.0183681812119438    4.9754953304267078    4.1553573436186406    0.0304366376710103   -0.1408309708064181   -0.0928184282559368    0.0092546637605959   -0.0442117879626868   -0.0287802826391577
   3 1    3.4600906845358721    2.8146262190337641    1.5322789275133109    0.0304290450656526    0.1408300885935579   -0.0928647698123988    0.0092523880596570    0.0442115848616612   -0.0287955799492289
   4 1    1.2346628202263636    0.2179190390425721    1.0907998953222338   -0.0304350008188843    0.1408304768110384    0.0928173229959830   -0.0092541734008665    0.0442116145097668    0.0287799283988691
   5 2    1.4375763821250251    3.8593035751465408    5.1367330006633294    0.0715920395191353    0.2436009199086146    0.2653873390252438    0.3086083128095931    0.9903267308910034    0.9807668569908602
   6 2    2.3737327145582823    1.2625964557368645    2.7325032335893957   -0.0715839895019237    0.2436057351518957   -0.2653774628945944   -0.3085767417382583    0.9903463408850391   -0.9807266434434581
   7 2    2.8154546268956393    1.3341107858636678    0.1094242310198131   -0.0715911481302487   -0.2436008354254232   -0.2653871951280929   -0.3086052585835327   -0.9903264005417328   -0.9807663042302209
   8 2    1.8792982927998683    3.9308179092476747    2.5136540019397513    0.0715847692729293   -0.2436061878341816    0.2653771034174275    0.3085792736268881   -0.9903480058716070    0.9807251933570550
   9 2    0.0422364932438923    1.7196861509334076    1.8163512627294214   -0.2379480750636578    0.1349934988701000   -0.0226020423480997   -0.9710197217153796    0.6073460043568293   -0.0555874181926628
  10 2    4.6525168794673935    4.3163932034745338    0.8067273589976758    0.2379380082881128    0.1349848503700993    0.0225815299628964    0.9709759415099747    0.6073059007956467    0.0555038332651250
  11 2    4.2107945290359687    3.4737282026907774    3.4298059808673549    0.2379498207544241   -0.1349946785506938    0.0226023166589688    0.9710269128006259   -0.6073512101194848    0.0555885735081803
  12 2   -0.3994858647949348    0.8770211810166594    4.4394298757902089   -0.2379369289414397   -0.1349838707381226   -0.0225819274385262   -0.9709712606330142   -0.6073013442862514   -0.0555055069518502
ITEM: TIMESTEP
7
ITEM: NUMBER OF ATOMS
12
ITEM: BOX BOUNDS xy xz yz pp pp pp
-8.8344296827430302e-01 5.1364755065543157e+00 0.0000000000000000e+00
0.0000000000000000e+00 5.1934133375444702e+00 -8.8344296827430302e-01
0.0000000000000000e+00 5.2461598045212767e+00 0.0000000000000000e+00
ITEM: ATOMS id type x y z fx fy fz vx vy vz
   1 1    0.7929307421935122    2.3787401244334667    3.7139096100099880   -0.0312718055914711   -0.1431746971651546    0.0948343895782147   -0.0109222731841437   -0.0518873485829551    0.0338692742098164
   2 1    3.0183782585238306    4.9754473122283427    4.1553260546191417    0.0312736739951548   -0.1431767430387841   -0.0947870698060753    0.0109225836146742   -0.0518880108149776   -0.0338509252352385
   3 1    3.4601007593668434    2.8146742370051836    1.5322476219639718    0.0312657811713715    0.1431757444208250   -0.0948329658889041    0.0109198893701562    0.0518877568784437   -0.0338687155644780
   4 1    1.2346527434490777    0.2179670570541327    1.0908311839376195   -0.0312719720669286    0.1431762724359333    0.0947859588117167   -0.0109220030136563    0.0518878112906848    0.0338505110935417
   5 2    1.4379065779812736    3.8603673562094438    5.1377937912317249    0.0644195830312793    0.2277124538247041    0.2623834278412148    0.3496206492329165    1.1324444579050872    1.1399084938542801
   6 2    2.3734025527004712    1.2636602578617286    2.7314424862125524   -0.0644118875650163    0.2277169502316823   -0.2623742007902107   -0.3495843303389083    1.1324668756925007   -1.1398625200189110
   7 2    2.8151244343624025    1.3330470051565886    0.1083634410475687   -0.0644186691772875   -0.2277123733454432   -0.2623832891977710   -0.3496170506619916   -1.1324440778137765   -1.1399078558976132
   8 2    1.8796284574246964    3.9297541053213241    2.5147147477581133    0.0644127069905627   -0.2277173982425726    0.2623738629124804    0.3495873444421148   -1.1324688122700612    1.1398608596552309
   9 2    0.0411937237237200    1.7203342022737262    1.8162888599924549   -0.2220996391897434    0.1179566959136755   -0.0262197978247505   -1.1097404521496328    0.6836194749050695   -0.0703089375483523
  10 2    4.6535596021718701    4.3170412121034616    0.8067896719645019    0.2220906291815182    0.1179492995782274    0.0262006629215551    1.1096909196161606    0.6835745332559576    0.0702133975547724
  11 2    4.2118373062736145    3.4730801457889804    3.4298683848423512    0.2221012588504545   -0.1179577411906060    0.0262200483155309    1.1097486580079139   -0.6836253515714669    0.0703102511102122
  12 2   -0.4005285824930728    0.8763731772396351    4.4393675610298429   -0.2220896596298929   -0.1179484634224850   -0.0262010268729939   -1.1096856209235699   -0.6835694292220537   -0.0702153008388107
ITEM: TIMESTEP
8
ITEM: NUMBER OF ATOMS
12
ITEM: BOX BOUNDS xy xz yz pp pp pp
-8.8344296827430302e-01 5.1364755065543157e+00 0.0000000000000000e+00
0.0000000000000000e+00 5.1934133375444702e+00 -8.8344296827430302e-01
0.0000000000000000e+00 5.2461598045212767e+00 0.0000000000000000e+00
ITEM: ATOMS id type x y z fx fy fz vx vy vz
   1 1    0.7929189746990999    2.3786843673277303    3.7139460424889030   -0.0320964096525893   -0.1457951354946241    0.0969158779105098   -0.0126350032201683   -0.0596976886721496    0.0390519425440719
   2 1    3.0183900263791732    4.9753915544050784    4.1552896417681708    0.0320987372363956   -0.1457972797072251   -0.0968690927745935    0.0126354270607700   -0.0596984641547428   -0.0390310500813756
   3 1    3.4601125243146122    2.8147299945475206    1.5322111900821818    0.0320905087552429    0.1457961629452354   -0.0969144768627220    0.0126322970860823    0.0596981530432552   -0.0390513075511190
   4 1    1.2346409762203363    0.2180228146651534    1.0908675963444210   -0.0320969625422194    0.1457968367947866    0.0968679761209242   -0.0126347524928384    0.0596982399397582    0.0390305757303187
   5 2    1.4382756234234910    3.8615684640623509    5.1390128176510386    0.0563683170357011    0.2097749274422548    0.2589773438729104    0.3860424924586862    1.2643624464198457    1.2971172894448011
   6 2    2.3730335458976044    1.2648613894882497    2.7302235085493578   -0.0563610206353141    0.2097790643148713   -0.2589688463583893   -0.3860016529842517    1.2643874674477806   -1.2970659710232075
   7 2    2.8147553927943152    1.3318458977080403    0.1071444153080179   -0.0563673797588132   -0.2097748517934478   -0.2589772115734958   -0.3860383357060341   -1.2643620192503757   -1.2971165697892364
   8 2    1.8799974674887525    3.9285529716231342    2.5159337236590620    0.0563618828213324   -0.2097795065038791    0.2589685327221036    0.3860051741530892   -1.2643896724522374    1.2970641142049044
   9 2    0.0400170123395931    1.7210533898832179    1.8162106448543247   -0.2043629578106501    0.0989592600924487   -0.0301498624898803   -1.2383340765192070    0.7490273422364990   -0.0873063928359339
  10 2    4.6547362613066259    4.3177603525410460    0.8068677857927854    0.2043551281112081    0.0989532518933995    0.0301322905636202    1.2382794662155918    0.7489783586439995    0.0871997844291520
  11 2    4.2130140263519849    3.4723609519876342    3.4299466013695752    0.2043644364030523   -0.0989601553962711    0.0301500860846805    1.2383432166108765   -0.7490338040569384    0.0873078493514397
  12 2   -0.4017052360367819    0.8756540421582152    4.4392894451885310   -0.2043542799633471   -0.0989525745875559   -0.0301326172156710   -1.2382736194220267   -0.7489727982476572   -0.0872018959546782
ITEM: TIMESTEP
9
ITEM: NUMBER OF ATOMS
12
ITEM: BOX BOUNDS xy xz yz pp pp pp
-8.8344296827430302e-01 5.1364755065543157e+00 0.0000000000000000e+00
0.0000000000000000e+00 5.1934133375444702e+00 -8.8344296827430302e-01
0.0000000000000000e+00 5.2461598045212767e+00 0.0000000000000000e+00
ITEM: ATOMS id type x y z fx fy fz vx vy vz
   1 1    0.7929054721870719    2.3786207290561223    3.7139877138950759   -0.0328615137632235   -0.1486577459310010    0.0990382567695963   -0.0143907002377274   -0.0676562258073566    0.0443482339238622
   2 1    3.0184035293779523    4.9753279153000332    4.1552479925189791    0.0328643455570242   -0.1486599792538278   -0.0989920746210536    0.0143912635271200   -0.0676571196069386   -0.0443248287209878
   3 1    3.4601260239610152    2.8147936333112700    1.5321695193488696    0.0328557505429249    0.1486587479516772   -0.0990368804540717    0.0143876788433086    0.0676567450314577   -0.0443475238637239
   4 1    1.2346274739440921    0.2180864535340122    1.0909092450890803   -0.0328624913510929    0.1486595684629641    0.0989909526851389   -0.0143904908764795    0.0676568723178736    0.0443242938648401
   5 2    1.4386786629661910    3.8628960811022837    5.1403880258106147    0.0475297529893680    0.1899502870965193    0.2551906628923506    0.4173714518645098    1.3848938000508400    1.4521572108585041
   6 2    2.3726305493945028    1.2661890327966243    2.7288483542705060   -0.0475228963186582    0.1899540273666210   -0.2551829675177076   -0.4173263447363091    1.3849211963171639   -1.4521010097055265
   7 2    2.8143523576909901    1.3305182811180880    0.1057692079079903   -0.0475287923140288   -0.1899502171724237   -0.2551905381417340   -0.4173667228118307   -1.3848933289859677   -1.4521564136932226
   8 2    1.8804004677730026    3.9272253259764196    2.5173088759865232    0.0475238031725994   -0.1899544624270719    0.2551826805228641    0.4173303993335448   -1.3849236658434994    1.4520989717755983
   9 2    0.0387170555706816    1.7218322569581994    1.8161142472067831   -0.1849578524159852    0.0782653381255085   -0.0342975998933160   -1.3557281326021513    0.8024668550392308   -0.1067395924355447
  10 2    4.6560361611043009    4.3185391688207497    0.8069640715333602    0.1849513106560728    0.0782608313400798    0.0342817647776677    1.3556691887929513    0.8024147008053345    0.1066229106187411
  11 2    4.2143139927068365    3.4715820781808664    3.4300430005410543    0.1849591766713067   -0.0782660698873965    0.0342977938330229    1.3557381178519892   -0.8024738074777882    0.1067411748525386
  12 2   -0.4030051297319169    0.8748752316431399    4.4391931572379333   -0.1849505934263065   -0.0782603256716472   -0.0342820508527579   -1.3556628699824167   -0.8024087837002191   -0.1066252069032694
ITEM: TIMESTEP
10
ITEM: NUMBER OF ATOMS
12
ITEM: BOX BOUNDS xy xz yz pp pp pp
-8.8344296827430302e-01 5.1364755065543157e+00 0.0000000000000000e+00
0.0000000000000000e+00 5.1934133375444702e+00 -8.8344296827430302e-01
0.0000000000000000e+00 5.2461598045212767e+00 0.0000000000000000e+00
ITEM: ATOMS id type x y z fx fy fz vx vy vz
   1 1    0.7928901932986244    2.3785490548761157    3.7140347389567507   -0.0335208843132042   -0.1517279185465181    0.1011246521566667   -0.0161848982692002   -0.0757751155056121    0.0497582809781414
   2 1    3.0184188089062274    4.9752562401658640    4.1552009921107285    0.0335242593782286   -0.1517302258624427   -0.1010791411595555    0.0161856293189360   -0.0757761320305753   -0.0497323974727922
   3 1    3.4601412996722987    2.8148653080375836    1.5321224950344543    0.0335152721106569    0.1517288887467057   -0.1011233024595150    0.0161815694173548    0.0757756880353318   -0.0497574972387339
   4 1    1.2346121952385833    0.2181581284097892    1.0909562449321508   -0.0335223199484069    0.1517298516846148    0.1010780146057654   -0.0161847541330753    0.0757758635252042    0.0497318018439711
   5 2    1.4391103663272200    3.8643382516624527    5.1419171320727557    0.0380043034712294    0.1684171588957018    0.2510453895361048    0.4431630087435059    1.4929543171051993    1.6048053662329855
   6 2    2.3721988932081319    1.2676312318808840    2.7273193065299468   -0.0379979230895490    0.1684204696433667   -0.2510385603469185   -0.4431139101737232    1.4929838395038888   -1.6047447854079844
   7 2    2.8139206593486916    1.3290761110500684    0.1042401024806314   -0.0380033204877483   -0.1684170956665905   -0.2510452736122690   -0.4431576936086381   -1.4929538058899043   -1.6048044964958059
   8 2    1.8808321282874196    3.9257831242914474    2.5188379216026133    0.0379988752071141   -0.1684208961025558    0.2510383021115219    0.4431185253169136   -1.4929865688090036    1.6047425830717676