(written by ASE)

12 atoms
2 atom types

0.0      5.1364755065543157  xlo xhi
0.0      5.1934133375444702  ylo yhi
0.0      5.2461598045212767  zlo zhi
                      0    -0.88344296827430302                       0  xy xz yz

Masses

     1      178.48999995408445 # Hf
     2      15.998999995884349 # O

Atoms # atomic

   1   1   0.7762038189194448  2.3501668291581748  3.68279798082485
   2   1   3.046909974681737  4.944150105556711  4.138358285486626
   3   1   3.4768272330490273  2.843247525261339  1.5633593416957139
   4   1   1.206121357063365  0.24926426962334255  1.1077988397499436
   5   2   1.9923882927377357  3.7560995537962394  0.09468011073273033
   6   2   2.4156598997102234  1.232091591716475  2.535088502166751
   7   2   2.260642995344876  1.4373149847910918  5.151477127466908
   8   2   1.8373715411046625  3.961322345404707  2.711068754608852
   9   2   -0.04009856273561367  1.7101732621660004  1.8395909106552648
  10   2   4.637992808257605  4.332359369278529  0.8066572267456065
  11   2   4.293129979308621  3.48324132936595  3.406566397691778
  12   2   -0.3849615448673518  0.8610550379485409  4.4395001680755115

