LAMMPS (27 Jun 2024)
OMP_NUM_THREADS environment is not set. Defaulting to 1 thread. (src/comm.cpp:98)
  using 1 OpenMP thread(s) per MPI task
Reading data file ...
  orthogonal box = (0 0 0) to (22.422218 22.19224 20.321894)
  5 by 2 by 2 MPI processor grid
  reading atoms ...
  448 atoms
  read_data CPU = 0.004 seconds
**************** Begin of POD Potentials ****************
species: Hf 
periodic boundary conditions: 1 1 1
number of environment clusters: 8
number of principal compoments: 2
inner cut-off radius: 1
outer cut-off radius: 5
cut-off function type: 1
gaussian_exponents: 
polynomial_degrees: 
bessel polynomial degree: 4
inverse polynomial degree: 10
one-body potential: 1
two-body radial basis functions: 8
three-body radial basis functions: 8
three-body angular degree: 6
four-body radial basis functions: 7
four-body angular degree: 5
five-body radial basis functions: 0
five-body angular degree: 0
six-body radial basis functions: 0
six-body angular degree: 0
seven-body radial basis functions: 0
seven-body angular degree: 0
number of local descriptors per element for one-body potential: 1
number of local descriptors per element for two-body potential: 8
number of local descriptors per element for three-body potential: 56
number of local descriptors per element for four-body potential: 112
number of local descriptors per element for five-body potential: 0
number of local descriptors per element for six-body potential: 0
number of local descriptors per element for seven-body potential: 0
number of local descriptors per element for all potentials: 177
number of global descriptors: 1409
**************** End of POD Potentials ****************

**************** Begin of Model Coefficients ****************
total number of coefficients for POD potential: 1409
total number of elements for PCA projection matrix: 352
total number of elements for PCA centroids: 16
**************** End of Model Coefficients ****************


CITE-CITE-CITE-CITE-CITE-CITE-CITE-CITE-CITE-CITE-CITE-CITE-CITE

Your simulation uses code contributions which should be cited:
- Type Label Framework: https://doi.org/10.1021/acs.jpcb.3c08419
The log file lists these citations in BibTeX format.

CITE-CITE-CITE-CITE-CITE-CITE-CITE-CITE-CITE-CITE-CITE-CITE-CITE

Neighbor list info ...
  update: every = 1 steps, delay = 0 steps, check = no
  max neighbors/atom: 2000, page size: 100000
  master list distance cutoff = 7
  ghost atom cutoff = 7
  binsize = 3.5, bins = 7 7 6
  1 neighbor lists, perpetual/occasional/extra = 1 0 0
  (1) pair pod, perpetual
      attributes: full, newton on
      pair build: full/bin/atomonly
      stencil: full/bin/3d
      bin: standard
Setting up Verlet run ...
  Unit style    : metal
  Current step  : 0
  Time step     : 0.001
Per MPI rank memory allocation (min/avg/max) = 2.586 | 2.586 | 2.586 Mbytes
   Step          Temp          TotEng         PotEng         KinEng         Press          Volume    
         0   300           -3263.9145     -3281.2483      17.333785      1830.9177      10112.159    
       100   94.626816     -3263.0305     -3268.498       5.4674697      3870.0674      10112.159    
       200   154.24886     -3259.783      -3268.6954      8.9123886      4817.3163      10112.159    
       300   212.02411     -3255.8673     -3268.1179      12.250602      5003.3322      10112.159    
       400   288.8192      -3251.8151     -3268.5028      16.687767      4962.4058      10112.159    
       500   308.38035     -3247.9643     -3265.7823      17.817996      6301.4459      10112.159    
       600   295.92518     -3245.0915     -3262.1899      17.098345      7711.3637      10112.159    
       700   307.10148     -3243.6789     -3261.423       17.744104      7789.829       10112.159    
       800   293.89227     -3245.3891     -3262.37        16.980885      7505.6663      10112.159    
       900   303.50904     -3246.887      -3264.4235      17.536535      6772.1816      10112.159    
      1000   304.64602     -3247.9266     -3265.5288      17.602229      6126.788       10112.159    
      1100   288.53499     -3248.1343     -3264.8056      16.671345      6554.352       10112.159    
      1200   293.5297      -3246.6577     -3263.6176      16.959936      6911.1786      10112.159    
      1300   282.43154     -3245.7227     -3262.0414      16.318693      7577.4573      10112.159    
      1400   327.84438     -3245.0857     -3264.0283      18.942614      6922.7384      10112.159    
      1500   312.21797     -3245.6859     -3263.7256      18.039731      7026.8748      10112.159    
      1600   317.44815     -3246.4078     -3264.7497      18.341927      6900.0966      10112.159    
      1700   263.98432     -3247.8215     -3263.0743      15.252825      7139.4141      10112.159    
      1800   262.13513     -3247.8905     -3263.0365      15.14598       6892.1127      10112.159    
      1900   335.17682     -3246.3084     -3265.6747      19.366277      6767.4885      10112.159    
      2000   302.5745      -3246.1349     -3263.6174      17.482538      6667.7918      10112.159    
      2100   310.09739     -3245.7465     -3263.6637      17.917206      7140.2046      10112.159    
      2200   286.21296     -3245.8548     -3262.392       16.53718       7388.0512      10112.159    
      2300   278.16446     -3246.3436     -3262.4158      16.072143      7612.5689      10112.159    
      2400   330.91261     -3246.8923     -3266.0122      19.119894      6101.6039      10112.159    
      2500   294.63688     -3247.573      -3264.5969      17.023908      6458.4497      10112.159    
      2600   291.26718     -3246.5733     -3263.4025      16.829209      7051.1137      10112.159    
      2700   291.52692     -3245.8652     -3262.7094      16.844217      7330.2882      10112.159    
      2800   300.59735     -3245.9083     -3263.2766      17.3683        7370.5968      10112.159    
      2900   303.06673     -3246.8398     -3264.3508      17.510979      6755.6709      10112.159    
      3000   298.475       -3248.1981     -3265.4437      17.245672      6109.3961      10112.159    
      3100   282.95549     -3248.1142     -3264.4632      16.348966      6788.0282      10112.159    
      3200   284.13077     -3246.8846     -3263.3015      16.416873      6935.7326      10112.159    
      3300   300.32005     -3246.7173     -3264.0695      17.352278      6959.7216      10112.159    
      3400   282.68964     -3246.4102     -3262.7438      16.333605      7073.1191      10112.159    
      3500   330.80588     -3245.4219     -3264.5356      19.113727      7179.6986      10112.159    
      3600   300.00672     -3246.2935     -3263.6276      17.334174      6742.9869      10112.159    
      3700   293.89158     -3246.7098     -3263.6906      16.980846      7099.6352      10112.159    
      3800   289.05445     -3246.7101     -3263.4115      16.701359      6964.1343      10112.159    
      3900   320.13858     -3245.4855     -3263.9828      18.497378      7058.5436      10112.159    
      4000   328.49948     -3243.9652     -3262.9456      18.980465      7222.8719      10112.159    
      4100   316.54894     -3244.6501     -3262.9401      18.289972      7268.9749      10112.159    
      4200   295.48817     -3246.0402     -3263.1133      17.073095      6939.9464      10112.159    
      4300   285.14686     -3246.9791     -3263.4547      16.475582      7113.2308      10112.159    
      4400   320.33368     -3246.4076     -3264.9162      18.508651      6615.5041      10112.159    
      4500   287.7117      -3246.2901     -3262.9139      16.623776      6836.9516      10112.159    
      4600   285.47466     -3246.3308     -3262.8253      16.494522      6926.8316      10112.159    
      4700   311.58427     -3246.5923     -3264.5954      18.003116      6678.3308      10112.159    
      4800   298.76249     -3247.4486     -3264.7109      17.262283      6627.7126      10112.159    
      4900   275.46103     -3247.754      -3263.6699      15.915941      6469.9654      10112.159    
      5000   295.32705     -3246.2995     -3263.3633      17.063786      7190.1485      10112.159    
      5100   315.24732     -3245.5738     -3263.7885      18.214765      6986.0599      10112.159    
      5200   301.05779     -3246.1104     -3263.5053      17.394904      7051.4927      10112.159    
      5300   304.28833     -3246.6634     -3264.245       17.581562      6796.6344      10112.159    
      5400   272.362       -3248.1239     -3263.8608      15.736881      6583.5692      10112.159    
      5500   299.38615     -3248.142      -3265.4403      17.298317      6330.2899      10112.159    
      5600   301.43744     -3246.193      -3263.6099      17.41684       6919.032       10112.159    
      5700   303.12442     -3245.3819     -3262.8962      17.514312      7013.1107      10112.159    
      5800   313.24068     -3245.2339     -3263.3327      18.098822      6940.4709      10112.159    
      5900   290.19478     -3246.5499     -3263.3171      16.767247      7056.7843      10112.159    
      6000   282.88959     -3247.2933     -3263.6385      16.345158      6754.2113      10112.159    
      6100   295.84374     -3246.9064     -3264           17.09364       6923.5525      10112.159    
      6200   329.47159     -3245.7212     -3264.7578      19.036633      6616.6924      10112.159    
      6300   287.54087     -3245.4069     -3262.0208      16.613906      7495.7473      10112.159    
      6400   313.43553     -3244.0619     -3262.1719      18.110081      7770.9393      10112.159    
      6500   311.05879     -3244.3413     -3262.314       17.972754      7316.6567      10112.159    
      6600   320.53391     -3246.0507     -3264.5709      18.52022       6715.2116      10112.159    
      6700   294.56515     -3246.8476     -3263.8673      17.019764      6587.0464      10112.159    
      6800   302.76737     -3246.713      -3264.2066      17.493682      6761.058       10112.159    
      6900   289.13913     -3246.9537     -3263.66        16.706252      6699.6961      10112.159    
      7000   293.88321     -3246.9402     -3263.9206      16.980362      6916.7732      10112.159    
      7100   328.70925     -3245.8106     -3264.8032      18.992586      6665.7811      10112.159    
      7200   292.88982     -3245.7764     -3262.6994      16.922964      7310.1808      10112.159    
      7300   299.02259     -3246.0075     -3263.2848      17.277312      6883.1768      10112.159    
      7400   287.85022     -3247.2282     -3263.86        16.63178       6920.3307      10112.159    
      7500   302.05311     -3247.9863     -3265.4387      17.452413      6210.2454      10112.159    
      7600   263.96931     -3248.4711     -3263.7231      15.251958      6467.9622      10112.159    
      7700   314.59705     -3246.4604     -3264.6376      18.177193      6792.4563      10112.159    
      7800   302.15522     -3246.2003     -3263.6586      17.458312      6793.601       10112.159    
      7900   295.1765      -3246.2458     -3263.3009      17.055087      7189.3547      10112.159    
      8000   299.96768     -3246.3023     -3263.6342      17.331918      6953.6812      10112.159    
      8100   300.64131     -3246.6826     -3264.0534      17.37084       6623.9079      10112.159    
      8200   297.45535     -3247.2186     -3264.4053      17.186757      6572.3966      10112.159    
      8300   295.37266     -3247.6514     -3264.7178      17.066421      6401.8112      10112.159    
      8400   276.98028     -3247.5229     -3263.5266      16.003722      6848.548       10112.159    
      8500   308.68924     -3245.8279     -3263.6638      17.835844      6695.9182      10112.159    
      8600   311.34184     -3245.4416     -3263.4307      17.989109      6962.0023      10112.159    
      8700   306.08284     -3246.0862     -3263.7714      17.685248      6914.1598      10112.159    
      8800   284.32108     -3247.4646     -3263.8924      16.427869      6721.941       10112.159    
      8900   303.37157     -3247.3704     -3264.899       17.528592      6618.1585      10112.159    
      9000   279.80853     -3247.2305     -3263.3977      16.167137      7072.7725      10112.159    
      9100   302.4995      -3246.6294     -3264.1076      17.478205      6608.0528      10112.159    
      9200   311.89954     -3246.3138     -3264.3352      18.021332      6778.9104      10112.159    
      9300   290.53307     -3246.0965     -3262.8833      16.786793      6849.2521      10112.159    
      9400   302.41485     -3244.6297     -3262.103       17.473314      7486.0433      10112.159    
      9500   322.32093     -3244.5714     -3263.1949      18.623473      6810.9626      10112.159    
      9600   300.12564     -3246.6007     -3263.9418      17.341045      6864.1358      10112.159    
      9700   290.64919     -3247.0027     -3263.7962      16.793502      6625.0456      10112.159    
      9800   306.51426     -3246.4665     -3264.1767      17.710175      6810.2367      10112.159    
      9900   299.78983     -3246.0275     -3263.3491      17.321642      7053.6408      10112.159    
     10000   293.06115     -3245.5945     -3262.5273      16.932864      7065.8668      10112.159    
     10100   335.6806      -3244.7031     -3264.0985      19.395385      6811.8607      10112.159    
     10200   283.96565     -3246.0918     -3262.4991      16.407332      6946.1448      10112.159    
     10300   310.53151     -3246.5474     -3264.4897      17.942289      6581.1667      10112.159    
     10400   289.99444     -3247.1151     -3263.8708      16.755671      6830.9417      10112.159    
     10500   284.58867     -3246.8676     -3263.3109      16.44333       6789.7676      10112.159    
     10600   330.92501     -3245.0139     -3264.1345      19.12061       7091.1866      10112.159    
     10700   291.96907     -3245.4751     -3262.3449      16.869764      7064.0392      10112.159    
     10800   322.37817     -3245.712      -3264.3388      18.62678       6950.9042      10112.159    
     10900   284.00724     -3247.3564     -3263.7661      16.409735      6582.3649      10112.159    
     11000   299.26975     -3247.4885     -3264.7801      17.291592      6588.9147      10112.159    
     11100   302.29044     -3247.0008     -3264.4669      17.466125      6671.8987      10112.159    
     11200   276.33966     -3246.372      -3262.3387      15.966708      7080.5228      10112.159    
     11300   319.87461     -3244.8656     -3263.3477      18.482126      6965.0534      10112.159    
     11400   317.2674      -3245.1659     -3263.4973      18.331483      6753.4362      10112.159    
     11500   300.6089      -3245.9164     -3263.2854      17.368967      6976.3919      10112.159    
     11600   283.91647     -3247.1677     -3263.5722      16.40449       6975.4475      10112.159    
     11700   305.31135     -3247.1725     -3264.8132      17.640672      6372.9212      10112.159    
     11800   276.08069     -3247.024      -3262.9758      15.951745      6902.4892      10112.159    
     11900   321.57046     -3245.4238     -3264.0039      18.580111      6975.3306      10112.159    
     12000   296.39024     -3245.3058     -3262.431       17.125216      7054.0395      10112.159    
     12100   317.16163     -3245.5709     -3263.8963      18.325372      6809.6971      10112.159    
     12200   305.92376     -3246.4829     -3264.159       17.676056      6558.824       10112.159    
     12300   285.57116     -3247.0634     -3263.5635      16.500098      6659.4148      10112.159    
     12400   294.40848     -3246.8135     -3263.8242      17.010711      6719.5777      10112.159    
     12500   315.81352     -3245.298      -3263.5455      18.247479      6897.4411      10112.159    
     12600   311.07488     -3244.2095     -3262.1832      17.973684      7345.349       10112.159    
     12700   317.33042     -3245.1422     -3263.4774      18.335125      6807.9561      10112.159    
     12800   292.90212     -3246.2811     -3263.2048      16.923675      6764.924       10112.159    
     12900   291.59525     -3246.4521     -3263.3003      16.848165      6905.2382      10112.159    
     13000   321.5731      -3246.4538     -3265.0341      18.580264      6827.3693      10112.159    
     13100   276.59946     -3247.6363     -3263.618       15.981719      6614.5369      10112.159    
     13200   298.75121     -3247.3264     -3264.588       17.261631      6567.6644      10112.159    
     13300   324.22952     -3245.4765     -3264.2102      18.73375       6914.6087      10112.159    
     13400   290.34963     -3245.3949     -3262.1711      16.776194      6992.7882      10112.159    
     13500   311.21338     -3245.6547     -3263.6364      17.981687      6898.8075      10112.159    
     13600   304.61279     -3246.8684     -3264.4687      17.600309      6401.3414      10112.159    
     13700   294.55167     -3247.7403     -3264.7593      17.018985      6346.9488      10112.159    
     13800   280.41195     -3247.6485     -3263.8505      16.202002      6704.1609      10112.159    
     13900   295.87789     -3247.1025     -3264.1981      17.095613      6575.4931      10112.159    
     14000   294.97912     -3246.4711     -3263.5148      17.043683      6896.9028      10112.159    
     14100   316.75247     -3245.6655     -3263.9672      18.301731      7030.9603      10112.159    
     14200   301.32049     -3246.0234     -3263.4335      17.410083      7020.9302      10112.159    
     14300   295.97992     -3247.1405     -3264.242       17.101508      6646.553       10112.159    
     14400   279.43661     -3248.3981     -3264.5437      16.145648      6566.7677      10112.159    
     14500   297.66032     -3247.8814     -3265.08        17.198601      6300.9868      10112.159    
     14600   290.3427      -3246.6123     -3263.3881      16.775793      6816.7087      10112.159    
     14700   301.00427     -3246.2613     -3263.6531      17.391811      6749.4644      10112.159    
     14800   308.91406     -3246.4213     -3264.2702      17.848833      6733.1453      10112.159    
     14900   291.25797     -3246.8276     -3263.6562      16.828677      6583.068       10112.159    
     15000   300.93017     -3246.2702     -3263.6577      17.38753       6828.3772      10112.159    
     15100   309.6287      -3245.3839     -3263.274       17.890125      7143.2687      10112.159    
     15200   306.39967     -3245.3212     -3263.0248      17.703554      7070.0185      10112.159    
     15300   307.46302     -3246.3919     -3264.1569      17.764993      6530.5656      10112.159    
     15400   301.13292     -3247.2301     -3264.6293      17.399245      6356.3711      10112.159    
     15500   273.05736     -3247.3812     -3263.1582      15.777059      6658.9815      10112.159    
     15600   310.91204     -3245.9997     -3263.964       17.964276      6954.8964      10112.159    
     15700   312.30681     -3245.4923     -3263.5372      18.044864      6759.1745      10112.159    
     15800   316.45689     -3245.7996     -3264.0842      18.284653      6640.1697      10112.159    
     15900   290.10836     -3246.4157     -3263.178       16.762254      6819.5673      10112.159    
     16000   292.10207     -3246.5315     -3263.409       16.877449      6796.9339      10112.159    
     16100   316.29867     -3246.4594     -3264.7349      18.275511      6448.4726      10112.159    
     16200   282.81291     -3246.7133     -3263.0541      16.340728      7030.8818      10112.159    
     16300   304.63872     -3246.476      -3264.0778      17.601807      6836.2405      10112.159    
     16400   292.23154     -3246.5807     -3263.4657      16.884929      6488.0554      10112.159    
     16500   314.60908     -3246.0779     -3264.2558      18.177888      6811.8597      10112.159    
     16600   280.98712     -3246.2683     -3262.5036      16.235235      6943.7122      10112.159    
     16700   309.66121     -3245.8481     -3263.7401      17.892003      7046.9168      10112.159    
     16800   310.47353     -3245.9802     -3263.9191      17.938938      6825.7454      10112.159    
     16900   290.16504     -3247.0102     -3263.7757      16.765528      6654.4739      10112.159    
     17000   293.75932     -3247.5285     -3264.5018      16.973203      6709.6236      10112.159    
     17100   292.1558      -3247.2908     -3264.1713      16.880553      6606.4222      10112.159    
     17200   301.05734     -3245.4945     -3262.8894      17.394878      6934.7787      10112.159    
     17300   298.59297     -3245.4885     -3262.741       17.252488      7073.4912      10112.159    
     17400   310.54641     -3246.0751     -3264.0182      17.94315       6819.4859      10112.159    
     17500   301.6376      -3246.9037     -3264.3321      17.428405      6643.6922      10112.159    
     17600   267.35235     -3248.1149     -3263.5624      15.447427      6753.7913      10112.159    
     17700   286.45935     -3248.4579     -3265.0093      16.551416      6316.9274      10112.159    
     17800   307.82761     -3247.2601     -3265.0461      17.786059      6406.8985      10112.159    
     17900   315.79308     -3245.7757     -3264.022       18.246298      6686.6263      10112.159    
     18000   292.00274     -3245.5228     -3262.3945      16.871709      7032.5436      10112.159    
     18100   298.0109      -3245.8753     -3263.0942      17.218857      7057.162       10112.159    
     18200   306.18239     -3247.0231     -3264.7141      17.691         6432.3476      10112.159    
     18300   301.31592     -3247.7031     -3265.1129      17.409819      6003.7612      10112.159    
     18400   299.53216     -3247.1939     -3264.5007      17.306754      6461.783       10112.159    
     18500   296.10153     -3244.9397     -3262.0482      17.108535      7307.28        10112.159    
     18600   309.86553     -3244.5832     -3262.487       17.903809      7153.4644      10112.159    
     18700   313.9452      -3245.5198     -3263.6594      18.139529      6735.5071      10112.159    
     18800   295.16067     -3246.7524     -3263.8066      17.054172      6735.0816      10112.159    
     18900   291.61729     -3247.1324     -3263.9818      16.849438      6559.9115      10112.159    
     19000   298.33214     -3246.8887     -3264.1261      17.237418      6547.6529      10112.159    
     19100   307.94497     -3245.2652     -3263.058       17.79284       7055.1243      10112.159    
     19200   321.87352     -3244.7632     -3263.3608      18.597622      7053.5134      10112.159    
     19300   299.0488      -3245.6695     -3262.9484      17.278826      6991.5859      10112.159    
     19400   310.32621     -3246.3343     -3264.2648      17.930427      6568.4828      10112.159    
     19500   297.93771     -3247.2999     -3264.5145      17.214628      6225.9859      10112.159    
     19600   295.92017     -3247.0411     -3264.1392      17.098056      6598.5084      10112.159    
     19700   284.58546     -3246.8427     -3263.2858      16.443144      7006.8983      10112.159    
     19800   315.02799     -3246.2791     -3264.4812      18.202092      6553.7612      10112.159    
     19900   282.83812     -3246.705      -3263.0472      16.342184      7058.8404      10112.159    
     20000   312.24069     -3246.2674     -3264.3084      18.041044      6576.6924      10112.159    
     20100   300.30982     -3245.4714     -3262.8231      17.351687      7052.2824      10112.159    
     20200   332.22305     -3244.1318     -3263.3274      19.19561       7088.9186      10112.159    
     20300   303.92064     -3245.0636     -3262.6239      17.560317      7137.8034      10112.159    
     20400   307.36666     -3246.348      -3264.1074      17.759426      6841.1995      10112.159    
     20500   290.16885     -3246.8699     -3263.6357      16.765749      6743.4821      10112.159    
     20600   300.75259     -3246.4384     -3263.8157      17.37727       6825.6972      10112.159    
     20700   310.81251     -3245.7665     -3263.725       17.958525      6929.7574      10112.159    
     20800   312.48287     -3245.4368     -3263.4919      18.055037      6929.0863      10112.159    
     20900   310.54576     -3245.4823     -3263.4254      17.943112      7266.3641      10112.159    
     21000   297.93691     -3246.6543     -3263.8689      17.214582      6695.0768      10112.159    
     21100   288.56097     -3247.4873     -3264.1601      16.672847      6526.4468      10112.159    
     21200   286.64194     -3247.5345     -3264.0964      16.561966      6369.7097      10112.159    
     21300   318.46431     -3245.849      -3264.2497      18.40064       6875.1292      10112.159    
     21400   296.53546     -3245.217      -3262.3506      17.133607      7435.6853      10112.159    
     21500   306.2857      -3245.5258     -3263.2228      17.696969      7132.7634      10112.159    
     21600   305.88192     -3246.746      -3264.4196      17.673638      6612.4541      10112.159    
     21700   292.4231      -3247.1173     -3264.0133      16.895997      6716.2494      10112.159    
     21800   303.7754      -3246.789      -3264.341       17.551926      6467.25        10112.159    
     21900   299.52525     -3246.3989     -3263.7053      17.306355      6892.1783      10112.159    
     22000   297.77131     -3245.7346     -3262.9396      17.205014      7157.8338      10112.159    
     22100   326.0826      -3244.5438     -3263.3846      18.840819      7095.2122      10112.159    
     22200   320.62995     -3244.518      -3263.0437      18.525769      7272.1692      10112.159    
     22300   303.77323     -3245.9242     -3263.476       17.5518        7055.2102      10112.159    
     22400   277.54589     -3247.3705     -3263.4069      16.036403      7004.1104      10112.159    
     22500   302.08753     -3247.0766     -3264.531       17.454402      6644.8916      10112.159    
     22600   313.1787      -3246.4232     -3264.5184      18.095241      6567.1028      10112.159    
     22700   302.58022     -3245.5994     -3263.0822      17.482869      7311.5546      10112.159    
     22800   292.65769     -3244.831      -3261.7406      16.909552      7430.1007      10112.159    
     22900   296.83871     -3245.7689     -3262.9201      17.151128      7009.1967      10112.159    
     23000   311.2455      -3247.3734     -3265.3569      17.983543      6236.2621      10112.159    
     23100   281.17219     -3248.0395     -3264.2854      16.245928      6586.7331      10112.159    
     23200   296.74388     -3247.1195     -3264.2652      17.145649      6528.0942      10112.159    
     23300   292.0567      -3245.9868     -3262.8616      16.874827      7064.2839      10112.159    
     23400   304.3012      -3245.5982     -3263.1805      17.582306      6921.8418      10112.159    
     23500   300.35339     -3246.0747     -3263.4289      17.354204      6976.1769      10112.159    
     23600   299.44523     -3246.7249     -3264.0266      17.301731      6557.4704      10112.159    
     23700   297.6743      -3247.1631     -3264.3625      17.199408      6514.9989      10112.159    
     23800   277.04159     -3247.6377     -3263.645       16.007265      6794.8801      10112.159    
     23900   299.4348      -3247.1856     -3264.4867      17.301129      6542.4479      10112.159    
     24000   313.22466     -3246.168      -3264.2659      18.097897      6756.3031      10112.159    
     24100   299.99699     -3245.5002     -3262.8338      17.333611      7284.4169      10112.159    
     24200   309.89385     -3245.0257     -3262.9312      17.905445      6823.3945      10112.159    
     24300   307.76497     -3246.2359     -3264.0184      17.78244       6680.4969      10112.159    
     24400   288.39206     -3247.6207     -3264.2838      16.663087      6625.9578      10112.159    
     24500   303.0427      -3247.1703     -3264.6798      17.50959       6720.9749      10112.159    
     24600   303.03517     -3246.1268     -3263.636       17.509155      6616.4443      10112.159    
     24700   322.9208      -3245.2956     -3263.9538      18.658133      6859.2772      10112.159    
     24800   292.48267     -3245.8023     -3262.7017      16.899439      7096.1734      10112.159    
     24900   301.49821     -3246.1981     -3263.6185      17.420351      6758.9235      10112.159    
     25000   309.73775     -3246.44       -3264.3364      17.896426      6764.8934      10112.159    
     25100   291.03156     -3246.5613     -3263.3769      16.815596      6870.5684      10112.159    
     25200   305.70516     -3245.8329     -3263.4964      17.663425      6985.3262      10112.159    
     25300   297.32837     -3245.4377     -3262.6172      17.179421      6914.2292      10112.159    
     25400   315.69665     -3245.1888     -3263.4295      18.240726      7016.1429      10112.159    
     25500   311.07427     -3246.3249     -3264.2985      17.973649      6622.5516      10112.159    
     25600   280.04421     -3247.4407     -3263.6214      16.180754      6696.6909      10112.159    
     25700   302.33748     -3246.9569     -3264.4257      17.468843      6617.3923      10112.159    
     25800   308.72912     -3246.1572     -3263.9953      17.838148      7010.9394      10112.159    
     25900   302.33215     -3245.023      -3262.4916      17.468535      7335.2779      10112.159    
     26000   329.67197     -3243.2812     -3262.3294      19.048211      7490.6385      10112.159    
     26100   304.44303     -3244.3503     -3261.9408      17.5905        7372.9425      10112.159    
     26200   327.0062      -3245.4454     -3264.3396      18.894184      6680.5329      10112.159    
     26300   289.73863     -3246.6385     -3263.3794      16.740891      6830.1279      10112.159    
     26400   302.38313     -3246.6402     -3264.1116      17.471481      6766.7202      10112.159    
     26500   290.14341     -3246.6069     -3263.3712      16.764279      6906.5989      10112.159    
     26600   308.95633     -3245.8985     -3263.7497      17.851276      6831.1186      10112.159    
     26700   297.6952      -3245.5328     -3262.7335      17.200616      7136.7738      10112.159    
     26800   302.73512     -3245.7049     -3263.1967      17.491819      6795.5484      10112.159    
     26900   307.05453     -3246.6977     -3264.439       17.741391      6478.6262      10112.159    
     27000   286.17397     -3247.754      -3264.2889      16.534927      6570.0416      10112.159    
     27100   286.05251     -3247.4181     -3263.946       16.527909      6627.0439      10112.159    
     27200   311.56125     -3245.8335     -3263.8353      18.001786      6841.3536      10112.159    
     27300   307.77259     -3245.384      -3263.1669      17.78288       7132.6929      10112.159    
     27400   316.08851     -3245.7774     -3264.0408      18.263368      6788.39        10112.159    
     27500   288.79739     -3246.4778     -3263.1643      16.686507      6887.9752      10112.159    
     27600   292.35382     -3246.6529     -3263.5448      16.891995      6757.0083      10112.159    
     27700   292.12402     -3247.292      -3264.1707      16.878717      6607.9923      10112.159    
     27800   306.0488      -3247.7859     -3265.4691      17.683281      6080.3987      10112.159    
     27900   274.20397     -3247.9927     -3263.836       15.843309      6721.1686      10112.159    
     28000   288.29458     -3246.5356     -3263.1931      16.657455      6865.3416      10112.159    
     28100   317.35744     -3245.7425     -3264.0792      18.336686      6775.8968      10112.159    
     28200   304.95424     -3246.2153     -3263.8354      17.620038      6727.0169      10112.159    
     28300   287.35701     -3246.9487     -3263.552       16.603282      6636.7908      10112.159    
     28400   304.58545     -3247.305      -3264.9037      17.59873       6460.6134      10112.159    
     28500   277.9622      -3247.7711     -3263.8315      16.060457      6579.0644      10112.159    
     28600   298.37322     -3247.058      -3264.2978      17.239791      6589.0322      10112.159    
     28700   309.50767     -3245.7094     -3263.5925      17.883132      6823.1189      10112.159    
     28800   311.77269     -3245.1208     -3263.1348      18.014003      7182.8429      10112.159    
     28900   304.96772     -3246.0441     -3263.665       17.620817      6924.9879      10112.159    
     29000   292.98804     -3246.6947     -3263.6233      16.928639      6889.1984      10112.159    
     29100   300.4699      -3246.8614     -3264.2224      17.360936      6561.3117      10112.159    
     29200   283.36513     -3246.9916     -3263.3642      16.372634      6637.9957      10112.159    
     29300   319.8264      -3245.7239     -3264.2032      18.479341      6774.5411      10112.159    
     29400   308.85668     -3245.2507     -3263.0962      17.845518      7099.5476      10112.159    
     29500   306.19716     -3244.5769     -3262.2687      17.691853      7143.1942      10112.159    
     29600   303.97488     -3245.142      -3262.7055      17.563451      7352.1819      10112.159    
     29700   301.98156     -3246.3502     -3263.7985      17.448279      6757.7086      10112.159    
     29800   307.49553     -3247.1299     -3264.8968      17.766872      6438.0226      10112.159    
     29900   280.32317     -3247.6825     -3263.8794      16.196872      6445.8003      10112.159    
     30000   307.84915     -3246.3442     -3264.1315      17.787303      6837.9388      10112.159    
     30100   289.25808     -3245.7524     -3262.4655      16.713125      7007.5614      10112.159    
     30200   310.59143     -3245.5956     -3263.5413      17.945751      6883.5272      10112.159    
     30300   316.00709     -3246.021      -3264.2796      18.258663      6734.1268      10112.159    
     30400   297.07056     -3246.8771     -3264.0416      17.164524      6532.3927      10112.159    
     30500   294.82192     -3247.4488     -3264.4834      17.0346        6595.7308      10112.159    
     30600   277.55018     -3248.3467     -3264.3834      16.036651      6534.4756      10112.159    
     30700   288.90415     -3248.0164     -3264.709       16.692675      6370.5733      10112.159    
     30800   292.49487     -3246.5532     -3263.4533      16.900144      6811.8184      10112.159    
     30900   309.5369      -3245.4368     -3263.3216      17.884821      7073.126       10112.159    
     31000   309.48089     -3245.2989     -3263.1804      17.881584      7172.0715      10112.159    
     31100   280.7087      -3246.5914     -3262.8105      16.219148      6823.3118      10112.159    
     31200   311.66245     -3246.8984     -3264.906       18.007634      6745.0424      10112.159    
     31300   294.24226     -3247.1665     -3264.1676      17.001108      6479.1053      10112.159    
     31400   290.40353     -3246.6306     -3263.4099      16.779309      6988.0985      10112.159    
     31500   303.86311     -3245.6436     -3263.2006      17.556993      7029.6027      10112.159    
     31600   319.59668     -3245.2655     -3263.7316      18.466068      6986.5642      10112.159    
     31700   310.67205     -3245.778      -3263.7284      17.950409      6830.5996      10112.159    
     31800   284.95786     -3247.1964     -3263.661       16.464661      6654.5547      10112.159    
     31900   288.6335      -3247.6124     -3264.2894      16.677037      6474.3836      10112.159    
     32000   309.4864      -3247.0108     -3264.8927      17.881903      6539.0616      10112.159    
     32100   284.24585     -3245.891      -3262.3145      16.423522      6998.4349      10112.159    
     32200   325.38161     -3245.2085     -3264.0089      18.800317      6874.2109      10112.159    
     32300   311.19895     -3245.637      -3263.6179      17.980853      7043.9215      10112.159    
     32400   288.55611     -3246.5518     -3263.2244      16.672566      7118.7772      10112.159    
     32500   296.03328     -3247.0265     -3264.131       17.104591      6526.5641      10112.159    
     32600   310.16377     -3246.8016     -3264.7227      17.921041      6511.2476      10112.159    
     32700   292.25148     -3246.4261     -3263.3121      16.886081      6548.8678      10112.159    
     32800   309.44992     -3244.2711     -3262.1509      17.879795      7157.38        10112.159    
     32900   307.51794     -3244.6041     -3262.3723      17.768167      7108.24        10112.159    
     33000   311.33708     -3246.2499     -3264.2388      17.988834      6771.3813      10112.159    
     33100   289.29257     -3247.0003     -3263.7154      16.715118      6711.3649      10112.159    
     33200   302.92518     -3246.8034     -3264.3062      17.5028        6636.6342      10112.159    
     33300   296.32526     -3246.4286     -3263.5501      17.121462      6939.3116      10112.159    
     33400   313.06774     -3245.0669     -3263.1557      18.08883       7160.9034      10112.159    
     33500   310.68634     -3244.8856     -3262.8369      17.951234      7029.8785      10112.159    
     33600   305.87756     -3246.7658     -3264.4392      17.673387      6505.6862      10112.159    
     33700   300.51017     -3247.4517     -3264.8149      17.363262      6503.9625      10112.159    
     33800   272.76532     -3247.3457     -3263.1059      15.760185      6817.9322      10112.159    
     33900   306.10018     -3246.0695     -3263.7557      17.686249      6765.6163      10112.159    
     34000   310.74213     -3245.6148     -3263.5693      17.954458      6833.8778      10112.159    
     34100   307.81802     -3245.8911     -3263.6766      17.785505      7026.3153      10112.159    
     34200   284.95468     -3247.7263     -3264.1908      16.464478      6605.9072      10112.159    
     34300   282.51437     -3248.3379     -3264.6614      16.323478      6443.2412      10112.159    
     34400   291.57845     -3247.4035     -3264.2507      16.847195      6605.9171      10112.159    
     34500   295.85983     -3246.2802     -3263.3748      17.094569      6963.0585      10112.159    
     34600   317.45925     -3246.0242     -3264.3668      18.342568      6439.576       10112.159    
     34700   300.25531     -3246.3706     -3263.7192      17.348537      6942.1889      10112.159    
     34800   285.54309     -3246.7346     -3263.2331      16.498475      6920.6588      10112.159    
     34900   295.94049     -3247.9164     -3265.0156      17.09923       6286.7578      10112.159    
     35000   290.63777     -3248.3608     -3265.1537      16.792843      6358.7446      10112.159    
     35100   291.56475     -3247.3895     -3264.2359      16.846403      6515.9398      10112.159    
     35200   315.71051     -3245.6257     -3263.8673      18.241527      6773.6695      10112.159    
     35300   290.98761     -3246.1851     -3262.9981      16.813056      7002.4417      10112.159    
     35400   293.88773     -3246.9114     -3263.892       16.980623      6701.8639      10112.159    
     35500   303.29469     -3247.1355     -3264.6596      17.52415       6442.0208      10112.159    
     35600   294.46996     -3246.8805     -3263.8948      17.014264      6673.3553      10112.159    
     35700   308.13836     -3245.5693     -3263.3733      17.804014      6909.2088      10112.159    
     35800   302.65936     -3245.0597     -3262.5472      17.487442      7318.1161      10112.159    
     35900   308.97182     -3245.7185     -3263.5706      17.852171      6850.4274      10112.159    
     36000   289.32275     -3247.6056     -3264.3224      16.716862      6455.4943      10112.159    
     36100   299.3138      -3247.6015     -3264.8957      17.294137      6324.1598      10112.159    
     36200   280.4886      -3246.8787     -3263.0851      16.206431      6912.2568      10112.159    
     36300   310.57423     -3245.6745     -3263.6192      17.944757      7015.9945      10112.159    
     36400   300.44148     -3245.9149     -3263.2742      17.359294      6890.2795      10112.159    
     36500   314.86121     -3246.1183     -3264.3107      18.192455      6714.7771      10112.159    
     36600   278.90896     -3247.7054     -3263.8205      16.11516       6699.8489      10112.159    
     36700   283.91046     -3247.9183     -3264.3224      16.404143      6438.5399      10112.159    
     36800   292.06894     -3247.2434     -3264.1189      16.875534      6430.0438      10112.159    
     36900   305.14746     -3246.658      -3264.2892      17.631202      6485.819       10112.159    
     37000   312.36617     -3246.3347     -3264.383       18.048294      6656.2558      10112.159    
     37100   295.54105     -3246.3933     -3263.4695      17.07615       6821.6101      10112.159    
     37200   312.77751     -3245.6562     -3263.7283      18.072061      6949.5085      10112.159    
     37300   297.25017     -3244.8831     -3262.058       17.174902      7287.4739      10112.159    
     37400   313.95961     -3244.8215     -3262.9619      18.140362      7184.6336      10112.159    
     37500   307.07374     -3246.473      -3264.2155      17.742501      6688.3261      10112.159    
     37600   297.78534     -3247.2159     -3264.4217      17.205824      6566.7336      10112.159    
     37700   297.29834     -3247.0141     -3264.1918      17.177685      6790.7399      10112.159    
     37800   292.44769     -3246.3146     -3263.212       16.897418      6980.1903      10112.159    
     37900   319.71146     -3244.6202     -3263.0929      18.4727        7195.9488      10112.159    
     38000   323.75551     -3244.5637     -3263.2701      18.706362      7011.2744      10112.159    
     38100   296.07023     -3245.5504     -3262.6571      17.106726      7135.9476      10112.159    
     38200   310.54466     -3246.207      -3264.15        17.943048      6913.9256      10112.159    
     38300   284.44816     -3247.0541     -3263.4893      16.435211      6683.3586      10112.159    
     38400   312.98087     -3246.6625     -3264.7463      18.083811      6584.7982      10112.159    
     38500   303.7867      -3246.4883     -3264.0409      17.552579      6793.0603      10112.159    
     38600   304.08944     -3245.1588     -3262.7289      17.57007       7277.4899      10112.159    
     38700   312.8949      -3244.3846     -3262.4635      18.078844      7397.1946      10112.159    
     38800   306.22423     -3245.747      -3263.4404      17.693417      6858.0189      10112.159    
     38900   310.66764     -3246.5364     -3264.4866      17.950154      6802.664       10112.159    
     39000   291.70851     -3247.0689     -3263.9236      16.854709      6829.0805      10112.159    
     39100   284.68948     -3247.0536     -3263.5027      16.449155      6967.3397      10112.159    
     39200   319.72827     -3245.4626     -3263.9362      18.473671      7015.2121      10112.159    
     39300   305.77436     -3244.9687     -3262.6361      17.667424      7161.9664      10112.159    
     39400   313.23246     -3245.5721     -3263.6704      18.098347      6835.9053      10112.159    
     39500   293.78762     -3247.3797     -3264.3546      16.974839      6605.8541      10112.159    
     39600   291.87573     -3247.5477     -3264.4121      16.864371      6568.545       10112.159    
     39700   285.31802     -3246.7342     -3263.2197      16.485471      6896.1894      10112.159    
     39800   303.42935     -3245.9645     -3263.4964      17.531931      6963.7028      10112.159    
     39900   320.19432     -3245.832      -3264.3326      18.500599      6613.6694      10112.159    
     40000   304.75323     -3246.0525     -3263.6609      17.608424      6931.7443      10112.159    
     40100   277.3569      -3247.4363     -3263.4618      16.025483      7055.8662      10112.159    
     40200   292.80992     -3247.9693     -3264.8876      16.918348      6352.1974      10112.159    
     40300   287.89876     -3247.3759     -3264.0105      16.634584      6844.2865      10112.159    
     40400   317.25168     -3245.7893     -3264.1199      18.330575      6413.3592      10112.159    
     40500   299.18259     -3245.7842     -3263.0708      17.286556      7119.2136      10112.159    
     40600   306.25697     -3245.9145     -3263.6098      17.695309      7045.2672      10112.159    
     40700   294.39172     -3247.0989     -3264.1086      17.009743      6596.5091      10112.159    
     40800   288.07242     -3247.9359     -3264.5805      16.644619      6239.8724      10112.159    
     40900   298.80268     -3247.4257     -3264.6903      17.264605      6392.6524      10112.159    
     41000   296.56842     -3246.8133     -3263.9488      17.135511      6834.6749      10112.159    
     41100   271.8197      -3246.8034     -3262.5089      15.705548      7170.1311      10112.159    
     41200   319.39772     -3246.08       -3264.5345      18.454572      6814.0596      10112.159    
     41300   310.72184     -3245.9856     -3263.9389      17.953286      6685.7059      10112.159    
     41400   301.42973     -3245.8323     -3263.2487      17.416394      6927.9991      10112.159    
     41500   294.8115      -3246.3452     -3263.3792      17.033998      6703.8657      10112.159    
     41600   303.3404      -3247.0923     -3264.6191      17.526791      6559.8706      10112.159    
     41700   274.91178     -3247.8092     -3263.6935      15.884206      6607.378       10112.159    
     41800   303.13511     -3246.8041     -3264.319       17.51493       6747.1151      10112.159    
     41900   310.80794     -3245.4419     -3263.4002      17.95826       6810.2715      10112.159    
     42000   321.62889     -3245.1024     -3263.6859      18.583487      6936.168       10112.159    
     42100   304.82223     -3245.5413     -3263.1537      17.612411      7075.233       10112.159    
     42200   282.50363     -3246.3708     -3262.6937      16.322858      6924.3021      10112.159    
     42300   318.44555     -3246.6454     -3265.045       18.399556      6636.2164      10112.159    
     42400   295.41507     -3247.3075     -3264.3763      17.068871      6382.3149      10112.159    
     42500   281.40136     -3247.0511     -3263.3103      16.259169      6662.7832      10112.159    
     42600   312.36597     -3245.5787     -3263.627       18.048282      6682.3234      10112.159    
     42700   303.10485     -3245.1602     -3262.6734      17.513182      7211.6835      10112.159    
     42800   313.38831     -3245.4135     -3263.5209      18.107352      6831.3435      10112.159    
     42900   310.57633     -3246.8146     -3264.7595      17.944878      6475.2743      10112.159    
     43000   291.3797      -3247.4727     -3264.3084      16.835711      6373.1674      10112.159    
     43100   294.06813     -3247.2068     -3264.1978      16.991046      6573.9991      10112.159    
     43200   295.00177     -3246.5094     -3263.5544      17.044991      6807.7694      10112.159    
     43300   307.8294      -3246.1655     -3263.9516      17.786163      6705.5832      10112.159    
     43400   305.5127      -3246.2306     -3263.8829      17.652305      6734.1613      10112.159    
     43500   298.8422      -3246.3951     -3263.662       17.266889      7014.5335      10112.159    
     43600   293.11117     -3246.911      -3263.8467      16.935754      6737.1579      10112.159    
     43700   293.69918     -3247.7998     -3264.7696      16.969728      6474.555       10112.159    
     43800   284.28738     -3248.1022     -3264.5282      16.425921      6455.775       10112.159    
     43900   310.18163     -3246.8595     -3264.7816      17.922073      6550.5932      10112.159    
     44000   301.43342     -3245.7769     -3263.1935      17.416608      7177.9134      10112.159    
     44100   286.2253      -3245.5643     -3262.1022      16.537893      7234.0491      10112.159    
     44200   320.56425     -3245.7826     -3264.3045      18.521973      6725.5205      10112.159    
     44300   300.70288     -3247.0104     -3264.3848      17.374397      6532.4301      10112.159    
     44400   283.43394     -3246.9828     -3263.3594      16.376611      6714.4735      10112.159    
     44500   310.92555     -3246.3314     -3264.2964      17.965056      6773.0097      10112.159    
     44600   302.57288     -3246.2328     -3263.7153      17.482445      6685.3928      10112.159    
     44700   295.3653      -3246.1502     -3263.2162      17.065996      6865.058       10112.159    
     44800   308.79242     -3246.1216     -3263.9634      17.841805      6801.8858      10112.159    
     44900   297.82684     -3246.4991     -3263.7073      17.208222      6870.6157      10112.159    
     45000   286.98982     -3247.1801     -3263.7621      16.582066      6736.5141      10112.159    
     45100   299.83385     -3246.9404     -3264.2645      17.324185      6638.226       10112.159    
     45200   305.92709     -3246.1268     -3263.8031      17.676249      6901.7442      10112.159    
     45300   314.26823     -3244.9023     -3263.0605      18.158194      7170.2615      10112.159    
     45400   304.58868     -3244.9326     -3262.5315      17.598916      7110.8887      10112.159    
     45500   301.78769     -3246.5389     -3263.976       17.437077      6801.9958      10112.159    
     45600   302.71164     -3247.0414     -3264.5319      17.490462      6382.5979      10112.159    
     45700   285.88012     -3247.1224     -3263.6403      16.517949      6556.9079      10112.159    
     45800   303.59584     -3246.2962     -3263.8377      17.541551      6666.1925      10112.159    
     45900   307.8547      -3245.4068     -3263.1944      17.787624      7099.4358      10112.159    
     46000   311.71882     -3245.2652     -3263.2761      18.010891      6900.5848      10112.159    
     46100   303.19773     -3246.7997     -3264.3183      17.518548      6813.6875      10112.159    
     46200   272.23105     -3247.769      -3263.4983      15.729315      6603.0857      10112.159    
     46300   305.16402     -3246.9683     -3264.6004      17.632159      6704.4019      10112.159    
     46400   291.4554      -3246.2225     -3263.0626      16.840084      6757.9978      10112.159    
     46500   321.53994     -3244.9581     -3263.5365      18.578348      7233.9621      10112.159    
     46600   296.6788      -3245.5382     -3262.6801      17.141889      6767.7428      10112.159    
     46700   315.58364     -3245.6311     -3263.8653      18.234197      6914.1316      10112.159    
     46800   290.01167     -3246.5075     -3263.2642      16.756667      6623.6982      10112.159    
     46900   290.28407     -3246.9862     -3263.7586      16.772406      7115.2069      10112.159    
     47000   304.27525     -3246.9286     -3264.5094      17.580807      6626.6983      10112.159    
     47100   292.37997     -3246.6075     -3263.501       16.893506      6960.4597      10112.159    
     47200   309.31697     -3245.6351     -3263.5073      17.872113      6866.2901      10112.159    
     47300   310.18252     -3245.3341     -3263.2562      17.922124      7185.556       10112.159    
     47400   295.93916     -3246.1441     -3263.2433      17.099153      6848.2481      10112.159    
     47500   301.75044     -3247.2994     -3264.7343      17.434925      6594.3452      10112.159    
     47600   286.09306     -3248.1124     -3264.6427      16.530253      6442.1074      10112.159    
     47700   304.81225     -3247.0802     -3264.692       17.611834      6399.3326      10112.159    
     47800   300.83311     -3246.0472     -3263.4291      17.381922      6831.3687      10112.159    
     47900   311.2976      -3245.85       -3263.8365      17.986553      6965.9321      10112.159    
     48000   292.39068     -3246.4428     -3263.3369      16.894124      6822.4848      10112.159    
     48100   292.93893     -3247.0329     -3263.9587      16.925802      6435.6084      10112.159    
     48200   298.76735     -3247.4183     -3264.6808      17.262564      6538.498       10112.159    
     48300   278.6216      -3247.9567     -3264.0553      16.098557      6485.3266      10112.159    
     48400   304.36009     -3246.7985     -3264.3843      17.585709      6525.9367      10112.159    
     48500   297.79614     -3245.7449     -3262.9514      17.206448      6930.6054      10112.159    
     48600   314.98105     -3245.319      -3263.5183      18.19938       6985.7753      10112.159    
     48700   298.45032     -3245.9702     -3263.2144      17.244246      6939.1374      10112.159    
     48800   276.362       -3247.8303     -3263.7983      15.967999      6495.9904      10112.159    
     48900   294.02499     -3248.4424     -3265.4309      16.988553      6207.2984      10112.159    
     49000   288.55987     -3247.6858     -3264.3586      16.672783      6422.0107      10112.159    
     49100   309.48633     -3246.4657     -3264.3476      17.881899      6581.4339      10112.159    
     49200   290.20717     -3246.1995     -3262.9675      16.767963      7118.4346      10112.159    
     49300   299.55647     -3245.6576     -3262.9658      17.308159      6816.227       10112.159    
     49400   318.56244     -3245.3839     -3263.7902      18.40631       6849.57        10112.159    
     49500   304.32777     -3246.4217     -3264.0056      17.583841      6629.1741      10112.159    
     49600   294.44456     -3247.6717     -3264.6845      17.012796      6365.4951      10112.159    
     49700   285.60507     -3247.7913     -3264.2933      16.502057      6460.5054      10112.159    
     49800   302.9066      -3246.5418     -3264.0435      17.501727      6511.0435      10112.159    
     49900   300.37916     -3245.9344     -3263.2901      17.355693      6714.7872      10112.159    
     50000   304.59623     -3245.703      -3263.3023      17.599352      6772.2351      10112.159    
     50100   314.59243     -3245.9963     -3264.1732      18.176926      6457.4894      10112.159    
     50200   291.49658     -3246.8245     -3263.6669      16.842464      6419.0246      10112.159    
     50300   303.55718     -3246.8812     -3264.4206      17.539317      6523.662       10112.159    
     50400   277.37305     -3247.5631     -3263.5895      16.026416      6650.1684      10112.159    
     50500   297.33307     -3247.8946     -3265.0743      17.179692      6247.4603      10112.159    
     50600   292.08546     -3247.0699     -3263.9464      16.876489      6684.9127      10112.159    
     50700   302.31716     -3245.7605     -3263.2282      17.467669      6898.9606      10112.159    
     50800   309.70774     -3245.5455     -3263.4401      17.894691      6769.7607      10112.159    
     50900   297.7536      -3246.1621     -3263.3661      17.20399       6846.6882      10112.159    
     51000   294.88388     -3247.8821     -3264.9203      17.03818       6146.8621      10112.159    
     51100   277.5752      -3248.4843     -3264.5224      16.038097      6272.9763      10112.159    
     51200   294.69014     -3247.2494     -3264.2764      17.026986      6434.7082      10112.159    
     51300   308.2678      -3246.2657     -3264.0772      17.811493      6576.984       10112.159    
     51400   290.73393     -3246.1095     -3262.9079      16.798399      6917.6514      10112.159    
     51500   305.06831     -3245.791      -3263.4177      17.626629      6668.3367      10112.159    
     51600   299.44917     -3246.1645     -3263.4664      17.301959      6847.0926      10112.159    
     51700   289.63376     -3247.4108     -3264.1456      16.734831      6629.5214      10112.159    
     51800   288.76018     -3247.9581     -3264.6424      16.684357      6429.9562      10112.159    
     51900   290.96689     -3247.1218     -3263.9337      16.811859      6772.9829      10112.159    
     52000   310.6773      -3245.5626     -3263.5133      17.950712      6808.7539      10112.159    
     52100   299.77705     -3245.8046     -3263.1255      17.320904      6954.108       10112.159    
     52200   297.27994     -3246.6364     -3263.813       17.176622      6425.5451      10112.159    
     52300   296.2125      -3247.2474     -3264.3623      17.114946      6405.6329      10112.159    
     52400   308.16493     -3246.9772     -3264.7827      17.805549      6482.8712      10112.159    
     52500   294.65877     -3245.7026     -3262.7277      17.025173      7182.7643      10112.159    
     52600   320.21543     -3244.5873     -3263.0891      18.501818      7324.0835      10112.159    
     52700   307.53287     -3245.5274     -3263.2964      17.76903       6825.3107      10112.159    
     52800   313.0376      -3246.4883     -3264.5754      18.087089      6399.0678      10112.159    
     52900   299.77437     -3246.7769     -3264.0976      17.320748      6586.4155      10112.159    
     53000   298.91103     -3246.7105     -3263.9814      17.270865      6576.417       10112.159    
     53100   292.83996     -3246.7667     -3263.6868      16.920083      6807.2316      10112.159    
     53200   303.7791      -3246.2388     -3263.7909      17.552139      6679.9887      10112.159    
     53300   313.31894     -3245.2747     -3263.3781      18.103344      6877.2365      10112.159    
     53400   317.87035     -3245.209      -3263.5753      18.366321      7042.2612      10112.159    
     53500   281.87501     -3246.6141     -3262.9007      16.286536      7105.1399      10112.159    
     53600   297.38661     -3247.1154     -3264.2982      17.182786      6647.5823      10112.159    
     53700   286.57622     -3247.4669     -3264.0251      16.558169      6611.9054      10112.159    
     53800   317.77907     -3246.1645     -3264.5255      18.361048      6665.2398      10112.159    
     53900   306.40152     -3244.9941     -3262.6977      17.703661      6908.543       10112.159    
     54000   308.41278     -3245.2432     -3263.063       17.81987       7160.1437      10112.159    
     54100   295.73998     -3246.6397     -3263.7274      17.087645      6640.6311      10112.159    
     54200   297.54481     -3246.8453     -3264.0372      17.191927      6628.839       10112.159    
     54300   304.6794      -3246.6014     -3264.2056      17.604158      6637.3174      10112.159    
     54400   291.78894     -3246.5453     -3263.4047      16.859356      6937.0028      10112.159    
     54500   318.36524     -3245.2909     -3263.6858      18.394916      6960.4414      10112.159    
     54600   303.1192      -3244.8501     -3262.3641      17.514011      7362.9148      10112.159    
     54700   312.08888     -3245.8444     -3263.8767      18.032272      6861.998       10112.159    
     54800   294.7992      -3247.4052     -3264.4385      17.033287      6625.8012      10112.159    
     54900   286.78165     -3247.5734     -3264.1435      16.570039      6461.759       10112.159    
     55000   295.328       -3246.7692     -3263.8331      17.063841      6951.6456      10112.159    
     55100   310.84824     -3245.3844     -3263.3449      17.960589      7087.4613      10112.159    
     55200   300.40232     -3245.4882     -3262.8452      17.357031      7083.3858      10112.159    
     55300   312.49143     -3245.9847     -3264.0402      18.055532      6714.7325      10112.159    
     55400   293.60975     -3246.6365     -3263.6011      16.964561      6672.8789      10112.159    
     55500   298.31635     -3246.7489     -3263.9854      17.236505      6815.5426      10112.159    
     55600   280.49566     -3247.4233     -3263.6301      16.206838      6714.2834      10112.159    
     55700   297.51674     -3248.0882     -3265.2785      17.190305      6012.0789      10112.159    
     55800   297.9235      -3247.8215     -3265.0353      17.213807      6436.1811      10112.159    
     55900   299.84197     -3246.3335     -3263.6581      17.324654      6870.5726      10112.159    
     56000   286.93383     -3245.7612     -3262.3401      16.578832      7259.4124      10112.159    
     56100   316.3187      -3245.6677     -3263.9444      18.276669      6790.1014      10112.159    
     56200   298.14508     -3246.6008     -3263.8274      17.226609      6863.6326      10112.159    
     56300   294.11018     -3247.7147     -3264.7082      16.993476      6592.4375      10112.159    
     56400   262.11925     -3249.1392     -3264.2843      15.145063      6487.837       10112.159    
     56500   285.6481      -3248.2728     -3264.7773      16.504543      6444.5972      10112.159    
     56600   299.70899     -3247.2735     -3264.5904      17.316971      6540.2093      10112.159    
     56700   305.00284     -3246.3257     -3263.9485      17.622846      6730.5884      10112.159    
     56800   301.26511     -3245.9322     -3263.3391      17.406883      6988.175       10112.159    
     56900   297.34075     -3246.0758     -3263.2559      17.180136      7123.5716      10112.159    
     57000   280.74746     -3247.2296     -3263.4509      16.221387      6940.1373      10112.159    
     57100   311.00501     -3247.9439     -3265.9135      17.969647      6137.4697      10112.159    
     57200   293.11061     -3248.0292     -3264.9649      16.935721      6563.125       10112.159    
     57300   289.49383     -3246.3189     -3263.0457      16.726746      7056.2695      10112.159    
     57400   305.97671     -3245.5405     -3263.2196      17.679116      7161.0482      10112.159    
     57500   307.55039     -3245.8967     -3263.6667      17.770042      7044.4834      10112.159    
     57600   306.47932     -3246.6628     -3264.3709      17.708156      7034.3407      10112.159    
     57700   285.7502      -3247.8917     -3264.4022      16.510442      6534.2223      10112.159    
     57800   288.44462     -3247.827      -3264.4931      16.666124      6598.2875      10112.159    
     57900   296.18431     -3246.2859     -3263.3992      17.113318      7068.5089      10112.159    
     58000   300.49068     -3245.6318     -3262.994       17.362137      7248.0587      10112.159    
     58100   315.22869     -3245.9129     -3264.1266      18.213688      6712.1959      10112.159    
     58200   293.37673     -3246.8967     -3263.8478      16.951097      6663.0855      10112.159    
     58300   299.3913      -3247.007      -3264.3056      17.298615      6667.6163      10112.159    
     58400   284.45337     -3246.8939     -3263.3295      16.435512      7022.6021      10112.159    
     58500   306.62144     -3245.7629     -3263.4793      17.716367      7055.2683      10112.159    
     58600   300.83236     -3244.9774     -3262.3593      17.381878      7232.9896      10112.159    
     58700   331.23442     -3244.6681     -3263.8066      19.138488      6999.1816      10112.159    
     58800   301.49906     -3246.4968     -3263.9172      17.4204        7004.3315      10112.159    
     58900   283.15253     -3247.262      -3263.6223      16.360351      6677.3516      10112.159    
     59000   291.99952     -3246.9369     -3263.8084      16.871524      6843.8631      10112.159    
     59100   318.84973     -3245.8619     -3264.2848      18.422909      6836.3538      10112.159    
     59200   292.32499     -3245.7642     -3262.6545      16.890329      7299.787       10112.159    
     59300   306.10503     -3246.0863     -3263.7728      17.68653       7264.1549      10112.159    
     59400   290.56979     -3247.066      -3263.8549      16.788915      6903.5408      10112.159    
     59500   288.17801     -3247.6113     -3264.262       16.650719      6664.4989      10112.159    
     59600   294.74916     -3247.3929     -3264.4233      17.030395      6668.3111      10112.159    
     59700   317.48457     -3245.8315     -3264.1756      18.344032      6857.9355      10112.159    
     59800   298.98519     -3245.4452     -3262.7204      17.27515       7218.7125      10112.159    
     59900   293.92828     -3245.9976     -3262.9806      16.982966      7289.7131      10112.159    
     60000   308.64597     -3246.8012     -3264.6346      17.833343      6758.8993      10112.159    
     60100   282.79859     -3248.0786     -3264.4185      16.339901      6614.428       10112.159    
     60200   281.80741     -3249.3152     -3265.5978      16.28263       6401.496       10112.159    
     60300   275.00429     -3249.6276     -3265.5171      15.889551      6130.6447      10112.159    
     60400   282.24794     -3247.9369     -3264.2449      16.308084      6759.7474      10112.159    
     60500   306.02203     -3246.7325     -3264.4142      17.681734      7016.0991      10112.159    
     60600   302.99296     -3245.9029     -3263.4096      17.506717      6989.004       10112.159    
     60700   305.47514     -3245.3446     -3262.9947      17.650135      7152.2586      10112.159    
     60800   317.7723      -3245.5122     -3263.8728      18.360656      7115.1445      10112.159    
     60900   272.49678     -3247.424      -3263.1687      15.744669      7140.9839      10112.159    
     61000   300.60089     -3247.2772     -3264.6457      17.368504      6730.8848      10112.159    
     61100   309.10988     -3246.8191     -3264.6793      17.860148      6898.7749      10112.159    
     61200   303.08987     -3245.8332     -3263.3455      17.512316      6999.5115      10112.159    
     61300   309.91779     -3244.5705     -3262.4773      17.906828      7624.8438      10112.159    
     61400   316.23868     -3244.9941     -3263.2661      18.272045      7195.9855      10112.159    
     61500   299.75861     -3246.0131     -3263.333       17.319838      7138.558       10112.159    
     61600   313.16512     -3246.3212     -3264.4157      18.094456      6850.3438      10112.159    
     61700   291.95305     -3246.9708     -3263.8397      16.868839      6639.7889      10112.159    
     61800   301.99223     -3246.8873     -3264.3362      17.448895      6984.4698      10112.159    
     61900   296.17045     -3246.179      -3263.2915      17.112517      6971.2382      10112.159    
     62000   304.00438     -3244.914      -3262.4792      17.565156      7715.8931      10112.159    
     62100   322.02263     -3245.0282     -3263.6344      18.606237      7124.5451      10112.159    
     62200   309.95797     -3246.1035     -3264.0127      17.90915       7219.5333      10112.159    
     62300   286.81266     -3246.7141     -3263.2859      16.57183       7303.3092      10112.159    
     62400   299.80653     -3246.7974     -3264.12        17.322607      7061.9804      10112.159    
     62500   298.473       -3246.918      -3264.1635      17.245556      6878.6283      10112.159    
     62600   314.91445     -3246.0845     -3264.28        18.195532      6649.3278      10112.159    
     62700   318.83744     -3245.0654     -3263.4876      18.422199      7232.6932      10112.159    
     62800   289.2569      -3245.6614     -3262.3745      16.713057      7391.1386      10112.159    
     62900   300.40826     -3246.6535     -3264.0109      17.357374      7033.6112      10112.159    
     63000   292.68007     -3247.8751     -3264.7859      16.910845      6788.9596      10112.159    
     63100   294.86021     -3247.8164     -3264.8532      17.036812      6384.2681      10112.159    
     63200   295.70452     -3247.266      -3264.3516      17.085596      6742.7861      10112.159    
     63300   290.84213     -3246.6449     -3263.4496      16.80465       7253.1437      10112.159    
     63400   298.83163     -3245.8675     -3263.1337      17.266278      7196.7698      10112.159    
     63500   305.86203     -3245.5758     -3263.2483      17.672489      7203.11        10112.159    
     63600   313.74967     -3246.2343     -3264.3625      18.128232      7055.8894      10112.159    
     63700   283.56559     -3247.9208     -3264.305       16.384217      6793.1171      10112.159    
     63800   286.27207     -3247.6141     -3264.1547      16.540596      6768.4058      10112.159    
     63900   293.51961     -3246.5477     -3263.5071      16.959353      7027.3586      10112.159    
     64000   305.02565     -3245.9304     -3263.5545      17.624164      7126.9884      10112.159    
     64100   318.35872     -3245.4939     -3263.8885      18.394539      7112.9931      10112.159    
     64200   306.08685     -3246.0611     -3263.7466      17.685479      7055.8432      10112.159    
     64300   269.57116     -3247.7246     -3263.3002      15.575629      6962.0634      10112.159    
     64400   282.52903     -3247.5921     -3263.9164      16.324325      6857.3291      10112.159    
     64500   310.13277     -3246.4647     -3264.3839      17.91925       6869.0748      10112.159    
     64600   306.70614     -3245.591      -3263.3122      17.721261      7298.523       10112.159    
     64700   303.47335     -3245.5397     -3263.0741      17.534473      7076.0199      10112.159    
     64800   286.91012     -3246.564      -3263.1415      16.577462      7157.5181      10112.159    
     64900   286.17439     -3248.5215     -3265.0565      16.534951      6362.5709      10112.159    
     65000   290.27427     -3248.5423     -3265.3142      16.77184       6442.4226      10112.159    
     65100   298.91492     -3247.475      -3264.7461      17.271091      6420.5522      10112.159    
     65200   289.44684     -3246.3545     -3263.0785      16.724031      7298.0789      10112.159    
     65300   311.59574     -3245.3416     -3263.3454      18.003779      7184.4299      10112.159    
     65400   301.54372     -3245.8322     -3263.2552      17.42298       7186.0591      10112.159    
     65500   316.72188     -3246.6019     -3264.9018      18.299964      6869.0716      10112.159    
     65600   276.31088     -3247.6678     -3263.6329      15.965045      6738.1429      10112.159    
     65700   283.22435     -3247.3725     -3263.737       16.364501      7003.2026      10112.159    
     65800   309.58413     -3246.8698     -3264.7574      17.88755       6725.6663      10112.159    
     65900   292.01588     -3246.5696     -3263.4421      16.872469      6854.597       10112.159    
     66000   323.28957     -3245.5686     -3264.2481      18.67944       6957.5401      10112.159    
     66100   294.61557     -3245.9867     -3263.0094      17.022677      7201.6525      10112.159    
     66200   283.49811     -3247.1411     -3263.5215      16.380318      7063.2322      10112.159    
     66300   298.66598     -3248.1792     -3265.4359      17.256706      6270.4108      10112.159    
     66400   275.80067     -3248.1924     -3264.1279      15.935566      6779.0265      10112.159    
     66500   294.23708     -3246.5197     -3263.5205      17.000808      6880.6642      10112.159    
     66600   304.53621     -3246.1143     -3263.7101      17.595885      6776.4019      10112.159    
     66700   300.42565     -3246.3591     -3263.7174      17.358379      6972.1368      10112.159    
     66800   297.44854     -3246.7646     -3263.951       17.186364      6767.6539      10112.159    
     66900   299.32762     -3246.8749     -3264.1698      17.294936      6753.1459      10112.159    
     67000   297.29828     -3246.7935     -3263.9712      17.177682      6894.7256      10112.159    
     67100   295.01583     -3246.1481     -3263.1939      17.045804      7025.0167      10112.159    
     67200   311.68938     -3245.4564     -3263.4656      18.009189      7204.1226      10112.159    
     67300   296.27757     -3246.0734     -3263.1921      17.118706      7100.0365      10112.159    
     67400   290.3112      -3247.4318     -3264.2058      16.773974      6719.1605      10112.159    
     67500   286.30165     -3248.1712     -3264.7135      16.542305      6489.5362      10112.159    
     67600   277.14538     -3247.54       -3263.5532      16.013262      6863.2603      10112.159    
     67700   311.01512     -3246.0581     -3264.0283      17.970231      6959.1643      10112.159    
     67800   307.54298     -3246.0999     -3263.8695      17.769613      6995.7206      10112.159    
     67900   305.42869     -3246.538      -3264.1855      17.647451      6887.375       10112.159    
     68000   266.56882     -3247.4634     -3262.8656      15.402156      6985.1427      10112.159    
     68100   298.77827     -3246.7986     -3264.0618      17.263194      6642.4297      10112.159    
     68200   320.12146     -3245.4333     -3263.9297      18.496389      7052.1084      10112.159    
     68300   321.75628     -3244.3292     -3262.9201      18.590847      7204.2834      10112.159    
     68400   306.64492     -3245.0504     -3262.7681      17.717724      7425.2897      10112.159    
     68500   287.3472      -3246.6354     -3263.2381      16.602716      7036.7606      10112.159    
     68600   304.5058      -3246.7023     -3264.2964      17.594127      6788.7613      10112.159    
     68700   291.45004     -3247.0631     -3263.9028      16.839775      6805.907       10112.159    
     68800   293.58511     -3246.6725     -3263.6356      16.963138      6941.9631      10112.159    
     68900   321.66448     -3245.5536     -3264.1391      18.585544      6773.0431      10112.159    
     69000   297.85656     -3245.375      -3262.585       17.209939      7323.6803      10112.159    
     69100   309.79647     -3245.6545     -3263.5543      17.899819      6947.8279      10112.159    
     69200   284.82277     -3247.2538     -3263.7107      16.456856      6753.4289      10112.159    
     69300   309.33386     -3247.0592     -3264.9323      17.873089      6436.5255      10112.159    
     69400   291.66959     -3246.5881     -3263.4406      16.85246       7115.5423      10112.159    
     69500   302.55064     -3245.0971     -3262.5782      17.48116       7357.0055      10112.159    
     69600   293.52205     -3245.1116     -3262.0711      16.959494      7582.3731      10112.159    
     69700   322.10441     -3245.5483     -3264.1592      18.610963      6715.0348      10112.159    
     69800   320.32447     -3246.0274     -3264.5355      18.508119      7102.3713      10112.159    
     69900   279.1595      -3246.8825     -3263.0121      16.129636      7024.2973      10112.159    
     70000   279.95577     -3246.9837     -3263.1593      16.175644      7053.7279      10112.159    
     70100   309.25621     -3246.0141     -3263.8827      17.868602      6867.1313      10112.159    
     70200   317.54153     -3244.7997     -3263.147       18.347322      7277.5965      10112.159    
     70300   318.99705     -3245.1916     -3263.623       18.431421      7020.6165      10112.159    
     70400   285.32261     -3247.0119     -3263.4976      16.485737      6980.7937      10112.159    
     70500   289.2236      -3247.1217     -3263.8328      16.711133      7075.1311      10112.159    
     70600   312.47917     -3246.7167     -3264.7715      18.054823      6729.0438      10112.159    
     70700   305.97182     -3246.2875     -3263.9663      17.678833      6627.6364      10112.159    
     70800   302.65587     -3245.2322     -3262.7195      17.48724       7294.6861      10112.159    
     70900   297.81395     -3245.2557     -3262.4631      17.207477      7217.9886      10112.159    
     71000   309.60027     -3246.9695     -3264.8579      17.888482      6577.1772      10112.159    
     71100   282.37086     -3248.136      -3264.4512      16.315186      6504.0633      10112.159    
     71200   290.52037     -3247.2477     -3264.0337      16.786059      6738.6671      10112.159    
     71300   307.23175     -3246.0925     -3263.8442      17.751631      6969.7815      10112.159    
     71400   296.91434     -3246.0191     -3263.1746      17.155498      7185.319       10112.159    
     71500   313.15786     -3246.29       -3264.3841      18.094037      6876.3092      10112.159    
     71600   280.72309     -3247.7155     -3263.9355      16.219979      6611.1157      10112.159    
     71700   293.93082     -3247.645      -3264.6281      16.983112      6517.3987      10112.159    
     71800   305.93249     -3246.1137     -3263.7903      17.67656       6914.2214      10112.159    
     71900   302.6097      -3244.688      -3262.1725      17.484572      7206.5096      10112.159    
     72000   321.84635     -3244.8483     -3263.4443      18.596052      7068.3843      10112.159    
     72100   292.57627     -3245.9924     -3262.8972      16.904847      7150.5549      10112.159    
     72200   298.31736     -3246.7688     -3264.0054      17.236564      6895.6398      10112.159    
     72300   301.55282     -3247.3735     -3264.797       17.423506      6301.2081      10112.159    
     72400   292.5913      -3247.0447     -3263.9504      16.905716      6863.2486      10112.159    
     72500   301.79237     -3245.8901     -3263.3275      17.437347      7181.7763      10112.159    
     72600   289.67086     -3245.7438     -3262.4807      16.736975      7360.3397      10112.159    
     72700   311.8145      -3245.7843     -3263.8007      18.016419      6808.0071      10112.159    
     72800   306.8285      -3246.7533     -3264.4816      17.728332      6741.1273      10112.159    
     72900   286.86021     -3247.5646     -3264.1392      16.574578      6627.7921      10112.159    
     73000   298.09465     -3247.1712     -3264.3949      17.223696      6664.5885      10112.159    
     73100   304.25475     -3245.2445     -3262.8242      17.579622      7136.4387      10112.159    
     73200   311.90315     -3244.4213     -3262.4429      18.021541      7448.1969      10112.159    
     73300   317.00173     -3245.1003     -3263.4164      18.316133      7148.4139      10112.159    
     73400   295.10344     -3246.529      -3263.5799      17.050866      6912.556       10112.159    
     73500   300.68712     -3246.8476     -3264.2211      17.373487      6622.7004      10112.159    
     73600   280.72496     -3247.1501     -3263.3702      16.220088      6889.4172      10112.159    
     73700   315.08826     -3246.0535     -3264.2591      18.205574      6810.3768      10112.159    
     73800   319.04549     -3244.9464     -3263.3806      18.43422       7285.5479      10112.159    
     73900   316.53739     -3244.8145     -3263.1038      18.289304      7250.304       10112.159    
     74000   291.21205     -3246.6066     -3263.4326      16.826024      6887.6882      10112.159    
     74100   292.02876     -3247.5542     -3264.4274      16.873213      6788.4553      10112.159    
     74200   285.42692     -3247.9328     -3264.4246      16.491763      6383.2631      10112.159    
     74300   296.32429     -3246.734      -3263.8554      17.121406      6974.6899      10112.159    
     74400   317.51907     -3245.785      -3264.131       18.346025      6955.5297      10112.159    
     74500   302.14909     -3245.9822     -3263.4402      17.457958      7130.1102      10112.159    
     74600   282.53375     -3246.5975     -3262.9221      16.324598      7162.6185      10112.159    
     74700   296.06156     -3247.4878     -3264.594       17.106225      6473.4464      10112.159    
     74800   284.8451      -3248.4864     -3264.9445      16.458146      6314.9092      10112.159    
     74900   293.19811     -3247.6915     -3264.6322      16.940777      6468.5554      10112.159    
     75000   300.84709     -3245.9751     -3263.3578      17.38273       7106.0693      10112.159    
     75100   312.30339     -3245.3486     -3263.3933      18.044667      6947.2967      10112.159    
     75200   295.46106     -3245.9376     -3263.0092      17.071529      6990.6408      10112.159    
     75300   300.37128     -3246.99       -3264.3453      17.355238      6695.9795      10112.159    
     75400   293.87886     -3247.7452     -3264.7254      16.98011       6503.3224      10112.159    
[...]
    281800   318.02937     -3245.6847     -3264.0602      18.37551       6815.051       10112.159    
    281900   299.29695     -3247.2592     -3264.5524      17.293164      6443.8475      10112.159    
    282000   281.19659     -3247.7294     -3263.9767      16.247338      6669.4014      10112.159    
    282100   305.24558     -3246.6683     -3264.3052      17.636871      6709.3601      10112.159    
    282200   300.57173     -3246.3475     -3263.7143      17.366819      6668.3127      10112.159    
    282300   311.44696     -3246.1418     -3264.137       17.995183      6954.0634      10112.159    
    282400   292.50128     -3246.428      -3263.3285      16.900515      6825.1223      10112.159    
    282500   293.20681     -3247.1933     -3264.1346      16.94128       6668.9547      10112.159    
    282600   276.31221     -3248.2209     -3264.1861      15.965122      6696.7924      10112.159    
    282700   287.61342     -3247.7285     -3264.3466      16.618097      6586.8085      10112.159    
    282800   291.16504     -3246.248      -3263.0713      16.823308      7024.6614      10112.159    
    282900   323.90019     -3245.5578     -3264.2725      18.714721      6761.1062      10112.159    
    283000   290.6347      -3246.4753     -3263.268       16.792665      7171.9521      10112.159    
    283100   304.80718     -3246.8597     -3264.4712      17.611541      6630.4429      10112.159    
    283200   296.84892     -3247.2576     -3264.4093      17.151718      6570.9373      10112.159    
    283300   292.82919     -3246.9654     -3263.8848      16.919461      6723.8064      10112.159    
    283400   308.15539     -3245.9457     -3263.7507      17.804998      7259.0282      10112.159    
    283500   313.46491     -3245.5566     -3263.6684      18.111778      6766.7491      10112.159    
    283600   304.18391     -3245.6846     -3263.2601      17.575529      7020.8296      10112.159    
    283700   286.67129     -3247.0711     -3263.6348      16.563662      6712.9755      10112.159    
    283800   289.68081     -3247.751      -3264.4885      16.73755       6697.378       10112.159    
    283900   294.50631     -3247.4342     -3264.4506      17.016364      6595.8938      10112.159    
    284000   307.17517     -3245.1953     -3262.9436      17.748361      7147.632       10112.159    
    284100   309.59178     -3245.0199     -3262.9079      17.887992      7153.4037      10112.159    
    284200   304.89626     -3246.1932     -3263.8099      17.616688      6755.7168      10112.159    
    284300   297.84422     -3247.0618     -3264.271       17.209226      6652.7703      10112.159    
    284400   295.28757     -3246.9956     -3264.0571      17.061505      6836.1798      10112.159    
    284500   298.06313     -3246.2488     -3263.4707      17.221874      7042.3312      10112.159    
    284600   307.90605     -3244.5541     -3262.3447      17.790592      7402.2262      10112.159    
    284700   325.22018     -3243.9716     -3262.7626      18.790989      7417.4585      10112.159    
    284800   307.15742     -3245.3287     -3263.0761      17.747336      7127.354       10112.159    
    284900   295.7133      -3246.3747     -3263.4608      17.086103      6957.5478      10112.159    
    285000   295.61224     -3246.5637     -3263.6439      17.080264      7122.0368      10112.159    
    285100   306.33331     -3246.385      -3264.0847      17.699719      6879.2175      10112.159    
    285200   299.21063     -3246.6487     -3263.9368      17.288176      7000.7609      10112.159    
    285300   293.63092     -3246.8127     -3263.7785      16.965785      6923.571       10112.159    
    285400   291.414       -3246.7358     -3263.5735      16.837693      6990.6272      10112.159    
    285500   316.70393     -3246.019      -3264.3179      18.298927      6773.704       10112.159    
    285600   308.09968     -3245.5618     -3263.3636      17.801779      7220.2315      10112.159    
    285700   317.85875     -3245.2731     -3263.6388      18.365651      7082.1323      10112.159    
    285800   287.95458     -3246.5093     -3263.1471      16.63781       7271.1546      10112.159    
    285900   292.96405     -3247.3221     -3264.2493      16.927254      6596.1328      10112.159    
    286000   296.13108     -3247.1019     -3264.2121      17.110242      6918.0964      10112.159    
    286100   314.70718     -3245.6405     -3263.824       18.183556      6888.1314      10112.159    
    286200   305.95229     -3244.9153     -3262.593       17.677704      7419.4586      10112.159    
    286300   296.16762     -3245.5683     -3262.6807      17.112353      7430.0376      10112.159    
    286400   283.61407     -3248.0459     -3264.4329      16.387018      6857.5428      10112.159    
    286500   292.54059     -3247.6764     -3264.5791      16.902786      6488.1087      10112.159    
    286600   303.03064     -3246.3321     -3263.841       17.508894      7136.9865      10112.159    
    286700   290.92375     -3245.7593     -3262.5687      16.809366      7072.2072      10112.159    
    286800   308.3259      -3245.5459     -3263.3608      17.81485       6995.3443      10112.159    
    286900   289.77872     -3246.6242     -3263.3674      16.743207      6904.4635      10112.159    
    287000   290.47262     -3247.8552     -3264.6385      16.7833        6383.1264      10112.159    
    287100   294.50623     -3247.8306     -3264.8469      17.016359      6571.8173      10112.159    
    287200   293.61469     -3246.9019     -3263.8667      16.964847      7016.4433      10112.159    
    287300   294.33918     -3246.7808     -3263.7875      17.006707      6918.6186      10112.159    
    287400   300.58516     -3246.3664     -3263.734       17.367596      6945.5468      10112.159    
    287500   304.65525     -3245.7819     -3263.3846      17.602762      7060.1186      10112.159    
    287600   312.36603     -3245.7193     -3263.7676      18.048286      7007.9496      10112.159    
    287700   297.27583     -3246.7341     -3263.9105      17.176385      6621.6099      10112.159    
    287800   274.31544     -3247.8882     -3263.738       15.84975       6729.8745      10112.159    
    287900   309.73841     -3247.2738     -3265.1703      17.896464      6335.3033      10112.159    
    288000   293.44207     -3246.3924     -3263.3472      16.954873      6909.4627      10112.159    
    288100   314.73076     -3244.7418     -3262.9267      18.184918      7267.3756      10112.159    
    288200   306.0908      -3245.177      -3262.8627      17.685708      7325.7525      10112.159    
    288300   298.2187      -3246.2958     -3263.5267      17.230863      7118.6808      10112.159    
    288400   308.8234      -3246.9376     -3264.7812      17.843595      6745.5463      10112.159    
    288500   289.2773      -3247.3831     -3264.0973      16.714236      6642.9708      10112.159    
    288600   304.69867     -3246.4886     -3264.0939      17.605271      7011.6238      10112.159    
    288700   297.7743      -3244.7208     -3261.926       17.205186      7465.9255      10112.159    
    288800   329.89021     -3244.5109     -3263.5717      19.06082       7105.7657      10112.159    
    288900   305.78643     -3245.8685     -3263.5366      17.668121      7105.0488      10112.159    
    289000   306.50621     -3246.4106     -3264.1203      17.70971       6806.9961      10112.159    
    289100   290.84018     -3247.1002     -3263.9048      16.804538      7040.1325      10112.159    
    289200   290.55689     -3247.0821     -3263.8703      16.788169      6723.252       10112.159    
    289300   303.99767     -3245.3437     -3262.9085      17.564768      7337.9089      10112.159    
    289400   329.55863     -3244.3565     -3263.3982      19.041662      7198.5671      10112.159    
    289500   310.97585     -3245.2181     -3263.1861      17.967962      7225.7366      10112.159    
    289600   297.26581     -3246.1727     -3263.3485      17.175806      6931.2953      10112.159    
    289700   301.72318     -3246.7202     -3264.1535      17.433349      6919.8909      10112.159    
    289800   288.55287     -3247.0789     -3263.7512      16.672378      6849.7212      10112.159    
    289900   290.76485     -3246.6155     -3263.4157      16.800185      6771.2535      10112.159    
    290000   323.63551     -3244.9469     -3263.6464      18.699428      7168.4382      10112.159    
    290100   309.96246     -3245.074      -3262.9834      17.909409      7240.89        10112.159    
    290200   307.87111     -3246.0709     -3263.8594      17.788572      7071.839       10112.159    
    290300   284.8659      -3247.4975     -3263.9568      16.459348      6570.6924      10112.159    
    290400   300.35461     -3247.1914     -3264.5456      17.354274      6730.0758      10112.159    
    290500   293.18403     -3246.8037     -3263.7436      16.939964      6657.6993      10112.159    
    290600   299.39955     -3246.0075     -3263.3066      17.299092      7085.5185      10112.159    
    290700   303.40863     -3245.0857     -3262.6165      17.530734      7284.9758      10112.159    
    290800   314.69437     -3244.8309     -3263.0138      18.182816      7397.5576      10112.159    
    290900   318.62914     -3245.9187     -3264.3289      18.410164      6982.7411      10112.159    
    291000   283.61554     -3247.3056     -3263.6927      16.387103      6937.0233      10112.159    
    291100   270.16764     -3247.4194     -3263.0295      15.610093      6786.7132      10112.159    
    291200   317.20484     -3246.2714     -3264.5993      18.327869      6613.4018      10112.159    
    291300   315.59794     -3245.9032     -3264.1382      18.235023      6723.1777      10112.159    
    291400   297.19952     -3246.0991     -3263.271       17.171976      6988.4401      10112.159    
    291500   286.43586     -3247.0447     -3263.5948      16.550059      6824.3468      10112.159    
    291600   302.61093     -3247.3848     -3264.8694      17.484643      6701.4621      10112.159    
    291700   302.94581     -3247.1148     -3264.6188      17.503992      6276.8543      10112.159    
    291800   298.84147     -3245.8907     -3263.1576      17.266846      7156.6653      10112.159    
    291900   312.92546     -3245.185      -3263.2656      18.080609      7203.5653      10112.159    
    292000   298.93056     -3245.6694     -3262.9414      17.271994      7218.8624      10112.159    
    292100   306.26368     -3246.52       -3264.2157      17.695697      6604.6283      10112.159    
    292200   278.68498     -3247.0472     -3263.1494      16.102219      6672.2141      10112.159    
    292300   316.94735     -3246.4922     -3264.8052      18.312991      6260.5794      10112.159    
    292400   300.55304     -3246.5613     -3263.9271      17.36574       6573.4467      10112.159    
    292500   302.90308     -3246.2253     -3263.7268      17.501523      7128.5054      10112.159    
    292600   290.1         -3246.4312     -3263.193       16.761771      6818.1216      10112.159    
    292700   298.3121      -3246.742      -3263.9782      17.23626       6586.3562      10112.159    
    292800   310.74394     -3246.6338     -3264.5884      17.954563      6506.6102      10112.159    
    292900   288.03949     -3246.9886     -3263.6314      16.642716      6655.522       10112.159    
    293000   310.25101     -3246.0428     -3263.9689      17.926081      6704.8679      10112.159    
    293100   298.58823     -3245.2666     -3262.5188      17.252215      7114.1409      10112.159    
    293200   298.60245     -3245.691      -3262.944       17.253036      6964.1742      10112.159    
    293300   307.07401     -3246.9382     -3264.6807      17.742517      6419.9184      10112.159    
    293400   289.4042      -3247.0201     -3263.7416      16.721568      6557.3535      10112.159    
    293500   298.03544     -3246.6868     -3263.9071      17.220275      7026.2392      10112.159    
    293600   284.57036     -3246.5449     -3262.9872      16.442272      7000.466       10112.159    
    293700   326.17795     -3245.5763     -3264.4227      18.846329      6618.8066      10112.159    
    293800   282.75246     -3246.7695     -3263.1067      16.337235      6771.8548      10112.159    
    293900   290.48578     -3248.195      -3264.9791      16.78406       6259.2848      10112.159    
    294000   286.68172     -3247.9484     -3264.5127      16.564265      6566.6522      10112.159    
    294100   306.56866     -3246.5383     -3264.2517      17.713318      6705.074       10112.159    
    294200   288.65652     -3246.1341     -3262.8125      16.678367      7294.1816      10112.159    
    294300   323.53844     -3245.4613     -3264.1551      18.69382       6793.1611      10112.159    
    294400   306.37324     -3246.0742     -3263.7762      17.702027      6872.1651      10112.159    
    294500   273.76414     -3248.0321     -3263.85        15.817896      6587.2457      10112.159    
    294600   283.93928     -3248.0124     -3264.4182      16.405809      6575.0988      10112.159    
    294700   298.13221     -3246.9648     -3264.1906      17.225866      6610.2876      10112.159    
    294800   314.59327     -3246.1398     -3264.3168      18.176974      6663.7848      10112.159    
    294900   305.58814     -3245.7281     -3263.3848      17.656664      7212.6141      10112.159    
    295000   291.69961     -3245.3282     -3262.1824      16.854195      7144.0766      10112.159    
    295100   317.87496     -3245.7345     -3264.1011      18.366588      6928.1191      10112.159    
    295200   306.21663     -3247.1938     -3264.8868      17.692978      6480.8955      10112.159    
    295300   275.78978     -3247.8504     -3263.7854      15.934936      6647.7726      10112.159    
    295400   296.69631     -3246.9746     -3264.1175      17.142901      6528.2437      10112.159    
    295500   309.99642     -3245.6494     -3263.5607      17.911371      7004.8914      10112.159    
    295600   315.32328     -3245.3219     -3263.541       18.219154      6672.56        10112.159    
    295700   298.44218     -3245.9382     -3263.182       17.243776      6875.5955      10112.159    
    295800   309.56585     -3246.1469     -3264.0334      17.886494      6908.3595      10112.159    
    295900   292.94618     -3246.9524     -3263.8786      16.926221      6837.315       10112.159    
    296000   280.44324     -3248.6672     -3264.871       16.20381       6497.4657      10112.159    
    296100   279.0174      -3248.6788     -3264.8002      16.121426      6124.0307      10112.159    
    296200   286.62477     -3247.5775     -3264.1385      16.560974      6632.0735      10112.159    
    296300   308.68603     -3246.5737     -3264.4094      17.835658      6758.0866      10112.159    
    296400   293.66847     -3246.4281     -3263.3961      16.967954      7021.3216      10112.159    
    296500   292.80301     -3246.1506     -3263.0686      16.917949      7158.6938      10112.159    
    296600   328.88615     -3244.9934     -3263.9962      19.002807      6885.577       10112.159    
    296700   290.02502     -3245.4748     -3262.2322      16.757438      7053.2977      10112.159    
    296800   306.03337     -3246.8223     -3264.5046      17.682389      6822.9433      10112.159    
    296900   283.81113     -3247.8311     -3264.2295      16.398404      6533.6333      10112.159    
    297000   307.27372     -3247.2322     -3264.9863      17.754056      6392.1518      10112.159    
    297100   291.076       -3246.8833     -3263.7015      16.818163      6766.2346      10112.159    
    297200   308.67663     -3245.8022     -3263.6373      17.835115      7042.4944      10112.159    
    297300   316.50174     -3244.5416     -3262.8289      18.287244      6993.6752      10112.159    
    297400   328.89741     -3242.7509     -3261.7543      19.003457      7650.0736      10112.159    
    297500   319.52007     -3243.2095     -3261.6711      18.461641      7676.3247      10112.159    
    297600   332.89317     -3245.4294     -3264.6637      19.234329      6826.6318      10112.159    
    297700   292.96269     -3246.9525     -3263.8796      16.927175      6729.9375      10112.159    
    297800   299.98383     -3247.0897     -3264.4226      17.332851      6634.7713      10112.159    
    297900   299.8344      -3246.547      -3263.8712      17.324217      6899.9148      10112.159    
    298000   299.60521     -3245.6684     -3262.9794      17.310975      6924.9692      10112.159    
    298100   309.89419     -3244.9299     -3262.8354      17.905465      7178.6037      10112.159    
    298200   313.52132     -3245.7209     -3263.8359      18.115038      6956.9775      10112.159    
    298300   295.10274     -3247.5604     -3264.6112      17.050825      6375.0176      10112.159    
    298400   289.67323     -3247.529      -3264.2661      16.737112      6674.9051      10112.159    
    298500   311.31402     -3246.068      -3264.0555      17.987501      6837.731       10112.159    
    298600   295.26816     -3246.0296     -3263.09        17.060383      6938.9743      10112.159    
    298700   303.98939     -3246.1728     -3263.7371      17.564289      7044.8615      10112.159    
    298800   285.36136     -3246.8237     -3263.3117      16.487975      6863.8869      10112.159    
    298900   293.70362     -3247.9525     -3264.9224      16.969985      6234.8887      10112.159    
    299000   287.03303     -3248.5715     -3265.156       16.584563      6261.837       10112.159    
    299100   289.3413      -3247.0802     -3263.7982      16.717933      6812.5828      10112.159    
    299200   299.13873     -3245.8614     -3263.1454      17.284022      6957.913       10112.159    
    299300   306.45948     -3245.6062     -3263.3132      17.707009      7014.4055      10112.159    
    299400   310.35082     -3246.2937     -3264.2256      17.931848      6697.0225      10112.159    
    299500   303.54848     -3247.2793     -3264.8181      17.538814      6475.6159      10112.159    
    299600   271.56176     -3247.8451     -3263.5357      15.690644      6780.3811      10112.159    
    299700   304.48421     -3246.3678     -3263.9607      17.59288       7096.4423      10112.159    
    299800   310.98031     -3245.7316     -3263.6998      17.96822       6984.8578      10112.159    
    299900   293.58563     -3246.1373     -3263.1004      16.963168      6956.8024      10112.159    
    300000   312.64662     -3246.5226     -3264.5871      18.064498      6570.0756      10112.159    
Loop time of 2268.14 on 20 procs for 300000 steps with 448 atoms

Performance: 11.428 ns/day, 2.100 hours/ns, 132.267 timesteps/s, 59.256 katom-step/s
99.9% CPU use with 20 MPI tasks x 1 OpenMP threads

MPI task timing breakdown:
Section |  min time  |  avg time  |  max time  |%varavg| %total
---------------------------------------------------------------
Pair    | 1747.6     | 2000.4     | 2161       | 414.0 | 88.19
Neigh   | 20.224     | 28.394     | 34.669     | 119.7 |  1.25
Comm    | 71.763     | 236.21     | 497.34     |1246.2 | 10.41
Output  | 0.37425    | 0.5961     | 0.6666     |   7.7 |  0.03
Modify  | 2.123      | 2.2688     | 2.6463     |   9.0 |  0.10
Other   |            | 0.2895     |            |       |  0.01

Nlocal:           22.4 ave          24 max          18 min
Histogram: 1 2 0 2 0 2 1 0 0 12
Nghost:          497.3 ave         522 max         466 min
Histogram: 4 0 0 4 0 4 0 0 0 8
Neighs:              0 ave           0 max           0 min
Histogram: 20 0 0 0 0 0 0 0 0 0
FullNghs:       1277.9 ave        1400 max        1023 min
Histogram: 1 2 0 2 2 0 1 0 1 11

Total # of neighbors = 25558
Ave neighs/atom = 57.049107
Neighbor list builds = 300000
Dangerous builds not checked
Total wall time: 0:37:48
