ITEM: TIMESTEP
0
ITEM: NUMBER OF ATOMS
12
ITEM: BOX BOUNDS xy xz yz pp pp pp
-8.8344296827430302e-01 5.1364755065543157e+00 0.0000000000000000e+00
0.0000000000000000e+00 5.1934133375444702e+00 -8.8344296827430302e-01
0.0000000000000000e+00 5.2461598045212767e+00 0.0000000000000000e+00
ITEM: ATOMS id type x y z 
   1 1    0.7929680599999999    2.3789195900000002    3.7137930099999998
   2 1    3.0183409399999994    4.9756267799999998    4.1554425899999998
   3 1    3.4600634499999998    2.8144947700000000    1.5323642200000001
   4 1    1.2346900599999999    0.2177875900000000    1.0907146500000000
   5 2    1.4366105600000001    3.8562449400000003    5.1337742300000002
   6 2    2.3746984400000013    1.2595377600000000    2.7354618799999999
   7 2    2.8164204399999999    1.3371694199999999    0.1123830000000000
   8 2    1.8783325600000000    3.9338766100000004    2.5106953600000006
   9 2    0.0452384800000002    1.7177678800000000    1.8164965900000001
  10 2    4.6495150299999999    4.3144750600000004    0.8065822900000003
  11 2    4.2077925199999999    3.4756464900000004    3.4296606500000002
  12 2   -0.3964840300000000    0.8789393100000001    4.4395749499999999
ITEM: TIMESTEP
1
ITEM: NUMBER OF ATOMS
12
ITEM: BOX BOUNDS xy xz yz pp pp pp
-8.8344296827430302e-01 5.1364755065543157e+00 0.0000000000000000e+00
0.0000000000000000e+00 5.1934133375444702e+00 -8.8344296827430302e-01
0.0000000000000000e+00 5.2461598045212767e+00 0.0000000000000000e+00
ITEM: ATOMS id type x y z 
   1 1   0.7762038189194448    2.3501668291581748   3.68279798082485    
   2 1   3.046909974681737     4.944150105556711    4.138358285486626     
   3 1   3.4768272330490273    2.843247525261339    1.5633593416957139   
   4 1   1.206121357063365     0.24926426962334255  1.1077988397499436  
   5 2   1.9923882927377357    3.7560995537962394   0.09468011073273033 
   6 2   2.4156598997102234    1.232091591716475    2.535088502166751    
   7 2   2.260642995344876     1.4373149847910918   5.151477127466908    
   8 2   1.8373715411046625    3.961322345404707    2.711068754608852    
   9 2  -0.04009856273561367   1.7101732621660004   1.8395909106552648
  10 2   4.637992808257605     4.332359369278529    0.8066572267456065    
  11 2   4.293129979308621     3.48324132936595     3.406566397691778      
  12 2  -0.3849615448673518    0.8610550379485409   4.4395001680755115 
