(written by ASE)

8064 atoms
1 atom types

0.0      67.266652926517935  xlo xhi
0.0      66.576720433080737  ylo yhi
0.0      40.643787656023804  zlo zhi

Masses

     1      178.48999995408442 # Hf

Atoms # atomic

     1   1      3.1977792761377706      1.8400095234001803      1.2524024557492599
     2   1      1.5961923283031301     0.91533283501675899      3.7926391842507501
     3   1      22.416822996034874      3.6893628530617906      3.7926391842507501
     4   1        1.59619230169687      4.6140395414452096      1.2524024557492599
     5   1      3.1977792761377706      1.8400095234001803      6.3328759127522352
     6   1      1.5961923283031301     0.91533283501675899      8.8731126412537265
     7   1      22.416822996034874      3.6893628530617906      8.8731126412537265
     8   1        1.59619230169687      4.6140395414452096      6.3328759127522352
     9   1      3.1977792761377706      1.8400095234001803      11.413349369755213
    10   1      1.5961923283031301     0.91533283501675899        13.9535860982567
    11   1      22.416822996034874      3.6893628530617906        13.9535860982567
    12   1        1.59619230169687      4.6140395414452096      11.413349369755213
    13   1      3.1977792761377706      1.8400095234001803      16.493822826758187
    14   1      1.5961923283031301     0.91533283501675899      19.034059555259677
    15   1      22.416822996034874      3.6893628530617906      19.034059555259677
    16   1        1.59619230169687      4.6140395414452096      16.493822826758187
    17   1      3.1977792761377706      7.3880695594902424      1.2524024557492599
    18   1      1.5961923283031301      6.4633928711068211      3.7926391842507501
    19   1      22.416822996034874      9.2374228891518513      3.7926391842507501
    20   1        1.59619230169687      10.162099577535274      1.2524024557492599
    21   1      3.1977792761377706      7.3880695594902424      6.3328759127522352
    22   1      1.5961923283031301      6.4633928711068211      8.8731126412537265
    23   1      22.416822996034874      9.2374228891518513      8.8731126412537265
    24   1        1.59619230169687      10.162099577535274      6.3328759127522352
    25   1      3.1977792761377706      7.3880695594902424      11.413349369755213
    26   1      1.5961923283031301      6.4633928711068211        13.9535860982567
    27   1      22.416822996034874      9.2374228891518513        13.9535860982567
    28   1        1.59619230169687      10.162099577535274      11.413349369755213
    29   1      3.1977792761377706      7.3880695594902424      16.493822826758187
    30   1      1.5961923283031301      6.4633928711068211      19.034059555259677
    31   1      22.416822996034874      9.2374228891518513      19.034059555259677
    32   1        1.59619230169687      10.162099577535274      16.493822826758187
    33   1      3.1977792761377706      12.936129595580308      1.2524024557492599
    34   1      1.5961923283031301      12.011452907196883      3.7926391842507501
    35   1      22.416822996034874      14.785482925241915      3.7926391842507501
    36   1        1.59619230169687      15.710159613625336      1.2524024557492599
    37   1      3.1977792761377706      12.936129595580308      6.3328759127522352
    38   1      1.5961923283031301      12.011452907196883      8.8731126412537265
    39   1      22.416822996034874      14.785482925241915      8.8731126412537265
    40   1        1.59619230169687      15.710159613625336      6.3328759127522352
    41   1      3.1977792761377706      12.936129595580308      11.413349369755213
    42   1      1.5961923283031301      12.011452907196883        13.9535860982567
    43   1      22.416822996034874      14.785482925241915        13.9535860982567
    44   1        1.59619230169687      15.710159613625336      11.413349369755213
    45   1      3.1977792761377706      12.936129595580308      16.493822826758187
    46   1      1.5961923283031301      12.011452907196883      19.034059555259677
    47   1      22.416822996034874      14.785482925241915      19.034059555259677
    48   1        1.59619230169687      15.710159613625336      16.493822826758187
    49   1      3.1977792761377706      18.484189631670365      1.2524024557492599
    50   1      1.5961923283031301      17.559512943286947      3.7926391842507501
    51   1      22.416822996034874      20.333542961331979      3.7926391842507501
    52   1        1.59619230169687      21.258219649715393      1.2524024557492599
    53   1      3.1977792761377706      18.484189631670365      6.3328759127522352
    54   1      1.5961923283031301      17.559512943286947      8.8731126412537265
    55   1      22.416822996034874      20.333542961331979      8.8731126412537265
    56   1        1.59619230169687      21.258219649715393      6.3328759127522352
    57   1      3.1977792761377706      18.484189631670365      11.413349369755213
    58   1      1.5961923283031301      17.559512943286947        13.9535860982567
    59   1      22.416822996034874      20.333542961331979        13.9535860982567
    60   1        1.59619230169687      21.258219649715393      11.413349369755213
    61   1      3.1977792761377706      18.484189631670365      16.493822826758187
    62   1      1.5961923283031301      17.559512943286947      19.034059555259677
    63   1      22.416822996034874      20.333542961331979      19.034059555259677
    64   1        1.59619230169687      21.258219649715393      16.493822826758187
    65   1      6.4009532250195766      1.8400095234001803      1.2524024557492599
    66   1      4.7993662771849364     0.91533283501675899      3.7926391842507501
    67   1      3.1977793027440327      3.6893628530617906      3.7926391842507501
    68   1      4.7993662505786769      4.6140395414452096      1.2524024557492599
    69   1      6.4009532250195766      1.8400095234001803      6.3328759127522352
    70   1      4.7993662771849364     0.91533283501675899      8.8731126412537265
    71   1      3.1977793027440327      3.6893628530617906      8.8731126412537265
    72   1      4.7993662505786769      4.6140395414452096      6.3328759127522352
    73   1      6.4009532250195766      1.8400095234001803      11.413349369755213
    74   1      4.7993662771849364     0.91533283501675899        13.9535860982567
    75   1      3.1977793027440327      3.6893628530617906        13.9535860982567
    76   1      4.7993662505786769      4.6140395414452096      11.413349369755213
    77   1      6.4009532250195766      1.8400095234001803      16.493822826758187
    78   1      4.7993662771849364     0.91533283501675899      19.034059555259677
    79   1      3.1977793027440327      3.6893628530617906      19.034059555259677
    80   1      4.7993662505786769      4.6140395414452096      16.493822826758187
    81   1      6.4009532250195766      7.3880695594902424      1.2524024557492599
    82   1      4.7993662771849364      6.4633928711068211      3.7926391842507501
    83   1      3.1977793027440327      9.2374228891518513      3.7926391842507501
    84   1      4.7993662505786769      10.162099577535274      1.2524024557492599
    85   1      6.4009532250195766      7.3880695594902424      6.3328759127522352
    86   1      4.7993662771849364      6.4633928711068211      8.8731126412537265
    87   1      3.1977793027440327      9.2374228891518513      8.8731126412537265
    88   1      4.7993662505786769      10.162099577535274      6.3328759127522352
    89   1      6.4009532250195766      7.3880695594902424      11.413349369755213
    90   1      4.7993662771849364      6.4633928711068211        13.9535860982567
    91   1      3.1977793027440327      9.2374228891518513        13.9535860982567
    92   1      4.7993662505786769      10.162099577535274      11.413349369755213
    93   1      6.4009532250195766      7.3880695594902424      16.493822826758187
    94   1      4.7993662771849364      6.4633928711068211      19.034059555259677
    95   1      3.1977793027440327      9.2374228891518513      19.034059555259677
    96   1      4.7993662505786769      10.162099577535274      16.493822826758187
    97   1      6.4009532250195766      12.936129595580308      1.2524024557492599
    98   1      4.7993662771849364      12.011452907196883      3.7926391842507501
    99   1      3.1977793027440327      14.785482925241915      3.7926391842507501
   100   1      4.7993662505786769      15.710159613625336      1.2524024557492599
   101   1      6.4009532250195766      12.936129595580308      6.3328759127522352
   102   1      4.7993662771849364      12.011452907196883      8.8731126412537265
   103   1      3.1977793027440327      14.785482925241915      8.8731126412537265
   104   1      4.7993662505786769      15.710159613625336      6.3328759127522352
   105   1      6.4009532250195766      12.936129595580308      11.413349369755213
   106   1      4.7993662771849364      12.011452907196883        13.9535860982567
   107   1      3.1977793027440327      14.785482925241915        13.9535860982567
   108   1      4.7993662505786769      15.710159613625336      11.413349369755213
   109   1      6.4009532250195766      12.936129595580308      16.493822826758187
   110   1      4.7993662771849364      12.011452907196883      19.034059555259677
   111   1      3.1977793027440327      14.785482925241915      19.034059555259677
   112   1      4.7993662505786769      15.710159613625336      16.493822826758187
   113   1      6.4009532250195766      18.484189631670365      1.2524024557492599
   114   1      4.7993662771849364      17.559512943286947      3.7926391842507501
   115   1      3.1977793027440327      20.333542961331979      3.7926391842507501
   116   1      4.7993662505786769      21.258219649715393      1.2524024557492599
   117   1      6.4009532250195766      18.484189631670365      6.3328759127522352
   118   1      4.7993662771849364      17.559512943286947      8.8731126412537265
   119   1      3.1977793027440327      20.333542961331979      8.8731126412537265
   120   1      4.7993662505786769      21.258219649715393      6.3328759127522352
   121   1      6.4009532250195766      18.484189631670365      11.413349369755213
   122   1      4.7993662771849364      17.559512943286947        13.9535860982567
   123   1      3.1977793027440327      20.333542961331979        13.9535860982567
   124   1      4.7993662505786769      21.258219649715393      11.413349369755213
   125   1      6.4009532250195766      18.484189631670365      16.493822826758187
   126   1      4.7993662771849364      17.559512943286947      19.034059555259677
   127   1      3.1977793027440327      20.333542961331979      19.034059555259677
   128   1      4.7993662505786769      21.258219649715393      16.493822826758187
   129   1       9.604127173901384      1.8400095234001803      1.2524024557492599
   130   1      8.0025402260667438     0.91533283501675899      3.7926391842507501
   131   1      6.4009532516258396      3.6893628530617906      3.7926391842507501
   132   1      8.0025401994604834      4.6140395414452096      1.2524024557492599
   133   1       9.604127173901384      1.8400095234001803      6.3328759127522352
   134   1      8.0025402260667438     0.91533283501675899      8.8731126412537265
   135   1      6.4009532516258396      3.6893628530617906      8.8731126412537265
   136   1      8.0025401994604834      4.6140395414452096      6.3328759127522352
   137   1       9.604127173901384      1.8400095234001803      11.413349369755213
   138   1      8.0025402260667438     0.91533283501675899        13.9535860982567
   139   1      6.4009532516258396      3.6893628530617906        13.9535860982567
   140   1      8.0025401994604834      4.6140395414452096      11.413349369755213
   141   1       9.604127173901384      1.8400095234001803      16.493822826758187
   142   1      8.0025402260667438     0.91533283501675899      19.034059555259677
   143   1      6.4009532516258396      3.6893628530617906      19.034059555259677
   144   1      8.0025401994604834      4.6140395414452096      16.493822826758187
   145   1       9.604127173901384      7.3880695594902424      1.2524024557492599
   146   1      8.0025402260667438      6.4633928711068211      3.7926391842507501
   147   1      6.4009532516258396      9.2374228891518513      3.7926391842507501
   148   1      8.0025401994604834      10.162099577535274      1.2524024557492599
   149   1       9.604127173901384      7.3880695594902424      6.3328759127522352
   150   1      8.0025402260667438      6.4633928711068211      8.8731126412537265
   151   1      6.4009532516258396      9.2374228891518513      8.8731126412537265
   152   1      8.0025401994604834      10.162099577535274      6.3328759127522352
   153   1       9.604127173901384      7.3880695594902424      11.413349369755213
   154   1      8.0025402260667438      6.4633928711068211        13.9535860982567
   155   1      6.4009532516258396      9.2374228891518513        13.9535860982567
   156   1      8.0025401994604834      10.162099577535274      11.413349369755213
   157   1       9.604127173901384      7.3880695594902424      16.493822826758187
   158   1      8.0025402260667438      6.4633928711068211      19.034059555259677
   159   1      6.4009532516258396      9.2374228891518513      19.034059555259677
   160   1      8.0025401994604834      10.162099577535274      16.493822826758187
   161   1       9.604127173901384      12.936129595580308      1.2524024557492599
   162   1      8.0025402260667438      12.011452907196883      3.7926391842507501
   163   1      6.4009532516258396      14.785482925241915      3.7926391842507501
   164   1      8.0025401994604834      15.710159613625336      1.2524024557492599
   165   1       9.604127173901384      12.936129595580308      6.3328759127522352
   166   1      8.0025402260667438      12.011452907196883      8.8731126412537265
   167   1      6.4009532516258396      14.785482925241915      8.8731126412537265
   168   1      8.0025401994604834      15.710159613625336      6.3328759127522352
   169   1       9.604127173901384      12.936129595580308      11.413349369755213
   170   1      8.0025402260667438      12.011452907196883        13.9535860982567
   171   1      6.4009532516258396      14.785482925241915        13.9535860982567
   172   1      8.0025401994604834      15.710159613625336      11.413349369755213
   173   1       9.604127173901384      12.936129595580308      16.493822826758187
   174   1      8.0025402260667438      12.011452907196883      19.034059555259677
   175   1      6.4009532516258396      14.785482925241915      19.034059555259677
   176   1      8.0025401994604834      15.710159613625336      16.493822826758187
   177   1       9.604127173901384      18.484189631670365      1.2524024557492599
   178   1      8.0025402260667438      17.559512943286947      3.7926391842507501
   179   1      6.4009532516258396      20.333542961331979      3.7926391842507501
   180   1      8.0025401994604834      21.258219649715393      1.2524024557492599
   181   1       9.604127173901384      18.484189631670365      6.3328759127522352
   182   1      8.0025402260667438      17.559512943286947      8.8731126412537265
   183   1      6.4009532516258396      20.333542961331979      8.8731126412537265
   184   1      8.0025401994604834      21.258219649715393      6.3328759127522352
   185   1       9.604127173901384      18.484189631670365      11.413349369755213
   186   1      8.0025402260667438      17.559512943286947        13.9535860982567
   187   1      6.4009532516258396      20.333542961331979        13.9535860982567
   188   1      8.0025401994604834      21.258219649715393      11.413349369755213
   189   1       9.604127173901384      18.484189631670365      16.493822826758187
   190   1      8.0025402260667438      17.559512943286947      19.034059555259677
   191   1      6.4009532516258396      20.333542961331979      19.034059555259677
   192   1      8.0025401994604834      21.258219649715393      16.493822826758187
   193   1      12.807301122783191      1.8400095234001803      1.2524024557492599
   194   1       11.20571417494855     0.91533283501675899      3.7926391842507501
   195   1      9.6041272005076461      3.6893628530617906      3.7926391842507501
   196   1       11.20571414834229      4.6140395414452096      1.2524024557492599
   197   1      12.807301122783191      1.8400095234001803      6.3328759127522352
   198   1       11.20571417494855     0.91533283501675899      8.8731126412537265
   199   1      9.6041272005076461      3.6893628530617906      8.8731126412537265
   200   1       11.20571414834229      4.6140395414452096      6.3328759127522352
   201   1      12.807301122783191      1.8400095234001803      11.413349369755213
   202   1       11.20571417494855     0.91533283501675899        13.9535860982567
   203   1      9.6041272005076461      3.6893628530617906        13.9535860982567
   204   1       11.20571414834229      4.6140395414452096      11.413349369755213
   205   1      12.807301122783191      1.8400095234001803      16.493822826758187
   206   1       11.20571417494855     0.91533283501675899      19.034059555259677
   207   1      9.6041272005076461      3.6893628530617906      19.034059555259677
   208   1       11.20571414834229      4.6140395414452096      16.493822826758187
   209   1      12.807301122783191      7.3880695594902424      1.2524024557492599
   210   1       11.20571417494855      6.4633928711068211      3.7926391842507501
   211   1      9.6041272005076461      9.2374228891518513      3.7926391842507501
   212   1       11.20571414834229      10.162099577535274      1.2524024557492599
   213   1      12.807301122783191      7.3880695594902424      6.3328759127522352
   214   1       11.20571417494855      6.4633928711068211      8.8731126412537265
   215   1      9.6041272005076461      9.2374228891518513      8.8731126412537265
   216   1       11.20571414834229      10.162099577535274      6.3328759127522352
   217   1      12.807301122783191      7.3880695594902424      11.413349369755213
   218   1       11.20571417494855      6.4633928711068211        13.9535860982567
   219   1      9.6041272005076461      9.2374228891518513        13.9535860982567
   220   1       11.20571414834229      10.162099577535274      11.413349369755213
   221   1      12.807301122783191      7.3880695594902424      16.493822826758187
   222   1       11.20571417494855      6.4633928711068211      19.034059555259677
   223   1      9.6041272005076461      9.2374228891518513      19.034059555259677
   224   1       11.20571414834229      10.162099577535274      16.493822826758187
   225   1      12.807301122783191      12.936129595580308      1.2524024557492599
   226   1       11.20571417494855      12.011452907196883      3.7926391842507501
   227   1      9.6041272005076461      14.785482925241915      3.7926391842507501
   228   1       11.20571414834229      15.710159613625336      1.2524024557492599
   229   1      12.807301122783191      12.936129595580308      6.3328759127522352
   230   1       11.20571417494855      12.011452907196883      8.8731126412537265
   231   1      9.6041272005076461      14.785482925241915      8.8731126412537265
   232   1       11.20571414834229      15.710159613625336      6.3328759127522352
   233   1      12.807301122783191      12.936129595580308      11.413349369755213
   234   1       11.20571417494855      12.011452907196883        13.9535860982567
   235   1      9.6041272005076461      14.785482925241915        13.9535860982567
   236   1       11.20571414834229      15.710159613625336      11.413349369755213
   237   1      12.807301122783191      12.936129595580308      16.493822826758187
   238   1       11.20571417494855      12.011452907196883      19.034059555259677
   239   1      9.6041272005076461      14.785482925241915      19.034059555259677
   240   1       11.20571414834229      15.710159613625336      16.493822826758187
   241   1      12.807301122783191      18.484189631670365      1.2524024557492599
   242   1       11.20571417494855      17.559512943286947      3.7926391842507501
   243   1      9.6041272005076461      20.333542961331979      3.7926391842507501
   244   1       11.20571414834229      21.258219649715393      1.2524024557492599
   245   1      12.807301122783191      18.484189631670365      6.3328759127522352
   246   1       11.20571417494855      17.559512943286947      8.8731126412537265
   247   1      9.6041272005076461      20.333542961331979      8.8731126412537265
   248   1       11.20571414834229      21.258219649715393      6.3328759127522352
   249   1      12.807301122783191      18.484189631670365      11.413349369755213
   250   1       11.20571417494855      17.559512943286947        13.9535860982567
   251   1      9.6041272005076461      20.333542961331979        13.9535860982567
   252   1       11.20571414834229      21.258219649715393      11.413349369755213
   253   1      12.807301122783191      18.484189631670365      16.493822826758187
   254   1       11.20571417494855      17.559512943286947      19.034059555259677
   255   1      9.6041272005076461      20.333542961331979      19.034059555259677
   256   1       11.20571414834229      21.258219649715393      16.493822826758187
   257   1      16.010475071664995      1.8400095234001803      1.2524024557492599
   258   1      14.408888123830357     0.91533283501675899      3.7926391842507501
   259   1      12.807301149389453      3.6893628530617906      3.7926391842507501
   260   1      14.408888097224098      4.6140395414452096      1.2524024557492599
   261   1      16.010475071664995      1.8400095234001803      6.3328759127522352
   262   1      14.408888123830357     0.91533283501675899      8.8731126412537265
   263   1      12.807301149389453      3.6893628530617906      8.8731126412537265
   264   1      14.408888097224098      4.6140395414452096      6.3328759127522352
   265   1      16.010475071664995      1.8400095234001803      11.413349369755213
   266   1      14.408888123830357     0.91533283501675899        13.9535860982567
   267   1      12.807301149389453      3.6893628530617906        13.9535860982567
   268   1      14.408888097224098      4.6140395414452096      11.413349369755213
   269   1      16.010475071664995      1.8400095234001803      16.493822826758187
   270   1      14.408888123830357     0.91533283501675899      19.034059555259677
   271   1      12.807301149389453      3.6893628530617906      19.034059555259677
   272   1      14.408888097224098      4.6140395414452096      16.493822826758187
   273   1      16.010475071664995      7.3880695594902424      1.2524024557492599
   274   1      14.408888123830357      6.4633928711068211      3.7926391842507501
   275   1      12.807301149389453      9.2374228891518513      3.7926391842507501
   276   1      14.408888097224098      10.162099577535274      1.2524024557492599
   277   1      16.010475071664995      7.3880695594902424      6.3328759127522352
   278   1      14.408888123830357      6.4633928711068211      8.8731126412537265
   279   1      12.807301149389453      9.2374228891518513      8.8731126412537265
   280   1      14.408888097224098      10.162099577535274      6.3328759127522352
   281   1      16.010475071664995      7.3880695594902424      11.413349369755213
   282   1      14.408888123830357      6.4633928711068211        13.9535860982567
   283   1      12.807301149389453      9.2374228891518513        13.9535860982567
   284   1      14.408888097224098      10.162099577535274      11.413349369755213
   285   1      16.010475071664995      7.3880695594902424      16.493822826758187
   286   1      14.408888123830357      6.4633928711068211      19.034059555259677
   287   1      12.807301149389453      9.2374228891518513      19.034059555259677
   288   1      14.408888097224098      10.162099577535274      16.493822826758187
   289   1      16.010475071664995      12.936129595580308      1.2524024557492599
   290   1      14.408888123830357      12.011452907196883      3.7926391842507501
   291   1      12.807301149389453      14.785482925241915      3.7926391842507501
   292   1      14.408888097224098      15.710159613625336      1.2524024557492599
   293   1      16.010475071664995      12.936129595580308      6.3328759127522352
   294   1      14.408888123830357      12.011452907196883      8.8731126412537265
   295   1      12.807301149389453      14.785482925241915      8.8731126412537265
   296   1      14.408888097224098      15.710159613625336      6.3328759127522352
   297   1      16.010475071664995      12.936129595580308      11.413349369755213
   298   1      14.408888123830357      12.011452907196883        13.9535860982567
   299   1      12.807301149389453      14.785482925241915        13.9535860982567
   300   1      14.408888097224098      15.710159613625336      11.413349369755213
   301   1      16.010475071664995      12.936129595580308      16.493822826758187
   302   1      14.408888123830357      12.011452907196883      19.034059555259677
   303   1      12.807301149389453      14.785482925241915      19.034059555259677
   304   1      14.408888097224098      15.710159613625336      16.493822826758187
   305   1      16.010475071664995      18.484189631670365      1.2524024557492599
   306   1      14.408888123830357      17.559512943286947      3.7926391842507501
   307   1      12.807301149389453      20.333542961331979      3.7926391842507501
   308   1      14.408888097224098      21.258219649715393      1.2524024557492599
   309   1      16.010475071664995      18.484189631670365      6.3328759127522352
   310   1      14.408888123830357      17.559512943286947      8.8731126412537265
   311   1      12.807301149389453      20.333542961331979      8.8731126412537265
   312   1      14.408888097224098      21.258219649715393      6.3328759127522352
   313   1      16.010475071664995      18.484189631670365      11.413349369755213
   314   1      14.408888123830357      17.559512943286947        13.9535860982567
   315   1      12.807301149389453      20.333542961331979        13.9535860982567
   316   1      14.408888097224098      21.258219649715393      11.413349369755213
   317   1      16.010475071664995      18.484189631670365      16.493822826758187
   318   1      14.408888123830357      17.559512943286947      19.034059555259677
   319   1      12.807301149389453      20.333542961331979      19.034059555259677
   320   1      14.408888097224098      21.258219649715393      16.493822826758187
   321   1        19.2136490205468      1.8400095234001803      1.2524024557492599
   322   1      17.612062072712163     0.91533283501675899      3.7926391842507501
   323   1      16.010475098271257      3.6893628530617906      3.7926391842507501
   324   1      17.612062046105901      4.6140395414452096      1.2524024557492599
   325   1        19.2136490205468      1.8400095234001803      6.3328759127522352
   326   1      17.612062072712163     0.91533283501675899      8.8731126412537265
   327   1      16.010475098271257      3.6893628530617906      8.8731126412537265
   328   1      17.612062046105901      4.6140395414452096      6.3328759127522352
   329   1        19.2136490205468      1.8400095234001803      11.413349369755213
   330   1      17.612062072712163     0.91533283501675899        13.9535860982567
   331   1      16.010475098271257      3.6893628530617906        13.9535860982567
   332   1      17.612062046105901      4.6140395414452096      11.413349369755213
   333   1        19.2136490205468      1.8400095234001803      16.493822826758187
   334   1      17.612062072712163     0.91533283501675899      19.034059555259677
   335   1      16.010475098271257      3.6893628530617906      19.034059555259677
   336   1      17.612062046105901      4.6140395414452096      16.493822826758187
   337   1        19.2136490205468      7.3880695594902424      1.2524024557492599
   338   1      17.612062072712163      6.4633928711068211      3.7926391842507501
   339   1      16.010475098271257      9.2374228891518513      3.7926391842507501
   340   1      17.612062046105901      10.162099577535274      1.2524024557492599
   341   1        19.2136490205468      7.3880695594902424      6.3328759127522352
   342   1      17.612062072712163      6.4633928711068211      8.8731126412537265
   343   1      16.010475098271257      9.2374228891518513      8.8731126412537265
   344   1      17.612062046105901      10.162099577535274      6.3328759127522352
   345   1        19.2136490205468      7.3880695594902424      11.413349369755213
   346   1      17.612062072712163      6.4633928711068211        13.9535860982567
   347   1      16.010475098271257      9.2374228891518513        13.9535860982567
   348   1      17.612062046105901      10.162099577535274      11.413349369755213
   349   1        19.2136490205468      7.3880695594902424      16.493822826758187
   350   1      17.612062072712163      6.4633928711068211      19.034059555259677
   351   1      16.010475098271257      9.2374228891518513      19.034059555259677
   352   1      17.612062046105901      10.162099577535274      16.493822826758187
   353   1        19.2136490205468      12.936129595580308      1.2524024557492599
   354   1      17.612062072712163      12.011452907196883      3.7926391842507501
   355   1      16.010475098271257      14.785482925241915      3.7926391842507501
   356   1      17.612062046105901      15.710159613625336      1.2524024557492599
   357   1        19.2136490205468      12.936129595580308      6.3328759127522352
   358   1      17.612062072712163      12.011452907196883      8.8731126412537265