LAMMPS (27 Jun 2024)
OMP_NUM_THREADS environment is not set. Defaulting to 1 thread. (src/comm.cpp:98)
  using 1 OpenMP thread(s) per MPI task
Reading data file ...
  orthogonal box = (0 0 0) to (67.266653 66.57672 40.643788)
  5 by 2 by 2 MPI processor grid
  reading atoms ...
  8064 atoms
  read_data CPU = 0.045 seconds
**************** Begin of POD Potentials ****************
species: Hf 
periodic boundary conditions: 1 1 1
number of environment clusters: 8
number of principal compoments: 2
inner cut-off radius: 1
outer cut-off radius: 5
cut-off function type: 1
gaussian_exponents: 
polynomial_degrees: 
bessel polynomial degree: 4
inverse polynomial degree: 10
one-body potential: 1
two-body radial basis functions: 8
three-body radial basis functions: 8
three-body angular degree: 6
four-body radial basis functions: 7
four-body angular degree: 5
five-body radial basis functions: 0
five-body angular degree: 0
six-body radial basis functions: 0
six-body angular degree: 0
seven-body radial basis functions: 0
seven-body angular degree: 0
number of local descriptors per element for one-body potential: 1
number of local descriptors per element for two-body potential: 8
number of local descriptors per element for three-body potential: 56
number of local descriptors per element for four-body potential: 112
number of local descriptors per element for five-body potential: 0
number of local descriptors per element for six-body potential: 0
number of local descriptors per element for seven-body potential: 0
number of local descriptors per element for all potentials: 177
number of global descriptors: 1409
**************** End of POD Potentials ****************

**************** Begin of Model Coefficients ****************
total number of coefficients for POD potential: 1409
total number of elements for PCA projection matrix: 352
total number of elements for PCA centroids: 16
**************** End of Model Coefficients ****************


CITE-CITE-CITE-CITE-CITE-CITE-CITE-CITE-CITE-CITE-CITE-CITE-CITE

Your simulation uses code contributions which should be cited:
- Type Label Framework: https://doi.org/10.1021/acs.jpcb.3c08419
The log file lists these citations in BibTeX format.

CITE-CITE-CITE-CITE-CITE-CITE-CITE-CITE-CITE-CITE-CITE-CITE-CITE

Neighbor list info ...
  update: every = 1 steps, delay = 0 steps, check = no
  max neighbors/atom: 2000, page size: 100000
  master list distance cutoff = 7
  ghost atom cutoff = 7
  binsize = 3.5, bins = 20 20 12
  1 neighbor lists, perpetual/occasional/extra = 1 0 0
  (1) pair pod, perpetual
      attributes: full, newton on
      pair build: full/bin/atomonly
      stencil: full/bin/3d
      bin: standard
Setting up Verlet run ...
  Unit style    : metal
  Current step  : 0
  Time step     : 0.001
Per MPI rank memory allocation (min/avg/max) = 2.639 | 2.639 | 2.64 Mbytes
   Step          Temp          TotEng         PotEng         KinEng         Press          Volume    
         0   300           -58717.63      -59030.297      312.66736      3272.0584      182018.86    
       100   106.72035     -58707.99      -58819.217      111.22657      4054.7981      182018.86    
       200   153.49616     -58674.084     -58834.062      159.97747      4685.7269      182018.86    
       300   193.86935     -58634.647     -58836.703      202.05539      4593.3333      182018.86    
       400   243.61124     -58593.217     -58847.115      253.89761      4409.5185      182018.86    
       500   268.77977     -58548.876     -58829.005      280.12887      5092.3279      182018.86    
       600   243.19135     -58506.384     -58759.844      253.46         6238.6901      182018.86    
       700   265.25501     -58466.757     -58743.213      276.45529      6811.4862      182018.86    
       800   290.01341     -58434.078     -58736.338      302.25909      6860.6876      182018.86    
       900   321.17945     -58407.675     -58742.416      334.74111      6921.2193      182018.86    
      1000   320.39484     -58406.323     -58740.246      333.92337      7003.8644      182018.86    
      1100   304.54813     -58420.901     -58738.308      317.40754      6957.5554      182018.86    
      1200   285.00364     -58439.091     -58736.128      297.03779      6944.5557      182018.86    
      1300   284.07422     -58445.378     -58741.447      296.06913      6839.369       182018.86    
      1400   304.45324     -58433.382     -58750.69       317.30864      6796.5256      182018.86    
      1500   308.84274     -58420.96      -58742.843      321.88349      6835.8982      182018.86    
      1600   311.98307     -58413.403     -58738.56       325.15642      7030.8661      182018.86    
      1700   296.21404     -58419.81      -58728.532      308.72155      7167.0458      182018.86    
      1800   289.45291     -58430.572     -58732.246      301.67492      7005.9303      182018.86    
      1900   301.05113     -58437.129     -58750.892      313.76287      6728.3675      182018.86    
      2000   299.56959     -58439.459     -58751.677      312.21878      6638.4697      182018.86    
      2100   301.74722     -58430.259     -58744.748      314.48836      6873.4167      182018.86    
      2200   299.69365     -58420.532     -58732.88       312.34807      7077.6459      182018.86    
      2300   299.43459     -58415.537     -58727.615      312.07808      7159.5384      182018.86    
      2400   305.70596     -58420.718     -58739.332      318.61426      7023.5456      182018.86    
      2500   296.41071     -58432.968     -58741.895      308.92652      6748.5044      182018.86    
      2600   305.46929     -58435.472     -58753.839      318.36759      6703.4191      182018.86    
      2700   291.1662      -58436.583     -58740.043      303.46056      6857.8205      182018.86    
      2800   298.89461     -58427.921     -58739.437      311.5153       6957.1686      182018.86    
      2900   300.09743     -58422.939     -58735.708      312.76891      7046.8835      182018.86    
      3000   298.8587      -58421.746     -58733.224      311.47787      6925.1082      182018.86    
      3100   310.96231     -58420.754     -58744.847      324.09255      6921.4998      182018.86    
      3200   296.27548     -58429.442     -58738.228      308.78558      6857.7269      182018.86    
      3300   296.31976     -58433.646     -58742.478      308.83173      6955.1983      182018.86    
      3400   295.18779     -58436.158     -58743.81       307.65197      6759.4608      182018.86    
      3500   298.45009     -58432.226     -58743.278      311.05201      6826.3137      182018.86    
      3600   306.92488     -58422.492     -58742.377      319.88465      6943.1658      182018.86    
      3700   300.79724     -58420.134     -58733.632      313.49827      7019.7182      182018.86    
      3800   298.78306     -58422.869     -58734.268      311.39904      6978.8419      182018.86    
      3900   299.70088     -58430.034     -58742.389      312.35562      6893.2705      182018.86    
      4000   295.1902      -58434.82      -58742.475      307.65447      6793.9566      182018.86    
      4100   299.91803     -58432.577     -58745.159      312.58193      6811.7023      182018.86    
      4200   299.57127     -58429.413     -58741.633      312.22053      6844.5677      182018.86    
      4300   301.95651     -58423.72      -58738.427      314.70649      6997.2883      182018.86    
      4400   297.37913     -58422.514     -58732.449      309.93583      6979.4404      182018.86    
      4500   304.59257     -58423.891     -58741.344      317.45386      6896.1827      182018.86    
      4600   298.0806      -58430.28      -58740.947      310.66692      6891.6303      182018.86    
      4700   297.60659     -58433.032     -58743.205      310.1729       6881.4107      182018.86    
      4800   302.26947     -58430.959     -58745.992      315.03266      6833.0347      182018.86    
      4900   296.35559     -58428.816     -58737.685      308.86907      6962.6862      182018.86    
      5000   303.05439     -58425.123     -58740.973      315.85072      6896.9327      182018.86    
      5100   298.51784     -58424.983     -58736.106      311.12262      6949.522       182018.86    
      5200   304.25059     -58423.403     -58740.501      317.09743      6940.5168      182018.86    
      5300   298.87301     -58427.988     -58739.48       311.49279      6936.8352      182018.86    
      5400   295.83138     -58432.731     -58741.054      308.32273      6865.539       182018.86    
      5500   299.28473     -58432.238     -58744.16       311.92189      6886.0745      182018.86    
      5600   296.7964      -58429.882     -58739.211      309.32849      6906.7803      182018.86    
      5700   303.34819     -58424.411     -58740.568      316.15693      6933.2801      182018.86    
      5800   303.56733     -58422.722     -58739.107      316.38532      6968.486       182018.86    
      5900   299.87737     -58425.899     -58738.438      312.53956      6909.1884      182018.86    
      6000   297.38872     -58430.364     -58740.31       309.94582      6910.9469      182018.86    
      6100   299.13234     -58432.497     -58744.26       311.76307      6856.6535      182018.86    
      6200   298.17105     -58430.79      -58741.551      310.76118      6883.769       182018.86    
      6300   298.69701     -58426.012     -58737.321      311.30936      6995.3998      182018.86    
      6400   302.77115     -58422.705     -58738.261      315.55553      6938.7771      182018.86    
      6500   301.50986     -58424.054     -58738.295      314.24098      6920.4278      182018.86    
      6600   302.07485     -58428.082     -58742.912      314.82982      6920.8658      182018.86    
      6700   293.90109     -58434.34      -58740.651      306.31093      6853.8025      182018.86    
      6800   300.94632     -58431.971     -58745.624      313.65365      6830.9843      182018.86    
      6900   299.50623     -58426.807     -58738.96       312.15275      6961.407       182018.86    
      7000   300.90692     -58422.922     -58736.535      313.61258      7010.0482      182018.86    
      7100   305.47264     -58422.666     -58741.037      318.37108      6960.7429      182018.86    
      7200   300.00426     -58428.118     -58740.789      312.67181      6916.4101      182018.86    
      7300   293.46415     -58433.551     -58739.406      305.85554      6914.0508      182018.86    
      7400   303.33644     -58431.606     -58747.751      316.14469      6796.7693      182018.86    
      7500   300.5006      -58428.427     -58741.616      313.1891       6887.2818      182018.86    
      7600   304.42255     -58423.983     -58741.26       317.27665      7000.2261      182018.86    
      7700   298.36662     -58424.356     -58735.321      310.96502      7014.9099      182018.86    
      7800   305.14996     -58425.358     -58743.393      318.03478      6872.4839      182018.86    
      7900   296.43453     -58430.467     -58739.419      308.95135      6949.9901      182018.86    
      8000   298.23031     -58431.11      -58741.933      310.82295      6865.3713      182018.86    
      8100   301.56635     -58428.638     -58742.938      314.29985      6906.6695      182018.86    
      8200   301.33398     -58426.994     -58741.052      314.05767      6928.8919      182018.86    
      8300   298.90958     -58427.669     -58739.2        311.5309       6904.6609      182018.86    
      8400   299.57529     -58428.298     -58740.523      312.22472      6934.2449      182018.86    
      8500   299.42546     -58427.861     -58739.929      312.06857      6905.1983      182018.86    
      8600   305.30059     -58425.382     -58743.573      318.19177      6909.186       182018.86    
      8700   296.16006     -58427.565     -58736.23       308.66528      6943.4889      182018.86    
      8800   300.98987     -58427.425     -58741.125      313.69903      6973.3784      182018.86    
      8900   300.86884     -58429.13      -58742.703      313.57289      6862.0272      182018.86    
      9000   299.94907     -58430.576     -58743.19       312.61428      6911.4398      182018.86    
      9100   298.22021     -58429.101     -58739.913      310.81243      6908.4444      182018.86    
      9200   298.91337     -58425.48      -58737.015      311.53485      6991.0025      182018.86    
      9300   302.49709     -58424.654     -58739.924      315.26989      6940.938       182018.86    
      9400   299.86941     -58428.348     -58740.879      312.53126      6915.4454      182018.86    
      9500   299.35231     -58430.461     -58742.453      311.99233      6805.6986      182018.86    
      9600   301.23978     -58430.563     -58744.523      313.95949      6897.8733      182018.86    
      9700   297.1085      -58429.639     -58739.292      309.65377      6861.5513      182018.86    
      9800   302.16313     -58424.481     -58739.403      314.92183      6977.2203      182018.86    
      9900   303.99442     -58422.71      -58739.54       316.83045      6963.276       182018.86    
     10000   298.88474     -58425.702     -58737.207      311.50501      6963.2882      182018.86    
     10100   297.22387     -58432.862     -58742.636      309.77401      6888.9632      182018.86    
     10200   295.97856     -58433.511     -58741.987      308.47612      6880.8033      182018.86    
     10300   304.76309     -58428.064     -58745.696      317.63158      6910.9469      182018.86    
     10400   295.61561     -58428.293     -58736.391      308.09785      6931.576       182018.86    
     10500   298.88482     -58427.24      -58738.745      311.5051       6982.8989      182018.86    
     10600   304.431       -58425.856     -58743.142      317.28547      6882.1875      182018.86    
     10700   301.31447     -58428.939     -58742.976      314.03734      6879.7048      182018.86    
     10800   296.6601      -58434.507     -58743.693      309.18644      6858.5059      182018.86    
     10900   294.75431     -58434.158     -58741.358      307.20018      6892.4523      182018.86    
     11000   301.9682      -58427.788     -58742.507      314.71867      6930.1827      182018.86    
     11100   300.4988      -58424.896     -58738.084      313.18723      6909.7047      182018.86    
     11200   301.12109     -58425.631     -58739.467      313.83579      6915.0957      182018.86    
     11300   298.13954     -58429.128     -58739.856      310.72834      6890.3771      182018.86    
     11400   301.95573     -58430.584     -58745.29       314.70568      6847.0656      182018.86    
     11500   296.32376     -58433.929     -58742.765      308.8359       6831.0668      182018.86    
     11600   297.03563     -58432.763     -58742.34       309.57783      6868.6637      182018.86    
     11700   301.73036     -58427.451     -58741.922      314.47078      6913.6065      182018.86    
     11800   302.30695     -58424.963     -58740.035      315.07173      6880.774       182018.86    
     11900   298.37938     -58423.77      -58734.748      310.97832      7020.6713      182018.86    
     12000   303.33598     -58420.134     -58736.279      316.1442       7037.6691      182018.86    
     12100   303.38637     -58423.858     -58740.054      316.19673      6933.6392      182018.86    
     12200   299.68708     -58428.911     -58741.252      312.34123      6856.6663      182018.86    
     12300   298.42749     -58429.372     -58740.4        311.02845      6919.4341      182018.86    
     12400   302.98078     -58426.039     -58741.813      315.774        6878.2595      182018.86    
     12500   299.89281     -58424.185     -58736.741      312.55565      6979.796       182018.86    
     12600   305.00092     -58424.396     -58742.276      317.87944      6899.4723      182018.86    
     12700   295.95048     -58430.476     -58738.923      308.44685      6907.7035      182018.86    
     12800   302.06843     -58431.085     -58745.908      314.82314      6819.6161      182018.86    
     12900   300.32227     -58429.232     -58742.235      313.00324      6857.2124      182018.86    
     13000   297.72765     -58424.167     -58734.466      310.29907      7015.0421      182018.86    
     13100   303.76653     -58420.007     -58736.6        316.59293      6992.264       182018.86    
     13200   303.35206     -58423.062     -58739.223      316.16096      6926.0384      182018.86    
     13300   295.42707     -58431.737     -58739.638      307.90134      6869.7964      182018.86    
     13400   299.38644     -58432.29      -58744.318      312.02789      6780.6444      182018.86    
     13500   300.82501     -58430.811     -58744.338      313.52721      6834.3547      182018.86    
     13600   297.76077     -58427.063     -58737.397      310.33358      6933.2859      182018.86    
     13700   299.68661     -58423.232     -58735.573      312.34074      6993.3295      182018.86    
     13800   307.33224     -58421.995     -58742.304      320.3092       6913.0187      182018.86    
     13900   297.63946     -58430.899     -58741.107      310.20716      6830.9997      182018.86    
     14000   300.48422     -58431.458     -58744.63       313.17203      6831.8878      182018.86    
     14100   298.68267     -58429.021     -58740.315      311.29441      6912.6085      182018.86    
     14200   300.18243     -58424.194     -58737.051      312.8575       6980.2835      182018.86    
     14300   303.33648     -58423.397     -58739.541      316.14472      6971.8063      182018.86    
     14400   301.75663     -58427.068     -58741.566      314.49816      6891.7301      182018.86    
     14500   295.9247      -58436.475     -58744.895      308.41998      6818.3489      182018.86    
     14600   294.35627     -58436.65      -58743.436      306.78533      6834.4609      182018.86    
     14700   297.72101     -58430.63      -58740.922      310.29214      6913.0171      182018.86    
     14800   302.00667     -58425.382     -58740.141      314.75877      6919.7473      182018.86    
     14900   301.47429     -58424.543     -58738.747      314.20391      6959.5678      182018.86    
     15000   300.28663     -58427.559     -58740.525      312.9661       6943.2477      182018.86    
     15100   298.86716     -58433.223     -58744.709      311.4867       6850.6988      182018.86    
     15200   296.75337     -58434.99      -58744.274      309.28365      6816.919       182018.86    
     15300   297.90024     -58427.636     -58738.115      310.47895      6958.4885      182018.86    
     15400   303.53498     -58422.255     -58738.606      316.35161      6952.008       182018.86    
     15500   301.49507     -58423.185     -58737.411      314.22556      7002.4124      182018.86    
     15600   298.12568     -58427.255     -58737.969      310.7139       6893.7426      182018.86    
     15700   298.65855     -58430.892     -58742.161      311.26927      6964.9317      182018.86    
     15800   296.11249     -58432.452     -58741.067      308.61571      6890.7311      182018.86    
     15900   305.2396      -58427.035     -58745.163      318.12821      6858.4734      182018.86    
     16000   299.66585     -58421.357     -58733.676      312.31911      7006.9734      182018.86    
     16100   301.90741     -58421.799     -58736.454      314.65531      7023.1214      182018.86    
     16200   301.30267     -58426.242     -58740.267      314.02504      6974.9565      182018.86    
     16300   299.82706     -58429.407     -58741.894      312.48712      6956.8576      182018.86    
     16400   301.0715      -58430.072     -58743.856      313.78411      6839.0698      182018.86    
     16500   300.50965     -58427.108     -58740.306      313.19854      6936.3038      182018.86    
     16600   298.85798     -58422.474     -58733.951      311.47712      7021.7605      182018.86    
     16700   303.47178     -58422.689     -58738.975      316.28574      6945.2614      182018.86    
     16800   300.23815     -58425.215     -58738.131      312.91557      6954.6813      182018.86    
     16900   302.09573     -58427.376     -58742.228      314.85159      6847.7831      182018.86    
     17000   298.97623     -58430.71      -58742.311      311.60036      6851.8084      182018.86    
     17100   297.97401     -58430.913     -58741.469      310.55582      6907.6152      182018.86    
     17200   303.48494     -58424.393     -58740.692      316.29945      6935.1902      182018.86    
     17300   303.16967     -58421.358     -58737.329      315.97087      6954.5659      182018.86    
     17400   302.097       -58422.053     -58736.905      314.85291      7015.2567      182018.86    
     17500   296.58194     -58429.92      -58739.025      309.10498      6883.8187      182018.86    
     17600   297.36283     -58432.028     -58741.947      309.91885      6850.2439      182018.86    
     17700   301.05522     -58429.94      -58743.707      313.76714      6901.2552      182018.86    
     17800   300.1674      -58426.759     -58739.601      312.84183      6894.2353      182018.86    
     17900   304.30683     -58420.871     -58738.027      317.15604      7008.6021      182018.86    
     18000   302.51438     -58420.372     -58735.66       315.28791      7048.2696      182018.86    
     18100   299.86639     -58428.913     -58741.441      312.52811      6881.0649      182018.86    
     18200   297.40587     -58432.387     -58742.351      309.96369      6885.0101      182018.86    
     18300   298.53533     -58429.841     -58740.982      311.14085      6864.838       182018.86    
     18400   299.25806     -58425.393     -58737.287      311.8941       6943.2349      182018.86    
     18500   299.90866     -58424.73      -58737.302      312.57217      6999.0057      182018.86    
     18600   302.98603     -58426.942     -58742.721      315.77948      6863.0363      182018.86    
     18700   299.90779     -58434.28      -58746.852      312.57126      6757.9362      182018.86    
     18800   294.1512      -58436.79      -58743.362      306.5716       6797.8908      182018.86    
     18900   298.64032     -58432.458     -58743.708      311.25028      6864.3749      182018.86    
     19000   295.99573     -58427.614     -58736.108      308.49402      6943.5866      182018.86    
     19100   305.23128     -58422.719     -58740.838      318.11953      6931.9541      182018.86    
     19200   300.4101      -58425.402     -58738.497      313.09478      6989.4492      182018.86    
     19300   302.24768     -58429.289     -58744.299      315.00995      6872.3366      182018.86    
     19400   296.23836     -58434.109     -58742.856      308.74689      6869.4135      182018.86    
     19500   295.52375     -58432.743     -58740.745      308.0021       6850.411       182018.86    
     19600   300.64712     -58430.994     -58744.335      313.34181      6855.3743      182018.86    
     19700   297.65893     -58429.977     -58740.205      310.22745      6910.529       182018.86    
     19800   304.76925     -58424.506     -58742.144      317.63799      6891.6033      182018.86    
     19900   300.80769     -58424.183     -58737.692      313.50916      6988.6531      182018.86    
     20000   298.30439     -58426.532     -58737.433      310.90015      6989.2442      182018.86    
     20100   298.68665     -58434.924     -58746.223      311.29856      6761.2306      182018.86    
     20200   296.1528      -58435.488     -58744.145      308.65772      6841.1358      182018.86    
     20300   300.83536     -58429.832     -58743.37       313.538        6863.6099      182018.86    
     20400   298.62812     -58427.075     -58738.312      311.23756      6914.144       182018.86    
     20500   302.34744     -58424.483     -58739.597      315.11392      6952.9712      182018.86    
     20600   298.92804     -58425.973     -58737.523      311.55014      6968.6125      182018.86    
     20700   298.92672     -58432.561     -58744.11       311.54877      6882.4169      182018.86    
     20800   297.45865     -58435.387     -58745.406      310.01871      6850.1557      182018.86    
     20900   297.42169     -58432.455     -58742.436      309.98019      6873.0246      182018.86    
     21000   302.93789     -58425.8       -58741.529      315.72931      6938.9006      182018.86    
     21100   298.76475     -58425.243     -58736.623      311.37996      6994.3783      182018.86    
     21200   300.60904     -58425.557     -58738.859      313.30212      7017.5934      182018.86    
     21300   298.24746     -58431.048     -58741.888      310.84082      6905.4524      182018.86    
     21400   302.18441     -58431.269     -58746.213      314.94401      6833.3754      182018.86    
     21500   294.2624      -58431.413     -58738.101      306.6875       6952.2833      182018.86    
     21600   296.65991     -58429.053     -58738.239      309.18624      6951.9703      182018.86    
     21700   298.69976     -58426.143     -58737.456      311.31223      6962.1376      182018.86    
     21800   306.02201     -58425.351     -58744.295      318.94365      6924.8537      182018.86    
     21900   299.73143     -58427.37      -58739.758      312.38745      6977.5863      182018.86    
     22000   296.38628     -58429.021     -58737.923      308.90106      7011.352       182018.86    
     22100   299.23243     -58428.716     -58740.584      311.86738      6970.1191      182018.86    
     22200   304.63553     -58423.017     -58740.515      317.49863      6993.8852      182018.86    
     22300   298.75841     -58420.723     -58732.097      311.37335      7056.3127      182018.86    
     22400   302.28957     -58423.346     -58738.4        315.05361      6968.8966      182018.86    
     22500   299.88904     -58429.943     -58742.495      312.55172      6903.8132      182018.86    
     22600   299.83404     -58430.806     -58743.3        312.4944       6863.4601      182018.86    
     22700   301.40334     -58429.413     -58743.543      314.12996      6888.3404      182018.86    
     22800   299.15319     -58426.856     -58738.641      311.7848       6906.7612      182018.86    
     22900   303.67031     -58421.194     -58737.687      316.49266      7013.4158      182018.86    
     23000   300.85138     -58421.203     -58734.758      313.55469      6996.7789      182018.86    
     23100   301.17805     -58429.798     -58743.693      313.89516      6861.8733      182018.86    
     23200   299.18445     -58432.505     -58744.323      311.81738      6841.7622      182018.86    
     23300   296.22836     -58431.146     -58739.883      308.73647      6943.1175      182018.86    
     23400   300.90717     -58426.044     -58739.657      313.61284      6910.6948      182018.86    
     23500   305.00235     -58423.324     -58741.205      317.88094      6934.6159      182018.86    
     23600   299.43959     -58425.842     -58737.925      312.08329      6993.3164      182018.86    
     23700   296.08173     -58433.714     -58742.298      308.58365      6879.8004      182018.86    
     23800   295.80924     -58437.509     -58745.809      308.29965      6834.8314      182018.86    
     23900   296.43216     -58434.051     -58743          308.94887      6892.6118      182018.86    
     24000   299.57761     -58428.718     -58740.946      312.22714      6884.9021      182018.86    
     24100   301.19412     -58425.71      -58739.622      313.91191      7029.2151      182018.86    
     24200   300.54431     -58425.647     -58738.882      313.23466      6994.9738      182018.86    
     24300   297.20516     -58430.392     -58740.146      309.75451      6930.692       182018.86    
     24400   297.89537     -58434.713     -58745.187      310.47386      6867.3179      182018.86    
     24500   299.22556     -58433.951     -58745.812      311.86022      6810.8686      182018.86    
     24600   298.9536      -58424.165     -58735.741      311.57678      6996.7822      182018.86    
     24700   303.43738     -58422.437     -58738.687      316.24989      6995.9026      182018.86    
     24800   300.39102     -58424.718     -58737.793      313.07489      6996.8992      182018.86    
     24900   301.64044     -58428.555     -58742.932      314.37707      6912.4584      182018.86    
     25000   296.47258     -58433.599     -58742.59       308.991        6915.1298      182018.86    
     25100   299.39321     -58431.483     -58743.518      312.03495      6898.9559      182018.86    
     25200   299.25849     -58428.88      -58740.775      311.89455      6907.7228      182018.86    
     25300   300.49776     -58427.214     -58740.4        313.18615      6985.4779      182018.86    
     25400   297.92998     -58428.125     -58738.635      310.50994      6961.8821      182018.86    
     25500   299.32623     -58427.763     -58739.728      311.96515      6965.6269      182018.86    
     25600   301.0465      -58427.042     -58740.8        313.75805      6954.0123      182018.86    
     25700   300.292       -58427.542     -58740.514      312.97169      6948.5003      182018.86    
     25800   298.55898     -58429.61      -58740.775      311.1655       6982.8613      182018.86    
     25900   295.11837     -58435.006     -58742.585      307.57961      6927.4487      182018.86    
     26000   297.87192     -58434.371     -58744.821      310.44943      6830.9043      182018.86    
     26100   303.67724     -58428.293     -58744.793      316.49988      6851.8667      182018.86    
     26200   298.45959     -58426.669     -58737.731      311.06191      6967.0548      182018.86    
     26300   300.58698     -58425.108     -58738.388      313.27913      6960.2792      182018.86    
     26400   300.74342     -58424.903     -58738.345      313.44217      6981.121       182018.86    
     26500   299.31249     -58427.744     -58739.695      311.95082      6976.0641      182018.86    
     26600   296.99848     -58432.246     -58741.785      309.53911      6910.8681      182018.86    
     26700   301.80253     -58431.399     -58745.945      314.54601      6885.9309      182018.86    
     26800   296.91083     -58429.522     -58738.97       309.44776      6944.7403      182018.86    
     26900   303.56785     -58422.275     -58738.661      316.38586      7015.0974      182018.86    
     27000   302.78337     -58422.243     -58737.811      315.56826      6992.1077      182018.86    
     27100   299.29037     -58425.672     -58737.6        311.92777      6952.5787      182018.86    
     27200   300.74365     -58428.044     -58741.486      313.44241      6972.3945      182018.86    
     27300   298.25548     -58430.992     -58741.842      310.84919      6895.5094      182018.86    
     27400   303.61678     -58429.172     -58745.608      316.43687      6936.4056      182018.86    
     27500   302.75405     -58420.19      -58735.728      315.5377       7079.5284      182018.86    
     27600   301.99836     -58420.011     -58734.761      314.75011      7019.3429      182018.86    
     27700   302.027       -58425.176     -58739.956      314.77995      7024.2495      182018.86    
     27800   296.80978     -58430.13      -58739.472      309.34244      6912.5405      182018.86    
     27900   300.90966     -58429.47      -58743.085      313.61543      6933.3253      182018.86    
     28000   296.73111     -58429.623     -58738.884      309.26045      6920.1431      182018.86    
     28100   301.47498     -58425.663     -58739.868      314.20463      6975.2764      182018.86    
     28200   305.54396     -58419.791     -58738.236      318.44541      7047.1485      182018.86    
     28300   302.50919     -58421.94      -58737.222      315.2825       7036.1871      182018.86    
     28400   301.12154     -58428.074     -58741.91       313.83627      6914.1522      182018.86    
     28500   297.6567      -58429.84      -58740.065      310.22512      6958.7837      182018.86    
     28600   301.76928     -58427.555     -58742.067      314.51136      6934.512       182018.86    
     28700   297.54031     -58427.395     -58737.499      310.10382      7016.6872      182018.86    
     28800   302.62588     -58426.466     -58741.87       315.40412      6925.7328      182018.86    
     28900   300.16914     -58426.303     -58739.147      312.84365      7020.5602      182018.86    
     29000   297.74176     -58428.212     -58738.526      310.31378      6906.3881      182018.86    
     29100   300.88319     -58430.098     -58743.686      313.58784      6878.9567      182018.86    
     29200   293.84085     -58432.586     -58738.835      306.24815      6891.3699      182018.86    
     29300   299.72662     -58429.288     -58741.671      312.38244      6943.8273      182018.86    
     29400   304.72349     -58423.787     -58741.377      317.5903       6941.1223      182018.86    
     29500   300.80654     -58424.184     -58737.692      313.50797      7003.5151      182018.86    
     29600   298.33567     -58427.981     -58738.914      310.93276      6965.0476      182018.86    
     29700   295.60489     -58434.615     -58742.702      308.08668      6888.9154      182018.86    
     29800   301.05502     -58433.848     -58747.615      313.76694      6842.3409      182018.86    
     29900   296.70087     -58430.856     -58740.085      309.22893      6935.0935      182018.86    
     30000   299.77947     -58427.175     -58739.612      312.43752      6929.7125      182018.86    
     30100   302.91029     -58425.646     -58741.346      315.70054      6947.0509      182018.86    
     30200   301.17899     -58426.413     -58740.309      313.89614      6934.5963      182018.86    
     30300   293.59009     -58433.129     -58739.115      305.9868       6897.4725      182018.86    
     30400   296.90899     -58434.124     -58743.569      309.44584      6831.7632      182018.86    
     30500   302.59204     -58429.095     -58744.463      315.36885      6861.6906      182018.86    
     30600   299.48795     -58427.768     -58739.901      312.13369      6920.1217      182018.86    
     30700   301.05341     -58426.721     -58740.486      313.76526      6912.1347      182018.86    
     30800   300.34983     -58427.116     -58740.148      313.03197      6926.0081      182018.86    
     30900   298.0871      -58428.319     -58738.993      310.6737       6905.6907      182018.86    
     31000   303.49756     -58427.264     -58743.577      316.31261      6901.475       182018.86    
     31100   300.24945     -58425.494     -58738.422      312.92735      6973.1876      182018.86    
     31200   300.60794     -58423.934     -58737.235      313.30098      7002.9499      182018.86    
     31300   300.47285     -58426.598     -58739.758      313.16019      6924.9848      182018.86    
     31400   298.87756     -58431.689     -58743.187      311.49753      6854.6734      182018.86    
     31500   296.86096     -58434.627     -58744.023      309.39578      6896.5225      182018.86    
     31600   299.42271     -58430.849     -58742.915      312.0657       6842.2014      182018.86    
     31700   300.3482      -58424.434     -58737.465      313.03027      7037.4105      182018.86    
     31800   300.0514      -58424.163     -58736.884      312.72093      7009.6202      182018.86    
     31900   300.75097     -58425.498     -58738.948      313.45004      6954.6233      182018.86    
     32000   299.64464     -58429.726     -58742.023      312.297        6843.3493      182018.86    
     32100   299.60164     -58434.357     -58746.61       312.25219      6853.6818      182018.86    
     32200   300.15047     -58432.684     -58745.508      312.82419      6782.969       182018.86    
     32300   294.31953     -58430.942     -58737.689      306.74704      6940.4179      182018.86    
     32400   301.14316     -58427.615     -58741.474      313.85879      6993.2221      182018.86    
     32500   299.98862     -58425.973     -58738.629      312.65551      6941.4141      182018.86    
     32600   304.48325     -58422.851     -58740.19       317.33992      7003.439       182018.86    
     32700   303.34775     -58422.106     -58738.262      316.15647      6967.3751      182018.86    
     32800   298.3777      -58429.262     -58740.239      310.97657      6899.8403      182018.86    
     32900   298.13457     -58431.918     -58742.641      310.72317      6892.7796      182018.86    
     33000   300.31531     -58431.303     -58744.299      312.99599      6872.4084      182018.86    
     33100   299.85719     -58426.592     -58739.11       312.51852      6936.0339      182018.86    
     33200   305.86373     -58421.676     -58740.455      318.77869      6974.4086      182018.86    
     33300   297.0282      -58426.013     -58735.583      309.57008      7041.3175      182018.86    
     33400   299.93641     -58428.628     -58741.229      312.60109      6934.1169      182018.86    
     33500   299.99814     -58430.26      -58742.925      312.66542      6861.8169      182018.86    
     33600   302.56837     -58427.911     -58743.255      315.34419      6906.9906      182018.86    
     33700   300.38945     -58421.769     -58734.842      313.07326      7033.8458      182018.86    
     33800   300.51616     -58420.276     -58733.481      313.20532      7013.9737      182018.86    
     33900   302.38658     -58425.024     -58740.179      315.15472      6942.5466      182018.86    
     34000   300.44823     -58430.274     -58743.408      313.13452      6884.972       182018.86    
     34100   297.56914     -58431.193     -58741.327      310.13387      6901.3218      182018.86    
     34200   299.94003     -58427.859     -58740.464      312.60486      7022.8504      182018.86    
     34300   298.49583     -58424.864     -58735.964      311.09969      7040.8774      182018.86    
     34400   303.80997     -58421.493     -58738.132      316.63821      6976.6567      182018.86    
     34500   304.31134     -58417.406     -58734.567      317.16075      7053.5859      182018.86    
     34600   301.25679     -58420.98      -58734.957      313.97723      6983.3237      182018.86    
     34700   300.79506     -58427.02      -58740.516      313.49599      6963.1487      182018.86    
     34800   296.24916     -58431.376     -58740.134      308.75814      6912.0396      182018.86    
     34900   298.85892     -58431.565     -58743.044      311.47811      6912.17        182018.86    
     35000   301.18785     -58428.021     -58741.926      313.90537      6900.8553      182018.86    
     35100   300.67698     -58421.324     -58734.697      313.37293      6999.2632      182018.86    
     35200   306.14622     -58419.842     -58738.916      319.0731       7038.7754      182018.86    
     35300   297.84374     -58424.603     -58735.023      310.42005      7029.5657      182018.86    
     35400   304.07517     -58426.378     -58743.292      316.91461      6937.4392      182018.86    
     35500   298.69611     -58431.591     -58742.899      311.30842      6882.7304      182018.86    
     35600   300.90604     -58431.974     -58745.586      313.61166      6839.9922      182018.86    
     35700   296.86833     -58430.462     -58739.866      309.40346      6956.7282      182018.86    
     35800   301.33296     -58422.578     -58736.635      314.0566       7090.6519      182018.86    
     35900   303.36232     -58421.045     -58737.217      316.17166      7045.0078      182018.86    
     36000   303.56409     -58424.83      -58741.212      316.38195      6940.4852      182018.86    
     36100   299.00681     -58429.708     -58741.34       311.63224      6896.8527      182018.86    
     36200   293.9728      -58430.928     -58737.314      306.38567      6971.7406      182018.86    
     36300   306.16763     -58426.097     -58745.192      319.09541      6903.9151      182018.86    
     36400   297.25454     -58428.098     -58737.904      309.80598      7042.3165      182018.86    
     36500   296.42062     -58433.148     -58742.085      308.93685      6884.2547      182018.86    
     36600   298.77287     -58436.148     -58747.536      311.38842      6805.1827      182018.86    
     36700   299.95792     -58431.647     -58744.271      312.62351      6914.0985      182018.86    
     36800   299.44123     -58427.259     -58739.344      312.085        6947.7188      182018.86    
     36900   300.89684     -58424.794     -58738.396      313.60207      6999.3236      182018.86    
     37000   302.85562     -58424.56      -58740.204      315.64356      6983.0077      182018.86    
     37100   296.36753     -58431.84      -58740.722      308.88152      6890.3462      182018.86    
     37200   298.58669     -58432.595     -58743.789      311.19438      6867.4294      182018.86    
     37300   297.47006     -58430.981     -58741.012      310.0306       6911.3222      182018.86    
     37400   299.96877     -58427.601     -58740.235      312.63482      6984.7689      182018.86    
     37500   303.10768     -58422.674     -58738.58       315.90626      6966.3153      182018.86    
     37600   302.75192     -58419.712     -58735.247      315.53548      7024.3507      182018.86    
     37700   299.96089     -58424.278     -58736.905      312.6266       7007.1701      182018.86    
     37800   299.7286      -58430.818     -58743.203      312.3845       6905.3102      182018.86    
     37900   299.37631     -58433.119     -58745.137      312.01734      6894.4349      182018.86    
     38000   299.06035     -58431.248     -58742.936      311.68803      6833.651       182018.86    
     38100   301.54061     -58425.836     -58740.109      314.27302      6981.0539      182018.86    
     38200   297.94594     -58423.948     -58734.474      310.52657      7038.2838      182018.86    
     38300   303.38003     -58423.706     -58739.896      316.19011      6961.5032      182018.86    
     38400   296.39049     -58432.472     -58741.377      308.90544      6867.7521      182018.86    
     38500   300.40676     -58432.292     -58745.383      313.0913       6918.4095      182018.86    
     38600   299.28301     -58430.821     -58742.741      311.9201       6838.5928      182018.86    
     38700   301.08865     -58425.211     -58739.013      313.80198      7026.435       182018.86    
     38800   299.70948     -58423.307     -58735.671      312.36458      7053.2644      182018.86    
     38900   303.62906     -58423.876     -58740.326      316.44966      6921.232       182018.86    
     39000   301.35268     -58426.715     -58740.793      314.07716      6912.641       182018.86    
     39100   300.42271     -58428.339     -58741.447      313.10793      6982.2523      182018.86    
     39200   299.80408     -58430.326     -58742.789      312.46317      6937.2549      182018.86    
     39300   295.23967     -58433.907     -58741.613      307.70604      6902.3601      182018.86    
     39400   298.12705     -58432.924     -58743.639      310.71534      6931.3144      182018.86    
     39500   300.49326     -58429.337     -58742.518      313.18145      6927.5973      182018.86    
     39600   300.4353      -58425.159     -58738.28       313.12104      7056.7982      182018.86    
     39700   299.56924     -58423.095     -58735.314      312.21842      7072.4769      182018.86    
     39800   304.45577     -58425.062     -58742.373      317.31128      6945.6863      182018.86    
     39900   299.29633     -58432.221     -58744.155      311.93398      6843.609       182018.86    
     40000   296.22096     -58431.771     -58740.5        308.72876      6973.3673      182018.86    
     40100   297.80106     -58427.576     -58737.951      310.37558      6951.2961      182018.86    
     40200   303.38737     -58426.052     -58742.249      316.19776      6912.7156      182018.86    
     40300   300.00458     -58427.44      -58740.112      312.67214      6951.8373      182018.86    
     40400   298.97015     -58428.152     -58739.746      311.59403      6996.3409      182018.86    
     40500   300.64295     -58428.646     -58741.984      313.33747      6971.3055      182018.86    
     40600   299.26535     -58428.628     -58740.53       311.90169      6934.821       182018.86    
     40700   299.80087     -58426.753     -58739.212      312.45982      6982.684       182018.86    
     40800   302.08322     -58424.914     -58739.752      314.83855      6944.2633      182018.86    
     40900   300.69236     -58428.6       -58741.989      313.38896      6959.7521      182018.86    
     41000   298.79294     -58433.699     -58745.108      311.40934      6879.0909      182018.86    
     41100   294.9949      -58434.03      -58741.481      307.45092      6868.5134      182018.86    
     41200   299.25601     -58428.134     -58740.026      311.89196      6930.73        182018.86    
     41300   304.13673     -58423.425     -58740.404      316.97876      6973.645       182018.86    
     41400   300.58321     -58425.263     -58738.538      313.2752       6910.9172      182018.86    
     41500   297.56123     -58427.233     -58737.358      310.12562      6987.6793      182018.86    
     41600   299.70181     -58429.671     -58742.027      312.35658      6980.7064      182018.86    
     41700   297.75552     -58434.924     -58745.252      310.32811      6852.0216      182018.86    
     41800   302.96631     -58431.974     -58747.733      315.75893      6813.199       182018.86    
     41900   298.07514     -58425.413     -58736.074      310.66123      7034.8163      182018.86    
     42000   302.94257     -58421.884     -58737.618      315.73418      7041.5158      182018.86    
     42100   302.1427      -58424.679     -58739.579      314.90054      6987.0557      182018.86    
     42200   300.00421     -58428.892     -58741.564      312.67175      6939.5938      182018.86    
     42300   299.28256     -58432.187     -58744.106      311.91963      6906.6529      182018.86    
     42400   299.57535     -58432.25      -58744.475      312.22479      6858.9776      182018.86    
     42500   299.66916     -58425.803     -58738.126      312.32255      6983.5605      182018.86    
     42600   302.58261     -58420.523     -58735.882      315.35903      7066.2297      182018.86    
     42700   307.16955     -58420.26      -58740.4        320.13965      6953.8002      182018.86    
     42800   300.72111     -58425.106     -58738.525      313.41892      7035.1879      182018.86    
     42900   299.89557     -58428.055     -58740.613      312.55852      6917.4328      182018.86    
     43000   302.2589      -58429.828     -58744.849      315.02164      6884.5898      182018.86    
     43100   299.43807     -58431.413     -58743.494      312.08171      6858.7799      182018.86    
     43200   297.26243     -58428.134     -58737.948      309.8142       7011.1306      182018.86    
     43300   299.99924     -58422.511     -58735.177      312.66657      7012.0843      182018.86    
     43400   302.62381     -58421.762     -58737.164      315.40196      7037.8695      182018.86    
     43500   303.60682     -58427.024     -58743.45       316.42648      6918.4682      182018.86    
     43600   299.74857     -58431.643     -58744.048      312.40532      6869.5037      182018.86    
     43700   293.67697     -58432.227     -58738.305      306.07735      6933.7351      182018.86    
     43800   302.48552     -58427.272     -58742.53       315.25784      6908.1713      182018.86    
     43900   304.1999      -58424.92      -58741.965      317.0446       6962.2141      182018.86    
     44000   300.63599     -58426.489     -58739.819      313.33021      6946.5502      182018.86    
     44100   301.4366      -58428.563     -58742.728      314.16462      6956.8627      182018.86    
     44200   294.74352     -58437.633     -58744.822      307.18893      6824.5824      182018.86    
     44300   293.49978     -58436.556     -58742.448      305.89268      6868.2311      182018.86    
     44400   298.36223     -58431.249     -58742.209      310.96044      6854.951       182018.86    
     44500   301.12336     -58427.258     -58741.096      313.83816      6908.2374      182018.86    
     44600   304.59522     -58422.781     -58740.237      317.45662      6932.3614      182018.86    
     44700   296.22632     -58424.91      -58733.645      308.73435      7049.5284      182018.86    
     44800   299.29461     -58426.725     -58738.657      311.93219      6957.6909      182018.86    
     44900   302.57334     -58427.401     -58742.75       315.34937      6962.8702      182018.86    
     45000   298.49296     -58429.628     -58740.724      311.09669      6871.5385      182018.86    
     45100   299.57148     -58430.072     -58742.293      312.22075      6963.0915      182018.86    
     45200   303.0683      -58426.442     -58742.307      315.86522      6946.0661      182018.86    
     45300   297.06839     -58425.062     -58734.674      309.61197      7050.2848      182018.86    
     45400   303.54493     -58422.788     -58739.15       316.36198      6969.835       182018.86    
     45500   301.3941      -58426.771     -58740.891      314.12033      6909.8708      182018.86    
     45600   300.62649     -58430.893     -58744.213      313.32031      6861.6538      182018.86    
     45700   295.16568     -58434.96      -58742.589      307.62892      6835.9708      182018.86    
     45800   294.3362      -58437.611     -58744.376      306.76441      6873.9637      182018.86    
     45900   298.91848     -58431.179     -58742.719      311.54018      6911.8414      182018.86    
     46000   300.68181     -58425.657     -58739.035      313.37796      6985.566       182018.86    
     46100   302.66722     -58423.165     -58738.613      315.4472       6962.8768      182018.86    
     46200   299.74852     -58425.593     -58737.998      312.40527      6990.932       182018.86    
     46300   297.58874     -58430.792     -58740.946      310.15429      6883.0159      182018.86    
     46400   299.22195     -58431.612     -58743.468      311.85646      6851.8207      182018.86    
     46500   300.93101     -58427.911     -58741.549      313.63768      6862.1683      182018.86    
     46600   304.06161     -58420.608     -58737.509      316.90048      7041.4914      182018.86    
     46700   304.10258     -58420.632     -58737.575      316.94317      6957.7727      182018.86    
     46800   301.82113     -58425.978     -58740.543      314.56539      6945.3392      182018.86    
     46900   298.74884     -58429.901     -58741.264      311.36338      6919.4101      182018.86    
     47000   297.36005     -58431         -58740.916      309.91594      6924.5398      182018.86    
     47100   298.68594     -58429.674     -58740.972      311.29782      6912.42        182018.86    
     47200   301.97529     -58425.605     -58740.331      314.72606      6997.5313      182018.86    
     47300   302.18384     -58418.315     -58733.259      314.94341      7124.5969      182018.86    
     47400   307.96566     -58413.352     -58734.321      320.96937      7087.9178      182018.86    
     47500   303.38217     -58418.524     -58734.716      316.19235      7098.2139      182018.86    
     47600   299.33617     -58424.32      -58736.296      311.9755       6960.7145      182018.86    
     47700   300.24191     -58429.272     -58742.191      312.91949      6842.2279      182018.86    
     47800   301.32319     -58430.992     -58745.038      314.04643      6873.9224      182018.86    
     47900   298.93155     -58430.394     -58741.948      311.5538       6866.9808      182018.86    
     48000   302.03778     -58425.412     -58740.204      314.79118      6957.096       182018.86    
     48100   298.89378     -58421.86      -58733.374      311.51443      7104.0281      182018.86    
     48200   305.78154     -58421.035     -58739.728      318.69303      6993.123       182018.86    
     48300   299.0165      -58430.005     -58741.648      311.64234      6882.8698      182018.86    
     48400   300.26199     -58431.802     -58744.742      312.94042      6906.1492      182018.86    
     48500   297.21891     -58431.454     -58741.222      309.76885      6967.5737      182018.86    
     48600   298.95535     -58426.677     -58738.255      311.57861      6975.1404      182018.86    
     48700   303.1273      -58422.177     -58738.103      315.92671      7003.711       182018.86    
     48800   301.46234     -58423.294     -58737.486      314.19145      7040.9316      182018.86    
     48900   303.86036     -58426.495     -58743.186      316.69073      6920.6459      182018.86    
     49000   300.62049     -58428.36      -58741.674      313.31405      6972.3735      182018.86    
     49100   296.26106     -58429.382     -58738.152      308.77055      7011.3982      182018.86    
     49200   299.61977     -58428.886     -58741.158      312.27108      6897.5486      182018.86    
     49300   303.85574     -58428.039     -58744.725      316.68591      6895.342       182018.86    
     49400   296.92758     -58427.8       -58737.265      309.46521      6965.6979      182018.86    
     49500   300.83771     -58422.739     -58736.279      313.54044      7044.6425      182018.86    
     49600   302.74135     -58422.307     -58737.831      315.52447      6985.3008      182018.86    
     49700   299.81104     -58429.046     -58741.516      312.47042      6907.628       182018.86    
     49800   299.02452     -58431.216     -58742.866      311.6507       6965.1298      182018.86    
     49900   300.87138     -58430.052     -58743.627      313.57554      6818.0254      182018.86    
     50000   298.55447     -58427.21      -58738.371      311.16079      6989.1781      182018.86    
     50100   300.09455     -58424.16      -58736.926      312.76591      7025.1201      182018.86    
     50200   300.62363     -58425.6       -58738.918      313.31733      6995.8517      182018.86    
     50300   299.44684     -58433.287     -58745.377      312.09085      6776.0815      182018.86    
     50400   296.4076      -58435.86      -58744.783      308.92327      6843.3008      182018.86    
     50500   296.21357     -58432.044     -58740.766      308.72105      6931.4977      182018.86    
     50600   297.37525     -58427.151     -58737.082      309.93179      6980.3727      182018.86    
     50700   308.32008     -58424.041     -58745.379      321.33876      6930.4766      182018.86    
     50800   300.42865     -58426.476     -58739.59       313.11412      6932.1551      182018.86    
     50900   297.75087     -58427.805     -58738.128      310.32327      6970.8801      182018.86    
     51000   297.53547     -58429.814     -58739.913      310.09877      6982.465       182018.86    
     51100   298.11881     -58436.311     -58747.018      310.70675      6834.5851      182018.86    
     51200   299.38529     -58436.625     -58748.651      312.0267       6856.8706      182018.86    
     51300   297.41974     -58429.654     -58739.632      309.97815      6949.2055      182018.86    
     51400   299.4883      -58427.642     -58739.776      312.13406      7029.8867      182018.86    
     51500   298.6985      -58427.549     -58738.86       311.31091      6996.4597      182018.86    
     51600   300.30645     -58426.095     -58739.082      312.98675      7016.5016      182018.86    
     51700   300.15883     -58426.766     -58739.599      312.8329       7017.2003      182018.86    
     51800   299.95716     -58431.262     -58743.885      312.62272      6884.9959      182018.86    
     51900   298.07373     -58433.578     -58744.238      310.65975      6898.948       182018.86    
     52000   301.36943     -58429.32      -58743.415      314.09462      6892.4926      182018.86    
     52100   300.28111     -58421.621     -58734.582      312.96035      7004.2403      182018.86    
     52200   302.59585     -58421.203     -58736.576      315.37282      7026.2385      182018.86    
     52300   301.82585     -58425.123     -58739.693      314.57031      6985.1352      182018.86    
     52400   299.42928     -58429.949     -58742.021      312.07255      6904.479       182018.86    
     52500   300.11736     -58430.98      -58743.77       312.78968      6921.0513      182018.86    
     52600   298.22536     -58429.656     -58740.474      310.81779      7011.4943      182018.86    
     52700   300.91684     -58422.371     -58735.993      313.62291      7027.0969      182018.86    
     52800   305.59513     -58418.794     -58737.293      318.49875      7083.7017      182018.86    
     52900   305.29679     -58422.232     -58740.42       318.18781      6977.3677      182018.86    
     53000   300.4895      -58426.65      -58739.827      313.17753      7002.0662      182018.86    
     53100   297.40073     -58428.915     -58738.873      309.95834      6979.4916      182018.86    
     53200   299.06764     -58430.258     -58741.954      311.69564      6945.57        182018.86    
     53300   299.35453     -58431.273     -58743.267      311.99464      6916.0474      182018.86    
     53400   298.00248     -58426.927     -58737.513      310.5855       6996.4266      182018.86    
     53500   306.28743     -58421.653     -58740.873      319.22028      7020.8808      182018.86    
     53600   300.49226     -58424.559     -58737.739      313.18041      7014.8392      182018.86    
     53700   299.05294     -58428.83      -58740.511      311.68032      6968.5753      182018.86    
     53800   299.72789     -58431.987     -58744.371      312.38376      6913.1383      182018.86    
     53900   293.20805     -58437.783     -58743.371      305.58863      6876.6547      182018.86    
     54000   296.63363     -58439.801     -58748.96       309.15885      6751.888       182018.86    
     54100   298.34431     -58432.763     -58743.705      310.94176      6908.8254      182018.86    
     54200   300.16614     -58427.873     -58740.714      312.84052      6944.8382      182018.86    
     54300   297.50676     -58426.419     -58736.488      310.06885      7007.7066      182018.86    
     54400   300.21824     -58425.535     -58738.43       312.89482      7015.8449      182018.86    
     54500   303.86678     -58426.465     -58743.162      316.69741      6972.6048      182018.86    
     54600   299.30772     -58431.575     -58743.521      311.94585      6929.359       182018.86    
     54700   295.95587     -58434.14      -58742.592      308.45247      6926.6559      182018.86    
     54800   297.89663     -58431.682     -58742.157      310.47518      6946.57        182018.86    
     54900   299.10832     -58423.786     -58735.524      311.73804      7050.3703      182018.86    
     55000   307.94346     -58421.037     -58741.984      320.94623      6957.125       182018.86    
     55100   300.02185     -58426.136     -58738.826      312.69014      7022.8804      182018.86    
     55200   298.28291     -58429.553     -58740.43       310.87777      6958.1958      182018.86    
     55300   299.01447     -58431.003     -58742.643      311.64022      6952.4389      182018.86    
     55400   298.15029     -58430.895     -58741.634      310.73956      6891.6093      182018.86    
     55500   302.62573     -58425.956     -58741.36       315.40396      6934.3919      182018.86    
     55600   305.03766     -58421.382     -58739.3        317.91774      7077.2977      182018.86    
     55700   299.69788     -58423.222     -58735.574      312.35248      7023.8921      182018.86    
     55800   297.14749     -58429.68      -58739.375      309.69441      6956.7039      182018.86    
     55900   299.30334     -58430.233     -58742.174      311.94129      6925.3689      182018.86    
     56000   303.41872     -58428.26      -58744.49       316.23043      6896.4005      182018.86    
     56100   297.35687     -58428.871     -58738.784      309.91263      6951.9086      182018.86    
     56200   302.5965      -58425.233     -58740.607      315.3735       6950.2363      182018.86    
     56300   298.85163     -58422.065     -58733.535      311.4705       7026.6351      182018.86    
     56400   303.67932     -58421.685     -58738.187      316.50204      6942.4021      182018.86    
     56500   299.67292     -58429.353     -58741.68       312.32648      6946.2202      182018.86    
     56600   298.7384      -58431.534     -58742.886      311.35249      6857.6622      182018.86    
     56700   300.62084     -58429.259     -58742.573      313.31441      6938.03        182018.86    
     56800   299.61885     -58426.248     -58738.518      312.27013      6943.0497      182018.86    
     56900   299.6543      -58422.58      -58734.888      312.30707      7032.5373      182018.86    
     57000   307.06827     -58417.157     -58737.191      320.03409      7013.2363      182018.86    
     57100   306.11988     -58419.575     -58738.621      319.04566      7007.2878      182018.86    
     57200   298.68619     -58427.717     -58739.015      311.29808      6947.6813      182018.86    
     57300   301.61641     -58428.324     -58742.676      314.35203      6935.4012      182018.86    
     57400   296.05312     -58430.953     -58739.507      308.55383      6931.5176      182018.86    
     57500   298.47225     -58431.143     -58742.218      311.0751       6886.0057      182018.86    
     57600   300.98649     -58426.31      -58740.005      313.69551      6911.3737      182018.86    
     57700   302.15171     -58421.686     -58736.596      314.90993      7020.4862      182018.86    
     57800   303.86289     -58421.767     -58738.461      316.69337      7017.0431      182018.86    
     57900   300.11736     -58429.138     -58741.928      312.78968      6976.3814      182018.86    
     58000   296.98704     -58432.193     -58741.72       309.52718      6905.1125      182018.86    
     58100   297.80703     -58429.81      -58740.192      310.38179      6936.197       182018.86    
     58200   306.44876     -58425.436     -58744.824      319.38842      6890.1369      182018.86    
     58300   299.93292     -58427.215     -58739.812      312.59746      6947.5959      182018.86    
     58400   299.23942     -58428.306     -58740.18       311.87467      6936.0926      182018.86    
     58500   299.39961     -58428.582     -58740.624      312.04163      6969.9545      182018.86    
     58600   300.6374      -58429.235     -58742.566      313.33168      6875.2214      182018.86    
     58700   302.00004     -58427.485     -58742.237      314.75185      6888.1465      182018.86    
     58800   298.26489     -58427.084     -58737.943      310.85899      6951.6169      182018.86    
     58900   303.57317     -58424.745     -58741.136      316.39141      6915.7699      182018.86    
     59000   299.35528     -58424.383     -58736.378      311.99542      7020.0789      182018.86    
     59100   300.40446     -58424.427     -58737.516      313.0889       6993.4465      182018.86    
     59200   301.59607     -58429.868     -58744.199      314.33083      6883.9774      182018.86    
     59300   296.68869     -58433.574     -58742.79       309.21623      6825.4124      182018.86    
     59400   295.18771     -58431.569     -58739.221      307.65188      6890.8477      182018.86    
     59500   301.53769     -58426.97      -58741.24       314.26998      6940.7785      182018.86    
     59600   299.23226     -58427.416     -58739.284      311.86721      6946.2436      182018.86    
     59700   299.45573     -58426.964     -58739.064      312.10012      6960.8893      182018.86    
     59800   302.47816     -58425.208     -58740.458      315.25017      6966.6144      182018.86    
     59900   301.37288     -58428.099     -58742.197      314.09821      6901.8466      182018.86    
     60000   298.79086     -58433.4       -58744.807      311.40717      6879.0202      182018.86    
     60100   296.09829     -58433.061     -58741.662      308.60091      6898.4549      182018.86    
     60200   302.121       -58426.784     -58741.662      314.87793      6965.3544      182018.86    
     60300   299.28556     -58425.123     -58737.046      311.92276      6973.0723      182018.86    
     60400   298.73601     -58425.232     -58736.582      311.35         6975.341       182018.86    
     60500   304.63854     -58426.697     -58744.199      317.50176      6911.2215      182018.86    
     60600   297.6346      -58430.269     -58740.471      310.20209      6910.9245      182018.86    
     60700   297.71905     -58430.504     -58740.794      310.2901       6922.8107      182018.86    
     60800   304.96403     -58427.683     -58745.524      317.841        6877.8282      182018.86    
     60900   297.52599     -58427.962     -58738.051      310.08889      6997.0226      182018.86    
     61000   297.22063     -58427.43      -58737.201      309.77064      7038.5868      182018.86    
     61100   303.45211     -58425.335     -58741.6        316.26524      6898.2813      182018.86    
     61200   302.64777     -58425.464     -58740.891      315.42694      6927.1056      182018.86    
     61300   300.3395      -58426.453     -58739.474      313.0212       6901.7054      182018.86    
     61400   298.13194     -58429.521     -58740.242      310.72042      7005.6419      182018.86    
     61500   297.45131     -58433.77      -58743.781      310.01105      6821.7069      182018.86    
     61600   300.56662     -58433.141     -58746.399      313.25791      6865.2898      182018.86    
     61700   300.31461     -58425.18      -58738.175      312.99525      7013.8737      182018.86    
     61800   301.23719     -58422.4       -58736.357      313.95679      7046.5398      182018.86    
     61900   302.38217     -58424.346     -58739.496      315.15013      6966.9126      182018.86    
     62000   298.34668     -58430.431     -58741.375      310.94424      6924.6294      182018.86    
     62100   301.58171     -58431.027     -58745.343      314.31586      6889.7454      182018.86    
     62200   295.32864     -58430.567     -58738.365      307.79876      6968.0876      182018.86    
     62300   299.60296     -58426.171     -58738.424      312.25356      7012.996       182018.86    
     62400   301.98666     -58424.171     -58738.909      314.73791      6985.0838      182018.86    
     62500   302.13068     -58425.012     -58739.9        314.88801      6945.1356      182018.86    
     62600   301.898       -58427.095     -58741.741      314.6455       6968.811       182018.86    
     62700   297.95402     -58430.544     -58741.079      310.53499      6962.7523      182018.86    
     62800   298.34051     -58430.469     -58741.407      310.93781      6902.7761      182018.86    
     62900   300.56269     -58426.127     -58739.381      313.25381      6947.0799      182018.86    
     63000   303.68463     -58421.184     -58737.692      316.50758      7025.6031      182018.86    
     63100   301.92193     -58423.193     -58737.863      314.67044      6991.6509      182018.86    
     63200   299.03617     -58431.041     -58742.703      311.66284      6847.2333      182018.86    
     63300   297.62068     -58432.231     -58742.419      310.18758      6921.4384      182018.86    
     63400   298.1121      -58429.921     -58740.621      310.69975      6878.8234      182018.86    
     63500   297.79439     -58426.094     -58736.463      310.36862      6990.0668      182018.86    
     63600   305.8891      -58421.217     -58740.022      318.80513      6970.0463      182018.86    
     63700   303.29345     -58422.949     -58739.049      316.09988      6963.6783      182018.86    
     63800   297.89276     -58432.033     -58742.504      310.47114      6912.4911      182018.86    
     63900   295.17183     -58432.976     -58740.612      307.63533      6886.6699      182018.86    
     64000   300.28794     -58428.141     -58741.108      312.96746      6936.6645      182018.86    
     64100   304.12958     -58424.319     -58741.291      316.97131      6896.6036      182018.86    
     64200   300.89384     -58425.359     -58738.958      313.59895      6995.6271      182018.86    
     64300   298.20429     -58429.295     -58740.091      310.79584      6936.4573      182018.86    
     64400   293.50712     -58436.067     -58741.967      305.90033      6852.3448      182018.86    
     64500   299.18699     -58434.423     -58746.243      311.82003      6825.2999      182018.86    
     64600   301.62535     -58430.527     -58744.888      314.36135      6855.4667      182018.86    
     64700   299.57389     -58427.783     -58740.007      312.22326      6919.6997      182018.86    
     64800   298.61331     -58426.026     -58737.248      311.22213      6966.1871      182018.86    
     64900   299.95796     -58425.654     -58738.278      312.62355      6965.5986      182018.86    
     65000   300.29185     -58431.419     -58744.391      312.97153      6842.667       182018.86    
     65100   298.53082     -58435.051     -58746.187      311.13615      6796.0535      182018.86    
     65200   296.18185     -58430.722     -58739.41       308.68799      6939.3443      182018.86    
     65300   299.54565     -58427.108     -58739.302      312.19383      6970.3291      182018.86    
     65400   301.96594     -58425.419     -58740.136      314.71632      6956.9059      182018.86    
     65500   302.84454     -58425.091     -58740.723      315.63201      6958.1097      182018.86    
     65600   295.11225     -58432.011     -58739.585      307.57323      6882.2725      182018.86    
     65700   300.19759     -58433.904     -58746.778      312.8733       6803.8324      182018.86    
     65800   298.66459     -58431.684     -58742.96       311.27557      6942.3507      182018.86    
     65900   297.97677     -58425.533     -58736.092      310.55871      6975.4862      182018.86    
     66000   302.8167      -58424.313     -58739.916      315.603        6968.8666      182018.86    
     66100   303.1698      -58425.458     -58741.429      315.97101      6948.2461      182018.86    
     66200   299.15494     -58430.063     -58741.85       311.78662      6951.855       182018.86    
     66300   296.53827     -58433.319     -58742.378      309.05946      6860.0918      182018.86    
     66400   300.09038     -58431.891     -58744.653      312.76157      6884.9198      182018.86    
     66500   301.3119      -58423.758     -58737.792      314.03466      7061.081       182018.86    
     66600   302.34858     -58421.568     -58736.683      315.11511      7022.1798      182018.86    
     66700   299.44004     -58425.355     -58737.439      312.08377      7026.3306      182018.86    
     66800   300.92552     -58430.593     -58744.225      313.63197      6860.1019      182018.86    
     66900   296.63167     -58433.309     -58742.465      309.15681      6902.2645      182018.86    
     67000   298.83769     -58428.858     -58740.314      311.45598      6946.1292      182018.86    
     67100   300.71459     -58426.675     -58740.087      313.41213      6956.4205      182018.86    
     67200   299.61713     -58426.247     -58738.515      312.26833      6931.0117      182018.86    
     67300   299.93047     -58426.189     -58738.784      312.5949       7001.3583      182018.86    
     67400   297.60342     -58432.381     -58742.551      310.16959      6912.8144      182018.86    
     67500   295.0733      -58436.662     -58744.194      307.53263      6851.2673      182018.86    
     67600   296.06841     -58432.895     -58741.465      308.56977      6857.3833      182018.86    
     67700   302.09085     -58427.808     -58742.654      314.8465       6870.5035      182018.86    
     67800   300.5395      -58426.301     -58739.53       313.22964      6971.5236      182018.86    
     67900   300.90128     -58425.73      -58739.336      313.6067       6997.5963      182018.86    
     68000   300.15991     -58427.49      -58740.324      312.83402      6915.3181      182018.86    
     68100   294.10446     -58433.67      -58740.192      306.52289      6939.9878      182018.86    
     68200   297.01149     -58434.173     -58743.726      309.55267      6909.1596      182018.86    
     68300   300.75094     -58429.899     -58743.349      313.45001      6886.2225      182018.86    
     68400   302.56126     -58423.856     -58739.192      315.33677      6962.9433      182018.86    
     68500   302.21601     -58423.007     -58737.984      314.97695      6947.7581      182018.86    
     68600   298.24314     -58425.862     -58736.699      310.83632      7013.0623      182018.86    
     68700   300.34035     -58429.122     -58742.144      313.02209      6886.8915      182018.86    
     68800   298.90557     -58431.492     -58743.018      311.52672      6896.1867      182018.86    
     68900   299.40866     -58429.714     -58741.766      312.05106      6889.646       182018.86    
     69000   302.81716     -58420.133     -58735.736      315.60348      7006.6582      182018.86    
     69100   303.35544     -58420.106     -58736.27       316.16449      7055.6221      182018.86    
     69200   299.21089     -58425.83      -58737.675      311.84493      6984.0431      182018.86    
     69300   299.32337     -58430.137     -58742.1        311.96216      6877.74        182018.86    
     69400   299.24833     -58431.57      -58743.454      311.88396      6861.1776      182018.86    
     69500   299.3154      -58428.609     -58740.563      311.95386      6897.7841      182018.86    
     69600   300.0928      -58423.181     -58735.945      312.76409      7034.2753      182018.86    
     69700   304.22196     -58423.029     -58740.096      317.06759      6997.2063      182018.86    
     69800   298.89496     -58426.899     -58738.415      311.51566      6982.8401      182018.86    
     69900   299.69561     -58429.04      -58741.39       312.35012      6982.6394      182018.86    
     70000   298.92723     -58431.981     -58743.531      311.5493       6864.8         182018.86    
     70100   297.92635     -58434.723     -58745.229      310.50615      6858.0735      182018.86    
     70200   299.34942     -58428.926     -58740.915      311.98932      6938.6008      182018.86    
     70300   299.07727     -58424.313     -58736.019      311.70567      7002.2626      182018.86    
     70400   301.36128     -58424.371     -58738.457      314.08613      6996.3764      182018.86    
     70500   300.53956     -58428.119     -58741.349      313.22971      6903.0105      182018.86    
     70600   298.91361     -58432.57      -58744.105      311.5351       6897.3498      182018.86    
     70700   291.85368     -58438.418     -58742.595      304.17707      6880.6079      182018.86    
     70800   299.16419     -58437.105     -58748.901      311.79627      6773.3755      182018.86    
     70900   299.25866     -58428.72      -58740.614      311.89472      6888.9052      182018.86    
     71000   302.94056     -58425.467     -58741.199      315.73209      6977.4814      182018.86    
     71100   296.2064      -58426.6       -58735.314      308.71358      7030.6402      182018.86    
     71200   299.17067     -58429.25      -58741.053      311.80302      6924.3482      182018.86    
     71300   301.51898     -58432.245     -58746.496      314.25049      6817.5925      182018.86    
     71400   295.3353      -58432.704     -58740.51       307.8057       6854.4341      182018.86    
     71500   302.31274     -58424.718     -58739.796      315.07776      6971.325       182018.86    
     71600   301.02509     -58423.131     -58736.866      313.73574      6990.4476      182018.86    
     71700   302.70773     -58423.344     -58738.834      315.48942      6984.677       182018.86    
     71800   299.04157     -58429.568     -58741.237      311.66847      6965.4696      182018.86    
     71900   298.17638     -58433.196     -58743.963      310.76674      6899.9134      182018.86    
     72000   300.02378     -58430.525     -58743.218      312.69215      6912.4713      182018.86    
     72100   299.45033     -58426.911     -58739.005      312.09449      7016.1828      182018.86    
     72200   303.76118     -58423.974     -58740.562      316.58736      6934.0077      182018.86    
     72300   299.59854     -58424.477     -58736.726      312.24896      7065.1688      182018.86    
     72400   297.01417     -58429.694     -58739.249      309.55546      7013.7901      182018.86    
     72500   299.36399     -58432.658     -58744.662      312.0045       6864.5397      182018.86    
     72600   299.21461     -58431.403     -58743.252      311.84881      6868.6157      182018.86    
     72700   295.20957     -58427.622     -58735.297      307.67466      7014.315       182018.86    
     72800   302.9063      -58422.337     -58738.034      315.69638      6966.3603      182018.86    
     72900   302.24637     -58423.312     -58738.321      315.00858      6969.7585      182018.86    
     73000   302.19563     -58426.943     -58741.899      314.9557       6916.6801      182018.86    
     73100   298.16018     -58428.761     -58739.511      310.74986      6946.0787      182018.86    
     73200   297.81562     -58429.414     -58739.805      310.39076      6942.0978      182018.86    
     73300   299.00068     -58428.739     -58740.365      311.62585      6920.903       182018.86    
     73400   306.29074     -58422.953     -58742.177      319.22373      6925.5251      182018.86    
     73500   302.06918     -58420.957     -58735.781      314.82392      7015.6245      182018.86    
     73600   300.73531     -58425.926     -58739.36       313.43372      6957.9687      182018.86    
     73700   297.40611     -58432.133     -58742.097      309.96394      6850.0617      182018.86    
     73800   298.43543     -58432.314     -58743.351      311.03673      6894.7869      182018.86    
     73900   302.89871     -58428.409     -58744.098      315.68847      6881.7725      182018.86    
     74000   297.78314     -58424.838     -58735.195      310.3569       6981.0255      182018.86    
     74100   304.63859     -58422.122     -58739.624      317.50182      6966.5705      182018.86    
     74200   297.08083     -58428.17      -58737.795      309.62493      6968.0846      182018.86    
     74300   297.9974      -58433.84      -58744.421      310.58021      6888.0644      182018.86    
     74400   299.19767     -58433.017     -58744.848      311.83116      6851.7368      182018.86    
     74500   298.34192     -58430.199     -58741.138      310.93927      6872.7486      182018.86    
     74600   302.64331     -58425.507     -58740.929      315.42229      6936.9329      182018.86    
     74700   303.92934     -58423.054     -58739.816      316.76262      7031.8627      182018.86    
     74800   297.86337     -58425.983     -58736.424      310.44052      6980.1613      182018.86    
     74900   295.66163     -58433.528     -58741.674      308.14581      6955.0276      182018.86    
     75000   299.75365     -58433.761     -58746.172      312.41061      6840.6379      182018.86    
     75100   301.02667     -58430.97      -58744.707      313.73738      6825.6784      182018.86    
     75200   297.79488     -58428.22      -58738.59       310.36914      6943.6088      182018.86    
     75300   299.5518      -58426.292     -58738.493      312.20024      6963.8157      182018.86    
     75400   300.66064     -58425.798     -58739.154      313.3559       6932.4393      182018.86    
[...]
    181800   302.44835     -58421.692     -58736.911      315.2191       7053.6658      182018.86    
    181900   302.23109     -58423.831     -58738.823      314.99266      6964.5985      182018.86    
    182000   301.38813     -58427.673     -58741.787      314.11411      6986.4871      182018.86    
    182100   296.32566     -58428.613     -58737.451      308.83787      6988.7243      182018.86    
    182200   301.30465     -58428.114     -58742.141      314.02711      7004.2966      182018.86    
    182300   296.39761     -58430.658     -58739.571      308.91286      6939.7483      182018.86    
    182400   302.77882     -58427.069     -58742.632      315.56352      6947.7936      182018.86    
    182500   301.36136     -58426.334     -58740.42       314.08621      7022.7844      182018.86    
    182600   296.76738     -58427.883     -58737.181      309.29825      7017.5351      182018.86    
    182700   302.1654      -58426.624     -58741.548      314.9242       7034.921       182018.86    
    182800   298.41874     -58427.254     -58738.274      311.01934      7025.3153      182018.86    
    182900   300.76058     -58427.663     -58741.123      313.46006      6942.8026      182018.86    
    183000   300.27654     -58430.094     -58743.05       312.95558      6866.9531      182018.86    
    183100   298.59126     -58431.819     -58743.018      311.19914      6907.0687      182018.86    
    183200   297.81085     -58428.331     -58738.717      310.38577      6950.6235      182018.86    
    183300   302.03061     -58423.156     -58737.94       314.78372      7065.1082      182018.86    
    183400   300.56487     -58424.537     -58737.793      313.25608      7028.8029      182018.86    
    183500   302.00805     -58427.77      -58742.531      314.7602       6997.9909      182018.86    
    183600   294.70648     -58437.178     -58744.328      307.15033      6857.932       182018.86    
    183700   298.73271     -58435.439     -58746.786      311.34657      6947.4738      182018.86    
    183800   295.26975     -58430.366     -58738.103      307.73738      7005.6422      182018.86    
    183900   299.35254     -58426.229     -58738.222      311.99256      7039.3602      182018.86    
    184000   302.6497      -58425.017     -58740.446      315.42894      7005.8444      182018.86    
    184100   302.55386     -58427.082     -58742.411      315.32906      6938.8924      182018.86    
    184200   295.43962     -58433.58      -58741.495      307.91443      6957.7683      182018.86    
    184300   297.39889     -58435.241     -58745.197      309.95643      6890.4145      182018.86    
    184400   298.70269     -58431.043     -58742.358      311.31528      6904.2221      182018.86    
    184500   300.44233     -58424.738     -58737.867      313.12838      7037.6916      182018.86    
    184600   301.872       -58424.32      -58738.938      314.6184       6952.7815      182018.86    
    184700   299.66221     -58427.403     -58739.719      312.31531      7034.0442      182018.86    
    184800   294.7937      -58432.592     -58739.833      307.24124      6948.1079      182018.86    
    184900   297.61639     -58431.873     -58742.057      310.18311      6904.1282      182018.86    
    185000   302.63487     -58427.058     -58742.471      315.41349      6932.5178      182018.86    
    185100   300.97879     -58423.792     -58737.479      313.68748      6998.4945      182018.86    
    185200   306.993       -58415.092     -58735.048      319.95564      7117.8582      182018.86    
    185300   305.48236     -58414.143     -58732.524      318.38121      7177.5085      182018.86    
    185400   300.27551     -58420.035     -58732.99       312.95451      7096.2591      182018.86    
    185500   306.05453     -58425.189     -58744.166      318.97755      6926.5848      182018.86    
    185600   296.80174     -58429.606     -58738.941      309.33406      7021.3648      182018.86    
    185700   302.51427     -58428.713     -58744.001      315.28779      6878.6142      182018.86    
    185800   295.13622     -58430.418     -58738.017      307.59821      6915.9713      182018.86    
    185900   301.28768     -58425.831     -58739.841      314.00941      6964.2807      182018.86    
    186000   305.64025     -58421.076     -58739.622      318.54577      7014.4934      182018.86    
    186100   299.5994      -58422.993     -58735.243      312.24985      7041.1825      182018.86    
    186200   297.75562     -58432.038     -58742.366      310.32822      6964.105       182018.86    
    186300   298.44879     -58433.592     -58744.643      311.05065      6851.2289      182018.86    
    186400   299.60821     -58429.962     -58742.221      312.25903      6919.8328      182018.86    
    186500   300.69809     -58424.499     -58737.894      313.39493      7023.5671      182018.86    
    186600   300.90294     -58424.272     -58737.88       313.60844      6995.3128      182018.86    
    186700   299.81994     -58427.353     -58739.833      312.47971      6974.3491      182018.86    
    186800   298.25993     -58429.096     -58739.95       310.85382      6960.2666      182018.86    
    186900   301.0213      -58429.006     -58742.738      313.73179      6931.5474      182018.86    
    187000   297.78703     -58431.327     -58741.688      310.36096      6886.175       182018.86    
    187100   296.7618      -58431.118     -58740.41       309.29244      6955.883       182018.86    
    187200   300.12523     -58427.473     -58740.271      312.79788      6990.3163      182018.86    
    187300   301.59328     -58424.315     -58738.643      314.32792      6986.0348      182018.86    
    187400   302.20877     -58422.986     -58737.955      314.9694       7034.99        182018.86    
    187500   299.63313     -58426.074     -58738.359      312.285        6996.3451      182018.86    
    187600   296.08095     -58432.534     -58741.117      308.58283      6907.5615      182018.86    
    187700   300.92869     -58432.531     -58746.167      313.63527      6812.5243      182018.86    
    187800   297.87223     -58429.793     -58740.243      310.44975      6946.8575      182018.86    
    187900   302.18353     -58423.324     -58738.267      314.94309      7003.7983      182018.86    
    188000   299.17901     -58424.047     -58735.859      311.81171      7054.5337      182018.86    
    188100   302.30534     -58426.757     -58741.827      315.07005      6904.4307      182018.86    
    188200   297.72819     -58430.543     -58740.843      310.29963      6907.3742      182018.86    
    188300   301.85526     -58429.76      -58744.361      314.60096      6868.2404      182018.86    
    188400   299.60617     -58428.459     -58740.716      312.25691      6883.4413      182018.86    
    188500   299.75496     -58425.651     -58738.063      312.41198      6995.9648      182018.86    
    188600   303.41905     -58417.182     -58733.413      316.23078      7092.7298      182018.86    
    188700   304.80822     -58417.332     -58735.01       317.67861      7078.1688      182018.86    
    188800   302.97372     -58424.516     -58740.282      315.76664      6940.4165      182018.86    
    188900   300.85446     -58428.211     -58741.769      313.5579       6892.2015      182018.86    
    189000   296.65174     -58431.147     -58740.325      309.17773      6879.806       182018.86    
    189100   296.79531     -58431.7       -58741.028      309.32736      6870.1781      182018.86    
    189200   304.70751     -58426.355     -58743.929      317.57364      6918.2583      182018.86    
    189300   298.9558      -58422.485     -58734.064      311.57907      7012.2642      182018.86    
    189400   309.05246     -58419.5       -58741.602      322.10206      6941.9549      182018.86    
    189500   298.85026     -58427.32      -58738.789      311.46907      6937.3374      182018.86    
    189600   299.80647     -58428.092     -58740.557      312.46566      6979.0929      182018.86    
    189700   299.507       -58429.309     -58741.463      312.15355      6944.3484      182018.86    
    189800   297.77395     -58431.994     -58742.341      310.34732      6887.1938      182018.86    
    189900   302.33341     -58430.107     -58745.206      315.0993       6898.9023      182018.86    
    190000   302.38794     -58423.589     -58738.745      315.15614      6948.8658      182018.86    
    190100   297.49758     -58422.071     -58732.13       310.05928      7098.5382      182018.86    
    190200   300.05015     -58424.646     -58737.366      312.71963      6973.0665      182018.86    
    190300   303.59265     -58426.899     -58743.31       316.41172      6878.072       182018.86    
    190400   298.9678      -58428.979     -58740.571      311.59158      6868.6025      182018.86    
    190500   296.49999     -58429.585     -58738.605      309.01956      7017.8198      182018.86    
    190600   301.86142     -58426.932     -58741.539      314.60738      6915.702       182018.86    
    190700   302.79331     -58421.918     -58737.496      315.57862      6949.4414      182018.86    
    190800   300.55686     -58419.467     -58732.715      313.24774      7123.5651      182018.86    
    190900   298.1121      -58424.971     -58735.671      310.69975      6993.7607      182018.86    
    191000   304.42522     -58428.192     -58745.472      317.27944      6876.4041      182018.86    
    191100   295.68529     -58430.517     -58738.688      308.17047      6943.3387      182018.86    
    191200   299.11061     -58427.907     -58739.647      311.74042      6975.3344      182018.86    
    191300   302.00354     -58425.288     -58740.043      314.7555       6964.6057      182018.86    
    191400   300.55097     -58424.23      -58737.472      313.2416       6985.5467      182018.86    
    191500   299.70612     -58423.284     -58735.645      312.36108      7041.1452      182018.86    
    191600   302.01973     -58425.781     -58740.553      314.77238      6967.3919      182018.86    
    191700   300.11371     -58430.559     -58743.345      312.78588      6887.5709      182018.86    
    191800   298.51753     -58431.323     -58742.445      311.1223       6918.2596      182018.86    
    191900   298.32952     -58429.043     -58739.97       310.92635      6885.4803      182018.86    
    192000   302.73787     -58421.35      -58736.871      315.52084      7038.9201      182018.86    
    192100   304.85383     -58420.759     -58738.485      317.72614      7004.0362      182018.86    
    192200   299.83894     -58426.433     -58738.933      312.4995       6952.1587      182018.86    
    192300   301.29173     -58427.698     -58741.712      314.01364      6939.1023      182018.86    
    192400   297.43351     -58429.197     -58739.19       309.99251      6957.1136      182018.86    
    192500   299.09681     -58429.86      -58741.586      311.72604      6878.7825      182018.86    
    192600   298.69755     -58430.991     -58742.301      311.30992      6865.0665      182018.86    
    192700   298.94537     -58428.85      -58740.418      311.5682       6948.834       182018.86    
    192800   302.87697     -58424.505     -58740.171      315.66581      6942.5661      182018.86    
    192900   300.6906      -58425.221     -58738.609      313.38712      7019.0946      182018.86    
    193000   294.66064     -58430.476     -58737.578      307.10256      6927.907       182018.86    
    193100   298.2055      -58434.444     -58745.242      310.79709      6872.3794      182018.86    
    193200   297.65569     -58438.448     -58748.672      310.22407      6822.0598      182018.86    
    193300   295.94336     -58434.14      -58742.58       308.43944      6937.445       182018.86    
    193400   299.43664     -58427.018     -58739.098      312.08022      6946.2968      182018.86    
    193500   300.431       -58424.114     -58737.23       313.11656      7015.3147      182018.86    
    193600   300.879       -58424.412     -58737.995      313.58348      6997.0991      182018.86    
    193700   301.72714     -58428.383     -58742.85       314.46743      6952.5868      182018.86    
    193800   295.55021     -58433.614     -58741.644      308.02968      6900.7159      182018.86    
    193900   299.59854     -58432.038     -58744.287      312.24895      6863.8167      182018.86    
    194000   297.98348     -58428.601     -58739.167      310.5657       6923.3251      182018.86    
    194100   298.53718     -58427.479     -58738.622      311.14277      6965.1009      182018.86    
    194200   301.25754     -58427.006     -58740.984      313.97801      6987.0641      182018.86    
    194300   303.61771     -58426.363     -58742.801      316.43783      6929.5391      182018.86    
    194400   297.49085     -58427.102     -58737.154      310.05227      6975.6157      182018.86    
    194500   301.47142     -58428.301     -58742.502      314.20092      6944.6444      182018.86    
    194600   299.21307     -58432.659     -58744.506      311.84721      6827.0527      182018.86    
    194700   298.1158      -58433.291     -58743.994      310.70361      6865.6588      182018.86    
    194800   302.73591     -58427.19      -58742.709      315.5188       6914.2213      182018.86    
    194900   300.13435     -58422.874     -58735.682      312.80739      7083.6772      182018.86    
    195000   302.40641     -58422.54      -58737.715      315.17539      6997.3916      182018.86    
    195100   299.18712     -58426.402     -58738.223      311.82016      6973.6793      182018.86    
    195200   302.55372     -58427.014     -58742.343      315.32891      6922.6716      182018.86    
    195300   297.55625     -58428.902     -58739.022      310.12043      6986.3758      182018.86    
    195400   299.81306     -58429.822     -58742.294      312.47253      6894.5553      182018.86    
    195500   300.81841     -58433.559     -58747.079      313.52033      6851.7996      182018.86    
    195600   293.91214     -58436.41      -58742.733      306.32245      6905.8375      182018.86    
    195700   299.24433     -58430.607     -58742.487      311.87978      6915.9809      182018.86    
    195800   299.67445     -58426.368     -58738.696      312.32807      6990.6004      182018.86    
    195900   301.99998     -58425.314     -58740.066      314.75179      6975.6743      182018.86    
    196000   298.66342     -58426.521     -58737.796      311.27435      7007.4292      182018.86    
    196100   300.72274     -58428.097     -58741.518      313.42062      6955.8962      182018.86    
    196200   296.09414     -58435.115     -58743.712      308.59659      6828.0242      182018.86    
    196300   296.20626     -58434.761     -58743.475      308.71343      6900.343       182018.86    
    196400   299.12218     -58429.024     -58740.776      311.75247      6963.3513      182018.86    
    196500   302.09471     -58425.22      -58740.071      314.85052      6918.7745      182018.86    
    196600   302.84738     -58426.524     -58742.159      315.63498      6935.4189      182018.86    
    196700   297.33252     -58430.345     -58740.232      309.88725      6867.885       182018.86    
    196800   299.67364     -58429.88      -58742.207      312.32722      6892.962       182018.86    
    196900   301.60609     -58426.207     -58740.548      314.34127      6918.5953      182018.86    
    197000   302.71093     -58420.54      -58736.032      315.49276      7028.2909      182018.86    
    197100   305.26377     -58419.156     -58737.309      318.1534       7055.6508      182018.86    
    197200   297.28537     -58426.396     -58736.234      309.83811      7003.55        182018.86    
    197300   303.35995     -58429.257     -58745.426      316.16919      6885.1904      182018.86    
    197400   299.56781     -58431.762     -58743.979      312.21693      6861.5502      182018.86    
    197500   298.52764     -58428.482     -58739.615      311.13284      6938.056       182018.86    
    197600   299.87794     -58424.364     -58736.904      312.54015      7027.0245      182018.86    
    197700   302.25723     -58425.081     -58740.1        315.0199       7015.3467      182018.86    
    197800   300.78013     -58426.917     -58740.397      313.48044      6962.6107      182018.86    
    197900   298.69304     -58429.247     -58740.552      311.30522      6927.5619      182018.86    
    198000   300.94546     -58430.525     -58744.178      313.65275      6891.3318      182018.86    
    198100   295.27896     -58430.958     -58738.705      307.74698      6924.7031      182018.86    
    198200   300.07236     -58427.263     -58740.006      312.74278      6992.3593      182018.86    
    198300   300.39364     -58424.905     -58737.983      313.07763      7011.7251      182018.86    
    198400   304.26487     -58423.63      -58740.742      317.11232      6995.8574      182018.86    
    198500   298.73741     -58427.839     -58739.191      311.35147      6933.9547      182018.86    
    198600   300.60135     -58432.06      -58745.354      313.2941       6924.2576      182018.86    
    198700   296.51238     -58435.259     -58744.291      309.03249      6822.9519      182018.86    
    198800   300.89844     -58429.568     -58743.172      313.60374      6840.9816      182018.86    
    198900   300.04048     -58423.899     -58736.609      312.70955      7014.5013      182018.86    
    199000   301.2209      -58424.067     -58738.007      313.93982      7008.2579      182018.86    
    199100   301.35651     -58428.196     -58742.277      314.08115      6861.1161      182018.86    
    199200   298.76482     -58432.449     -58743.829      311.38003      6852.858       182018.86    
    199300   298.75464     -58430.723     -58742.092      311.36942      6889.6276      182018.86    
    199400   296.50962     -58426.85      -58735.88       309.0296       6992.8045      182018.86    
    199500   302.93989     -58425.311     -58741.042      315.73139      6972.0506      182018.86    
    199600   300.14533     -58427.497     -58740.316      312.81883      6998.1182      182018.86    
    199700   297.75324     -58429.822     -58740.148      310.32574      6980.4892      182018.86    
    199800   297.5349      -58430.49      -58740.588      310.09817      6945.9618      182018.86    
    199900   303.11761     -58428.042     -58743.959      315.91662      6867.5342      182018.86    
    200000   301.15408     -58423.717     -58737.587      313.87017      7024.5905      182018.86    
Loop time of 26346.4 on 20 procs for 200000 steps with 8064 atoms

Performance: 0.656 ns/day, 36.592 hours/ns, 7.591 timesteps/s, 61.215 katom-step/s
100.0% CPU use with 20 MPI tasks x 1 OpenMP threads

MPI task timing breakdown:
Section |  min time  |  avg time  |  max time  |%varavg| %total
---------------------------------------------------------------
Pair    | 22902      | 24110      | 25952      | 705.6 | 91.51
Neigh   | 232.99     | 252.18     | 282.32     | 101.1 |  0.96
Comm    | 105.91     | 1977       | 3203.4     |2500.1 |  7.50
Output  | 0.4876     | 0.56589    | 0.65368    |   6.2 |  0.00
Modify  | 3.6375     | 4.3623     | 5.2246     |  23.5 |  0.02
Other   |            | 1.899      |            |       |  0.01

Nlocal:          403.2 ave         432 max         383 min
Histogram: 8 0 1 0 2 4 0 1 0 4
Nghost:         1634.2 ave        1685 max        1595 min
Histogram: 5 5 2 0 0 0 0 0 4 4
Neighs:              0 ave           0 max           0 min
Histogram: 20 0 0 0 0 0 0 0 0 0
FullNghs:      23039.4 ave       24773 max       21896 min
Histogram: 8 0 1 0 4 2 0 1 0 4

Total # of neighbors = 460788
Ave neighs/atom = 57.141369
Neighbor list builds = 200000
Dangerous builds not checked
Total wall time: 7:19:06
