
     Program PWSCF v.7.5 starts on  6Oct2025 at 19: 3:58 

     This program is part of the open-source Quantum ESPRESSO suite
     for quantum simulation of materials; please cite
         "P. Giannozzi et al., J. Phys.:Condens. Matter 21 395502 (2009);
         "P. Giannozzi et al., J. Phys.:Condens. Matter 29 465901 (2017);
         "P. Giannozzi et al., J. Chem. Phys. 152 154105 (2020);
          URL http://www.quantum-espresso.org", 
     in publications or presentations arising from this work. More details at
     http://www.quantum-espresso.org/quote

     Serial version
     77459 MiB available memory on the printing compute node when the environment starts

     Reading input from Hf_single-atom-1.in

     Current dimensions of program PWSCF are:
     Max number of different atomic species (ntypx) = 10
     Max number of k-points (npk) =  40000
     Max angular momentum in pseudopotentials (lmaxx) =  4
     Message from routine setup:
     using ibrav=0 with symmetry is DISCOURAGED, use correct ibrav instead


     G-vector sticks info
     --------------------
     sticks:   dense  smooth     PW     G-vecs:    dense   smooth      PW
     Sum       63929   63929  15989             12161517 12161517 1520147

     Using Slab Decomposition



     bravais-lattice index     =            0
     lattice parameter (alat)  =      47.2432  a.u.
     unit-cell volume          =  105442.7265 (a.u.)^3
     number of atoms/cell      =            1
     number of atomic types    =            1
     number of electrons       =        12.00
     number of Kohn-Sham states=           10
     kinetic-energy cutoff     =      90.0000  Ry
     charge density cutoff     =     360.0000  Ry
     scf convergence threshold =      1.0E-06
     mixing beta               =       0.7000
     number of iterations used =            8  plain     mixing
     Exchange-correlation= PBE
                           (   1   4   3   4   0   0   0)

     celldm(1)=  47.243153  celldm(2)=   0.000000  celldm(3)=   0.000000
     celldm(4)=   0.000000  celldm(5)=   0.000000  celldm(6)=   0.000000

     crystal axes: (cart. coord. in units of alat)
               a(1) = (   1.000000   0.000000   0.000000 )  
               a(2) = (   0.000000   1.000000   0.000000 )  
               a(3) = (   0.000000   0.000000   1.000000 )  

     reciprocal axes: (cart. coord. in units 2 pi/alat)
               b(1) = (  1.000000  0.000000  0.000000 )  
               b(2) = (  0.000000  1.000000  0.000000 )  
               b(3) = (  0.000000  0.000000  1.000000 )  


     PseudoPot. # 1 for Hf read from file:
     ./pp/Hf.pbe_oncv_standard_0.5.upf
     MD5 check sum: 54f7ec7f43d5d93247b4f856bff61d17
     Pseudo is Norm-conserving + core correction, Zval = 12.0
     Generated using ONCVPSP code by D. R. Hamann
     Using radial grid of 1656 points,  8 beta functions with: 
                l(1) =   0
                l(2) =   0
                l(3) =   1
                l(4) =   1
                l(5) =   2
                l(6) =   2
                l(7) =   3
                l(8) =   3

     atomic species   valence    mass     pseudopotential
     Hf               12.00   178.49000     Hf( 1.00)

     Starting magnetic structure 
     atomic species   magnetization
     Hf              0.500

     48 Sym. Ops., with inversion, found



   Cartesian axes

     site n.     atom                  positions (alat units)
         1        Hf     tau(   1) = (   0.5000000   0.5000000   0.5000000  )

     number of k points=     1  Marzari-Vanderbilt smearing, width (Ry)=  0.0010
                       cart. coord. in units 2pi/alat
        k(    1) = (   0.0000000   0.0000000   0.0000000), wk =   1.0000000

     Dense  grid: 12161517 G-vectors     FFT dimensions: ( 288, 288, 288)

     Estimated max dynamical RAM per process >       5.37 GB
     Generating pointlists ...
     new r_m :   0.4125 (alat units) 19.4878 (a.u.) for type    1

     Initial potential from superposition of free atoms

     starting charge      11.9981, renormalised to      12.0000

     negative rho (up, down):  1.557E-04 5.191E-05
     Starting wfcs are   10 randomized atomic wfcs

     total cpu time spent up to now is      107.9 secs

     Self-consistent Calculation

     iteration #  1     ecut=    90.00 Ry     beta= 0.70
     Davidson diagonalization with overlap
     ethr =  1.00E-02,  avg # of iterations =  1.0

     negative rho (up, down):  1.009E-06 1.431E-09

     total cpu time spent up to now is      225.0 secs

     total energy              =    -112.30800131 Ry
     estimated scf accuracy    <       0.19524376 Ry

     total magnetization       =     2.00 Bohr mag/cell
     absolute magnetization    =     2.00 Bohr mag/cell

     iteration #  2     ecut=    90.00 Ry     beta= 0.70
     Davidson diagonalization with overlap
     ethr =  1.63E-03,  avg # of iterations =  1.0

     total cpu time spent up to now is      342.2 secs

     total energy              =    -112.32863660 Ry
     estimated scf accuracy    <       0.01865615 Ry

     total magnetization       =     2.00 Bohr mag/cell
     absolute magnetization    =     2.00 Bohr mag/cell

     iteration #  3     ecut=    90.00 Ry     beta= 0.70
     Davidson diagonalization with overlap
     ethr =  1.55E-04,  avg # of iterations =  1.0

     total cpu time spent up to now is      460.3 secs

     total energy              =    -112.32697622 Ry
     estimated scf accuracy    <       0.00824787 Ry

     total magnetization       =     2.00 Bohr mag/cell
     absolute magnetization    =     2.00 Bohr mag/cell

     iteration #  4     ecut=    90.00 Ry     beta= 0.70
     Davidson diagonalization with overlap
     ethr =  6.87E-05,  avg # of iterations =  1.0

     total cpu time spent up to now is      579.2 secs

     total energy              =    -112.32895120 Ry
     estimated scf accuracy    <       0.02011445 Ry

     total magnetization       =     2.00 Bohr mag/cell
     absolute magnetization    =     2.00 Bohr mag/cell

     iteration #  5     ecut=    90.00 Ry     beta= 0.70
     Davidson diagonalization with overlap
     ethr =  6.87E-05,  avg # of iterations =  1.0

     total cpu time spent up to now is      699.2 secs

     total energy              =    -112.33047744 Ry
     estimated scf accuracy    <       0.00553900 Ry

     total magnetization       =     2.00 Bohr mag/cell
     absolute magnetization    =     2.00 Bohr mag/cell

     iteration #  6     ecut=    90.00 Ry     beta= 0.70
     Davidson diagonalization with overlap
     ethr =  4.62E-05,  avg # of iterations =  1.0
     Minimization algorithm failed to find Fermi energy: reverting to bisection
     Possible cause: smearing is larger than the electronic band-gap.

     negative rho (up, down):  9.905E-14 4.045E-08

     total cpu time spent up to now is      813.2 secs

     total energy              =    -112.33052955 Ry
     estimated scf accuracy    <       0.02290863 Ry

     total magnetization       =     2.00 Bohr mag/cell
     absolute magnetization    =     2.01 Bohr mag/cell

     iteration #  7     ecut=    90.00 Ry     beta= 0.70
     Davidson diagonalization with overlap
     ethr =  4.62E-05,  avg # of iterations =  1.0

     total cpu time spent up to now is      928.1 secs

     total energy              =    -112.32813603 Ry
     estimated scf accuracy    <       0.02318969 Ry

     total magnetization       =     2.00 Bohr mag/cell
     absolute magnetization    =     2.00 Bohr mag/cell

     iteration #  8     ecut=    90.00 Ry     beta= 0.70
     Davidson diagonalization with overlap
     ethr =  4.62E-05,  avg # of iterations =  1.0

     total cpu time spent up to now is     1043.9 secs

     total energy              =    -112.32887895 Ry
     estimated scf accuracy    <       0.00023643 Ry

     total magnetization       =     2.00 Bohr mag/cell
     absolute magnetization    =     2.00 Bohr mag/cell

     iteration #  9     ecut=    90.00 Ry     beta= 0.70
     Davidson diagonalization with overlap
     ethr =  1.97E-06,  avg # of iterations =  1.5

     negative rho (up, down):  7.587E-07 9.453E-07

     total cpu time spent up to now is     1168.0 secs

     total energy              =    -112.32870188 Ry
     estimated scf accuracy    <       0.00161298 Ry

     total magnetization       =     2.00 Bohr mag/cell
     absolute magnetization    =     2.00 Bohr mag/cell

     iteration # 10     ecut=    90.00 Ry     beta= 0.70
     Davidson diagonalization with overlap
     ethr =  1.97E-06,  avg # of iterations =  1.0

     negative rho (up, down):  1.139E-07 7.802E-08

     total cpu time spent up to now is     1285.4 secs

     total energy              =    -112.32866458 Ry
     estimated scf accuracy    <       0.00375194 Ry

     total magnetization       =     2.00 Bohr mag/cell
     absolute magnetization    =     2.00 Bohr mag/cell

     iteration # 11     ecut=    90.00 Ry     beta= 0.70
     Davidson diagonalization with overlap
     ethr =  1.97E-06,  avg # of iterations =  1.0

     total cpu time spent up to now is     1402.5 secs

     total energy              =    -112.32895471 Ry
     estimated scf accuracy    <       0.00100241 Ry

     total magnetization       =     2.00 Bohr mag/cell
     absolute magnetization    =     2.00 Bohr mag/cell

     iteration # 12     ecut=    90.00 Ry     beta= 0.70
     Davidson diagonalization with overlap
     ethr =  1.97E-06,  avg # of iterations =  1.0

     negative rho (up, down):  1.081E-08 1.224E-08

     total cpu time spent up to now is     1519.6 secs

     total energy              =    -112.32891358 Ry
     estimated scf accuracy    <       0.00047109 Ry

     total magnetization       =     2.00 Bohr mag/cell
     absolute magnetization    =     2.00 Bohr mag/cell

     iteration # 13     ecut=    90.00 Ry     beta= 0.70
     Davidson diagonalization with overlap
     ethr =  1.97E-06,  avg # of iterations =  1.0

     negative rho (up, down):  1.698E-08 2.183E-08

     total cpu time spent up to now is     1636.7 secs

     total energy              =    -112.32894422 Ry
     estimated scf accuracy    <       0.00005432 Ry

     total magnetization       =     2.00 Bohr mag/cell
     absolute magnetization    =     2.00 Bohr mag/cell

     iteration # 14     ecut=    90.00 Ry     beta= 0.70
     Davidson diagonalization with overlap
     ethr =  4.53E-07,  avg # of iterations =  1.0

     total cpu time spent up to now is     1754.4 secs

     total energy              =    -112.32894141 Ry
     estimated scf accuracy    <       0.00006870 Ry

     total magnetization       =     2.00 Bohr mag/cell
     absolute magnetization    =     2.00 Bohr mag/cell

     iteration # 15     ecut=    90.00 Ry     beta= 0.70
     Davidson diagonalization with overlap
     ethr =  4.53E-07,  avg # of iterations =  1.0

     total cpu time spent up to now is     1871.9 secs

     total energy              =    -112.32894203 Ry
     estimated scf accuracy    <       0.00001118 Ry

     total magnetization       =     2.00 Bohr mag/cell
     absolute magnetization    =     2.00 Bohr mag/cell

     iteration # 16     ecut=    90.00 Ry     beta= 0.70
     Davidson diagonalization with overlap
     ethr =  9.32E-08,  avg # of iterations =  1.0

     total cpu time spent up to now is     1989.0 secs

     total energy              =    -112.32894170 Ry
     estimated scf accuracy    <       0.00000515 Ry

     total magnetization       =     2.00 Bohr mag/cell
     absolute magnetization    =     2.00 Bohr mag/cell

     iteration # 17     ecut=    90.00 Ry     beta= 0.70
     Davidson diagonalization with overlap
     ethr =  4.29E-08,  avg # of iterations =  1.0

     Magnetic moment per site  (integrated on atomic sphere of radius R)
     atom   1 (R=0.413)  charge= 12.0000  magn=  2.0000

     total cpu time spent up to now is     2093.8 secs

     End of self-consistent calculation

 ------ SPIN UP ------------


          k = 0.0000 0.0000 0.0000 (****** PWs)   bands (ev):

   -67.1138 -35.8034 -35.8034 -35.8034  -5.4002  -3.0659  -3.0659  -3.0659
    -3.0659  -3.0659

 ------ SPIN DOWN ----------


          k = 0.0000 0.0000 0.0000 (****** PWs)   bands (ev):

   -66.5074 -34.9432 -34.9432 -34.9432  -4.5546  -1.9960  -1.9960  -1.9960
    -1.9960  -1.9960

     the Fermi energy is    -3.0659 ev

!    total energy              =    -112.32894189 Ry
     estimated scf accuracy    <          1.8E-09 Ry
     smearing contrib. (-TS)   =      -0.00085549 Ry
     internal energy E=F+TS    =    -112.32808640 Ry

     The total energy is F=E-TS. E is the sum of the following terms:
     one-electron contribution =    -142.28987186 Ry
     hartree contribution      =      66.64396834 Ry
     xc contribution           =     -28.03392783 Ry
     ewald contribution        =      -8.64825505 Ry

     total magnetization       =     2.00 Bohr mag/cell
     absolute magnetization    =     2.00 Bohr mag/cell

     convergence has been achieved in  17 iterations

     Writing all to output data dir ./hf_single-atom_1/Hf_atom.save/ :
     XML data file, charge density, pseudopotentials, collected wavefunctions

     init_run     :     96.70s CPU    106.35s WALL (       1 calls)
     electrons    :   1797.76s CPU   1987.64s WALL (       1 calls)

     Called by init_run:
     wfcinit      :     35.50s CPU     37.85s WALL (       1 calls)
     potinit      :     26.43s CPU     31.80s WALL (       1 calls)
     hinit0       :     16.81s CPU     17.89s WALL (       1 calls)

     Called by electrons:
     c_bands      :    985.81s CPU   1022.31s WALL (      17 calls)
     sum_band     :    310.02s CPU    328.92s WALL (      17 calls)
     v_of_rho     :    383.31s CPU    466.91s WALL (      18 calls)
     mix_rho      :    130.79s CPU    184.54s WALL (      17 calls)

     Called by c_bands:
     init_us_2    :     58.01s CPU     79.58s WALL (      70 calls)
     cegterg      :    863.74s CPU    889.89s WALL (      34 calls)

     Called by *egterg:
     cdiaghg      :      0.02s CPU      0.08s WALL (      69 calls)
     h_psi        :    822.99s CPU    841.26s WALL (      71 calls)
     g_psi        :      2.17s CPU      2.17s WALL (      35 calls)

     Called by h_psi:
     h_psi:calbec :     10.32s CPU     10.33s WALL (      71 calls)
     vloc_psi     :    791.97s CPU    803.91s WALL (      71 calls)
                                        0.00s GPU  (      71 calls)
     add_vuspsi   :     17.90s CPU     17.90s WALL (      71 calls)

     General routines
     calbec       :     10.32s CPU     10.33s WALL (      71 calls)
     fft          :    219.92s CPU    220.13s WALL (     340 calls)
     ffts         :     21.89s CPU     21.90s WALL (      34 calls)
     fftw         :    847.93s CPU    848.21s WALL (    1750 calls)


     PWSCF        :  31m35.36s CPU  35m 1.34s WALL


   This run was terminated on:  19:39: 0   6Oct2025            

=------------------------------------------------------------------------------=
   JOB DONE.
=------------------------------------------------------------------------------=
