
     Program PWSCF v.7.5 starts on  6Oct2025 at 20: 0: 1 

     This program is part of the open-source Quantum ESPRESSO suite
     for quantum simulation of materials; please cite
         "P. Giannozzi et al., J. Phys.:Condens. Matter 21 395502 (2009);
         "P. Giannozzi et al., J. Phys.:Condens. Matter 29 465901 (2017);
         "P. Giannozzi et al., J. Chem. Phys. 152 154105 (2020);
          URL http://www.quantum-espresso.org", 
     in publications or presentations arising from this work. More details at
     http://www.quantum-espresso.org/quote

     Serial version
     73788 MiB available memory on the printing compute node when the environment starts

     Reading input from O_single-atom-1.in

     Current dimensions of program PWSCF are:
     Max number of different atomic species (ntypx) = 10
     Max number of k-points (npk) =  40000
     Max angular momentum in pseudopotentials (lmaxx) =  4
     Message from routine setup:
     using ibrav=0 with symmetry is DISCOURAGED, use correct ibrav instead


     G-vector sticks info
     --------------------
     sticks:   dense  smooth     PW     G-vecs:    dense   smooth      PW
     Sum       63929   63929  15989             12161517 12161517 1520147

     Using Slab Decomposition



     bravais-lattice index     =            0
     lattice parameter (alat)  =      47.2432  a.u.
     unit-cell volume          =  105442.7265 (a.u.)^3
     number of atoms/cell      =            1
     number of atomic types    =            1
     number of electrons       =         6.00
     number of Kohn-Sham states=            7
     kinetic-energy cutoff     =      90.0000  Ry
     charge density cutoff     =     360.0000  Ry
     scf convergence threshold =      1.0E-06
     mixing beta               =       0.7000
     number of iterations used =            8  plain     mixing
     Exchange-correlation= PBE
                           (   1   4   3   4   0   0   0)

     celldm(1)=  47.243153  celldm(2)=   0.000000  celldm(3)=   0.000000
     celldm(4)=   0.000000  celldm(5)=   0.000000  celldm(6)=   0.000000

     crystal axes: (cart. coord. in units of alat)
               a(1) = (   1.000000   0.000000   0.000000 )  
               a(2) = (   0.000000   1.000000   0.000000 )  
               a(3) = (   0.000000   0.000000   1.000000 )  

     reciprocal axes: (cart. coord. in units 2 pi/alat)
               b(1) = (  1.000000  0.000000  0.000000 )  
               b(2) = (  0.000000  1.000000  0.000000 )  
               b(3) = (  0.000000  0.000000  1.000000 )  


     PseudoPot. # 1 for O  read from file:
     ./pp/O.pbe_oncv_standard_0.5.upf
     MD5 check sum: 3e3f909f7470e8921608ab6b1f57bbae
     Pseudo is Norm-conserving + core correction, Zval =  6.0
     Generated using ONCVPSP code by D. R. Hamann
     Using radial grid of  936 points,  5 beta functions with: 
                l(1) =   0
                l(2) =   0
                l(3) =   1
                l(4) =   1
                l(5) =   2

     atomic species   valence    mass     pseudopotential
     O                 6.00    15.99900     O ( 1.00)

     Starting magnetic structure 
     atomic species   magnetization
     O               0.330

     48 Sym. Ops., with inversion, found



   Cartesian axes

     site n.     atom                  positions (alat units)
         1        O      tau(   1) = (   0.5000000   0.5000000   0.5000000  )

     number of k points=     1  Marzari-Vanderbilt smearing, width (Ry)=  0.0010
                       cart. coord. in units 2pi/alat
        k(    1) = (   0.0000000   0.0000000   0.0000000), wk =   1.0000000

     Dense  grid: 12161517 G-vectors     FFT dimensions: ( 288, 288, 288)

     Estimated max dynamical RAM per process >       4.46 GB
     Generating pointlists ...
     new r_m :   0.4125 (alat units) 19.4878 (a.u.) for type    1

     Initial potential from superposition of free atoms

     starting charge       6.0000, renormalised to       6.0000

     negative rho (up, down):  1.871E-04 9.423E-05
     Starting wfcs are    4 randomized atomic wfcs +    3 random wfcs

     total cpu time spent up to now is       93.1 secs

     Self-consistent Calculation

     iteration #  1     ecut=    90.00 Ry     beta= 0.70
     Davidson diagonalization with overlap
     ethr =  1.00E-02,  avg # of iterations =  4.5

     Threshold (ethr) on eigenvalues was too large:
     Diagonalizing with lowered threshold

     Davidson diagonalization with overlap
     c_bands:  2 eigenvalues not converged
     c_bands:  3 eigenvalues not converged
     ethr =  2.01E-05,  avg # of iterations = 20.0

     negative rho (up, down):  5.501E-05 2.689E-05

     total cpu time spent up to now is      420.7 secs

     total energy              =     -32.66513943 Ry
     estimated scf accuracy    <       0.00136761 Ry

     total magnetization       =     2.00 Bohr mag/cell
     absolute magnetization    =     2.00 Bohr mag/cell

     iteration #  2     ecut=    90.00 Ry     beta= 0.70
     Davidson diagonalization with overlap
     ethr =  2.28E-05,  avg # of iterations =  6.0

     negative rho (up, down):  1.969E-05 9.426E-06

     total cpu time spent up to now is      537.8 secs

     total energy              =     -32.66553645 Ry
     estimated scf accuracy    <       0.00017864 Ry

     total magnetization       =     2.00 Bohr mag/cell
     absolute magnetization    =     2.00 Bohr mag/cell

     iteration #  3     ecut=    90.00 Ry     beta= 0.70
     Davidson diagonalization with overlap
     ethr =  2.98E-06,  avg # of iterations =  6.5

     negative rho (up, down):  4.333E-06 2.036E-06

     total cpu time spent up to now is      659.6 secs

     total energy              =     -32.66560335 Ry
     estimated scf accuracy    <       0.00002991 Ry

     total magnetization       =     2.00 Bohr mag/cell
     absolute magnetization    =     2.00 Bohr mag/cell

     iteration #  4     ecut=    90.00 Ry     beta= 0.70
     Davidson diagonalization with overlap
     ethr =  4.99E-07,  avg # of iterations =  2.0

     Magnetic moment per site  (integrated on atomic sphere of radius R)
     atom   1 (R=0.413)  charge=  6.0000  magn=  2.0000

     total cpu time spent up to now is      749.7 secs

     End of self-consistent calculation

 ------ SPIN UP ------------


          k = 0.0000 0.0000 0.0000 (****** PWs)   bands (ev):

   -25.2657 -10.2886 -10.2886 -10.2886  -0.2725  -0.0155   0.1646

 ------ SPIN DOWN ----------


          k = 0.0000 0.0000 0.0000 (****** PWs)   bands (ev):

   -21.8705  -7.0662  -7.0662  -7.0662  -0.1832   0.0056   0.1732

     the Fermi energy is    -7.0676 ev

!    total energy              =     -32.66561248 Ry
     estimated scf accuracy    <       0.00000054 Ry
     smearing contrib. (-TS)   =      -0.00050311 Ry
     internal energy E=F+TS    =     -32.66510936 Ry

     The total energy is F=E-TS. E is the sum of the following terms:
     one-electron contribution =     -47.64713725 Ry
     hartree contribution      =      25.08998045 Ry
     xc contribution           =      -7.94588881 Ry
     ewald contribution        =      -2.16206376 Ry

     total magnetization       =     2.00 Bohr mag/cell
     absolute magnetization    =     2.00 Bohr mag/cell

     convergence has been achieved in   4 iterations

     Writing all to output data dir ./o_single-atom_1/O_atom.save/ :
     XML data file, charge density, pseudopotentials, collected wavefunctions

     init_run     :     84.26s CPU     93.01s WALL (       1 calls)
     electrons    :    603.79s CPU    658.26s WALL (       1 calls)

     Called by init_run:
     wfcinit      :     24.66s CPU     26.17s WALL (       1 calls)
     potinit      :     24.88s CPU     30.14s WALL (       1 calls)
     hinit0       :     16.65s CPU     17.74s WALL (       1 calls)

     Called by electrons:
     c_bands      :    430.96s CPU    450.18s WALL (       5 calls)
     sum_band     :     66.33s CPU     70.40s WALL (       5 calls)
     v_of_rho     :    113.53s CPU    136.67s WALL (       5 calls)
     mix_rho      :     12.35s CPU     23.34s WALL (       5 calls)

     Called by c_bands:
     init_us_2    :      9.35s CPU     13.02s WALL (      22 calls)
     cegterg      :    422.11s CPU    439.64s WALL (      10 calls)

     Called by *egterg:
     cdiaghg      :      0.02s CPU      0.02s WALL (      86 calls)
     h_psi        :    404.71s CPU    421.14s WALL (      90 calls)
     g_psi        :      1.68s CPU      1.68s WALL (      78 calls)

     Called by h_psi:
     h_psi:calbec :      4.54s CPU      4.54s WALL (      90 calls)
     vloc_psi     :    392.52s CPU    407.52s WALL (      90 calls)
                                        0.00s GPU  (      90 calls)
     add_vuspsi   :      6.20s CPU      6.20s WALL (      90 calls)

     General routines
     calbec       :      4.53s CPU      4.54s WALL (      90 calls)
     fft          :     60.21s CPU     60.38s WALL (      95 calls)
     ffts         :      5.24s CPU      5.24s WALL (      10 calls)
     fftw         :    374.84s CPU    375.08s WALL (     752 calls)


     PWSCF        :  11m28.88s CPU  12m33.99s WALL


   This run was terminated on:  20:12:35   6Oct2025            

=------------------------------------------------------------------------------=
   JOB DONE.
=------------------------------------------------------------------------------=
