
     Program PWSCF v.7.5 starts on  6Oct2025 at 17:15:13 

     This program is part of the open-source Quantum ESPRESSO suite
     for quantum simulation of materials; please cite
         "P. Giannozzi et al., J. Phys.:Condens. Matter 21 395502 (2009);
         "P. Giannozzi et al., J. Phys.:Condens. Matter 29 465901 (2017);
         "P. Giannozzi et al., J. Chem. Phys. 152 154105 (2020);
          URL http://www.quantum-espresso.org", 
     in publications or presentations arising from this work. More details at
     http://www.quantum-espresso.org/quote

     Serial version
     8163 MiB available memory on the printing compute node when the environment starts

     Reading input from test.in

     Current dimensions of program PWSCF are:
     Max number of different atomic species (ntypx) = 10
     Max number of k-points (npk) =  40000
     Max angular momentum in pseudopotentials (lmaxx) =  4
     Message from routine setup:
     using ibrav=0 with symmetry is DISCOURAGED, use correct ibrav instead


     G-vector sticks info
     --------------------
     sticks:   dense  smooth     PW     G-vecs:    dense   smooth      PW
     Sum       63929   63929  15989             12161517 12161517 1520147

     Using Slab Decomposition



     bravais-lattice index     =            0
     lattice parameter (alat)  =      47.2432  a.u.
     unit-cell volume          =  105442.7265 (a.u.)^3
     number of atoms/cell      =            1
     number of atomic types    =            1
     number of electrons       =        12.00
     number of Kohn-Sham states=           10
     kinetic-energy cutoff     =      90.0000  Ry
     charge density cutoff     =     360.0000  Ry
     scf convergence threshold =      1.0E-06
     mixing beta               =       0.7000
     number of iterations used =            8  plain     mixing
     Exchange-correlation= PBE
                           (   1   4   3   4   0   0   0)

     celldm(1)=  47.243153  celldm(2)=   0.000000  celldm(3)=   0.000000
     celldm(4)=   0.000000  celldm(5)=   0.000000  celldm(6)=   0.000000

     crystal axes: (cart. coord. in units of alat)
               a(1) = (   1.000000   0.000000   0.000000 )  
               a(2) = (   0.000000   1.000000   0.000000 )  
               a(3) = (   0.000000   0.000000   1.000000 )  

     reciprocal axes: (cart. coord. in units 2 pi/alat)
               b(1) = (  1.000000  0.000000  0.000000 )  
               b(2) = (  0.000000  1.000000  0.000000 )  
               b(3) = (  0.000000  0.000000  1.000000 )  


     PseudoPot. # 1 for Hf read from file:
     ./pp/Hf.pbe_oncv_standard_0.5.upf
     MD5 check sum: 54f7ec7f43d5d93247b4f856bff61d17
     Pseudo is Norm-conserving + core correction, Zval = 12.0
     Generated using ONCVPSP code by D. R. Hamann
     Using radial grid of 1656 points,  8 beta functions with: 
                l(1) =   0
                l(2) =   0
                l(3) =   1
                l(4) =   1
                l(5) =   2
                l(6) =   2
                l(7) =   3
                l(8) =   3

     atomic species   valence    mass     pseudopotential
     Hf               12.00   178.49000     Hf( 1.00)

     48 Sym. Ops., with inversion, found



   Cartesian axes

     site n.     atom                  positions (alat units)
         1        Hf     tau(   1) = (   0.5000000   0.5000000   0.5000000  )

     number of k points=     1  Marzari-Vanderbilt smearing, width (Ry)=  0.0010
                       cart. coord. in units 2pi/alat
        k(    1) = (   0.0000000   0.0000000   0.0000000), wk =   2.0000000

     Dense  grid: 12161517 G-vectors     FFT dimensions: ( 288, 288, 288)

     Estimated max dynamical RAM per process >       4.40 GB

     Initial potential from superposition of free atoms

     starting charge      11.9981, renormalised to      12.0000

     negative rho (up, down):  2.077E-04 0.000E+00
     Starting wfcs are   10 randomized atomic wfcs

     total cpu time spent up to now is       96.9 secs

     Self-consistent Calculation

     iteration #  1     ecut=    90.00 Ry     beta= 0.70
     Davidson diagonalization with overlap
     ethr =  1.00E-02,  avg # of iterations =  1.0

     Threshold (ethr) on eigenvalues was too large:
     Diagonalizing with lowered threshold

     Davidson diagonalization with overlap
     ethr =  6.02E-08,  avg # of iterations =  9.0

     negative rho (up, down):  4.193E-05 0.000E+00

     total cpu time spent up to now is      305.2 secs

     total energy              =    -112.28992709 Ry
     estimated scf accuracy    <       0.00000426 Ry

     iteration #  2     ecut=    90.00 Ry     beta= 0.70
     Davidson diagonalization with overlap
     ethr =  3.55E-08,  avg # of iterations =  3.0

     total cpu time spent up to now is      392.6 secs

     End of self-consistent calculation

          k = 0.0000 0.0000 0.0000 (****** PWs)   bands (ev):

   -66.9900 -35.5473 -35.5473 -35.5473  -5.0765  -2.6583  -2.6583  -2.6583
    -2.6583  -2.6583

     the Fermi energy is    -2.6630 ev

!    total energy              =    -112.28993070 Ry
     estimated scf accuracy    <       0.00000053 Ry
     smearing contrib. (-TS)   =      -0.00138659 Ry
     internal energy E=F+TS    =    -112.28854411 Ry

     The total energy is F=E-TS. E is the sum of the following terms:
     one-electron contribution =    -142.19016072 Ry
     hartree contribution      =      66.52999113 Ry
     xc contribution           =     -27.98011948 Ry
     ewald contribution        =      -8.64825505 Ry

     convergence has been achieved in   2 iterations

     Writing all to output data dir ./tmp/Hf_atom.save/ :
     XML data file, charge density, pseudopotentials, collected wavefunctions

     init_run     :     79.99s CPU     96.42s WALL (       1 calls)
     electrons    :    270.66s CPU    297.85s WALL (       1 calls)

     Called by init_run:
     wfcinit      :     24.19s CPU     25.94s WALL (       1 calls)
     potinit      :     14.29s CPU     20.48s WALL (       1 calls)
     hinit0       :     16.91s CPU     19.22s WALL (       1 calls)

     Called by electrons:
     c_bands      :    207.43s CPU    217.66s WALL (       3 calls)
     sum_band     :     35.08s CPU     38.91s WALL (       3 calls)
     v_of_rho     :     36.81s CPU     48.92s WALL (       3 calls)
     mix_rho      :      2.28s CPU      6.92s WALL (       3 calls)

     Called by c_bands:
     init_us_2    :      6.82s CPU     10.23s WALL (       7 calls)
     cegterg      :    194.59s CPU    203.57s WALL (       3 calls)

     Called by *egterg:
     cdiaghg      :      0.00s CPU      0.06s WALL (      15 calls)
     h_psi        :    204.27s CPU    212.92s WALL (      17 calls)
     g_psi        :      0.71s CPU      0.72s WALL (      13 calls)

     Called by h_psi:
     h_psi:calbec :      3.43s CPU      3.51s WALL (      17 calls)
     vloc_psi     :    195.21s CPU    203.00s WALL (      17 calls)
                                        0.00s GPU  (      17 calls)
     add_vuspsi   :      4.93s CPU      4.98s WALL (      17 calls)

     General routines
     calbec       :      3.43s CPU      3.51s WALL (      17 calls)
     fft          :     35.61s CPU     36.41s WALL (      31 calls)
     ffts         :      2.20s CPU      2.22s WALL (       3 calls)
     fftw         :    190.22s CPU    193.68s WALL (     298 calls)


     PWSCF        :   5m51.55s CPU   6m41.98s WALL


   This run was terminated on:  17:21:55   6Oct2025            

=------------------------------------------------------------------------------=
   JOB DONE.
=------------------------------------------------------------------------------=
