LAMMPS DATA file

108 atoms 
2 atom types 

0.0000000000000000e+00  10.956 xlo xhi
0.0000000000000000e+00  10.956 ylo yhi
0.0000000000000000e+00  10.629 zlo zhi

Masses 

1 178.49 # element 72 Hf
2 15.999 # element 8  O

Atoms

1    1      1.94984261       1.61238948       2.24631150
2    1       3.23109948       7.29175780      10.61018189
3    1       5.08674919       5.37435909       2.24306869
4    1       8.92657137       5.12065954       7.82478452
5    1       0.25927210       7.01337559       5.33054182
6    1      10.73659876      10.88009278      10.61532133
7    1       7.18817824       3.54803990       5.14190502
8    1       7.26800728       7.10696569       5.45053387
9    1       1.64942646       5.28336830       2.64337724
10   1      10.72839491       3.26465781       5.31220764
11   1      10.82357417       3.63519751       0.19366229
12   1       1.93542484       5.15198768       7.79336753
13   1       8.94616278       9.04734089       8.00784906
14   1       1.70980716       1.68940446       7.93035472
15   1       7.38937072       7.28701101      10.47585790
16   1       8.73077713       9.03934487       2.95133838
17   1       5.07899464       8.98612533       2.41938403
18   1       5.44260588       9.30715246       7.98392233
19   1      10.95075733      10.75165307       5.30046738
20   1       3.52767522       3.47355959       5.18167683
21   1      10.95380387       7.29407401      10.32589174
22   1       1.64562790       9.09872343       7.93184842
23   1       7.24064138       3.78252712       0.07484708
24   1       8.94995563       5.40803707       2.68726566
25   1       3.82368037       6.99041072       4.81316461
26   1       3.77373318       0.04667398       0.02207463
27   1       7.19996263       0.07284546       5.24267815
28   1       5.66962581       1.62424387       2.62567369
29   1       5.34946793       1.72504302       7.58139827
30   1       1.42560228       8.98663873       2.57960101
31   1       3.32998877      10.93412624       5.25066552
32   1       3.73577480       3.61060272      10.21659310
33   1       7.18171826      10.95356382      10.54728574
34   1       9.03633350       1.79145248       2.52222152
35   1       5.44280516       5.47586939       7.88384009
36   1       9.04976545       1.70016764       7.77138463
37   2      10.50577490       9.58454808       1.64764232 
38   2       5.06986479       7.10863911       3.36524397 
39   2      10.82499834       5.57216660       4.05771556 
40   2      10.52012661       1.73166110       4.22947914 
41   2       1.76298134      10.86955826       3.88480480 
42   2       1.70241855       0.08467903       1.16872349 
43   2       2.12260306       3.98106090       0.67408735 
44   2       0.44950638       1.93558644       9.72575162 
45   2       1.74410405      10.82852135       8.97391781 
46   2       1.75748757      10.47563988       6.27226548 
47   2      10.95422940       1.81000723       6.74982454 
48   2       1.88432365       3.38710448       3.32379034 
49   2       1.47196500       7.53325839       0.95970570 
50   2       1.80630531       7.19285909       8.94302132 
51   2      10.72862915       2.28671342       1.62396335 
52   2       3.74783911       5.10825625       6.45535330 
53   2       3.51042062       1.65287771       6.73409606 
54   2       5.39097123       3.50573955       8.69785791 
55   2      10.83287099       5.28440452       1.48013225 
56   2       2.36221527       7.51958289       5.95042871 
57   2      10.85298358       8.61502348       6.89466156 
58   2       3.87622206       1.66307489       4.10441067 
59   2       5.86738676      10.67162705       3.37631205 
60   2       5.51165771      10.65401451       0.75221614 
61   2       3.90028889       1.67405664       1.64056351 
62   2       3.61481300       1.62116436       9.54065279 
63   2       5.78887047       0.01075770       8.84019787 
64   2      10.89686335       9.15639110       9.64415683 
65   2       3.48441885       5.08344858       3.79303773 
66   2       5.59253457       3.36978228       3.37122416 
67   2       5.32538161       4.15509017       0.54255263 
68   2       8.98403307       7.09924390       6.24061667 
69   2       3.51417315       5.48870500       9.19119444 
70   2       5.30051072       3.74541958       6.02356176 
71   2      10.94288085       5.45874856       9.19188979 
72   2       9.15988103       0.08371151       6.43824720 
73   2       1.73471399       3.59668367       6.29462549 
74   2       6.62018688       1.93791284       0.95690612 
75   2       9.01927709       0.75708951       0.85525983 
76   2       7.32587654       8.71710404       4.38396708 
77   2       7.50080201       1.90780926       3.90868253 
78   2       3.51143635       9.56879697       7.25676544 
79   2       8.94512820       7.26050822       9.05730380 
80   2       7.34845784       1.72181834       9.31338808 
81   2       7.71425633       9.09409869       9.64502978 
82   2       5.84485640       7.27829080       8.69649751 
83   2       9.05719132       7.20969188       3.64272836 
84   2       5.14913484       7.41120877       6.17159918 
85   2       7.30065922       8.94266113       1.43841279 
86   2       9.08910768       7.30077251       0.66778903 
87   2       7.63622540       5.24741805       9.46630719 
88   2       4.03454086       8.97851321       9.63972761 
89   2       9.32387285      10.89998230       9.03115231 
90   2       7.22969119       5.18159254       6.83251911 
91   2       5.48109419       0.41635627       5.90708280 
92   2       0.41584101       5.61380532       6.49243969 
93   2      10.86136361       9.20708024       4.03671627 
94   2       1.58101511       7.32364305       3.45135269 
95   2       3.95749071       9.06381444       4.21126199 
96   2       3.23604491       5.99707611       1.54886925 
97   2       5.25454504       7.17417111       0.84393527 
98   2       9.14598652      10.86765049       3.59992538 
99   2       9.19623950       3.38349536       9.05092438 
100  2       7.19618401       5.90438473       1.61301771 
101  2       8.75333487       3.68485087       1.31867817 
102  2       9.04947588       3.56599997       3.55882942 
103  2       7.13676217       5.26133360       4.54140436 
104  2       3.24188117       9.30513119       1.63297409 
105  2       9.11555437       3.48678896       6.24570084 
106  2       7.29343878       1.70935928       6.76067579 
107  2       2.12779292       3.52788689       8.78646179 
108  2       6.92596567       9.28391862       6.82491491 
