108
 Atoms. Timestep: 0
1    1.9498426099999999    1.6123894800000000    2.2463115000000000
1    3.2310994800000001    7.2917578000000001   10.6101818899999998
1    5.0867491899999999    5.3743590899999996    2.2430686899999999
1    8.9265713699999996    5.1206595400000001    7.8247845199999997
1    0.2592721000000000    7.0133755899999999    5.3305418199999997
1   10.7365987599999997   10.8800927800000000   10.6153213300000004
1    7.1881782400000001    3.5480399000000000    5.1419050200000003
1    7.2680072800000000    7.1069656900000000    5.4505338700000001
1    1.6494264599999999    5.2833683000000002    2.6433772400000000
1   10.7283949100000005    3.2646578100000001    5.3122076399999996
1   10.8235741700000005    3.6351975099999998    0.1936622900000000
1    1.9354248400000000    5.1519876800000004    7.7933675300000003
1    8.9461627799999999    9.0473408899999992    8.0078490599999999
1    1.7098071600000000    1.6894044600000000    7.9303547200000004
1    7.3893707199999996    7.2870110099999996   10.4758578999999994
1    8.7307771299999999    9.0393448700000008    2.9513383800000002
1    5.0789946400000003    8.9861253300000001    2.4193840299999998
1    5.4426058800000003    9.3071524599999993    7.9839223300000004
1   10.9507573300000001   10.7516530699999997    5.3004673799999997
1    3.5276752199999999    3.4735595899999998    5.1816768299999998
1   10.9538038699999998    7.2940740100000001   10.3258917399999994
1    1.6456279000000000    9.0987234299999997    7.9318484199999997
1    7.2406413799999996    3.7825271200000001    0.0748470800000000
1    8.9499556299999998    5.4080370699999998    2.6872656600000000
1    3.8236803699999999    6.9904107199999999    4.8131646100000003
1    3.7737331799999998    0.0466739800000000    0.0220746300000000
1    7.1999626299999999    0.0728454600000000    5.2426781499999997
1    5.6696258100000003    1.6242438699999999    2.6256736900000002
1    5.3494679300000003    1.7250430200000000    7.5813982700000002
1    1.4256022800000001    8.9866387299999992    2.5796010100000002
1    3.3299887699999999   10.9341262399999994    5.2506655200000001
1    3.7357748000000002    3.6106027200000002   10.2165931000000008
1    7.1817182600000002   10.9535638199999994   10.5472857399999995
1    9.0363334999999996    1.7914524800000000    2.5222215200000000
1    5.4428051599999998    5.4758693899999997    7.8838400899999996
1    9.0497654500000007    1.7001676400000001    7.7713846300000000
2   10.5057749000000005    9.5845480799999994    1.6476423200000001
2    5.0698647899999996    7.1086391100000004    3.3652439699999999
2   10.8249983400000005    5.5721666000000001    4.0577155600000001
2   10.5201266100000002    1.7316611000000000    4.2294791399999996
2    1.7629813400000001   10.8695582599999998    3.8848047999999999
2    1.7024185500000000    0.0846790300000000    1.1687234900000001
2    2.1226030599999999    3.9810609000000001    0.6740873500000000
2    0.4495063800000000    1.9355864400000000    9.7257516200000005
2    1.7441040500000000   10.8285213500000008    8.9739178099999997
2    1.7574875700000001   10.4756398799999992    6.2722654799999997
2   10.9542293999999991    1.8100072300000001    6.7498245399999997
2    1.8843236500000000    3.3871044800000001    3.3237903400000000
2    1.4719650000000000    7.5332583900000003    0.9597057000000000
2    1.8063053099999999    7.1928590899999998    8.9430213199999997
2   10.7286291499999997    2.2867134199999999    1.6239633499999999
2    3.7478391100000001    5.1082562500000002    6.4553532999999996
2    3.5104206200000001    1.6528777100000001    6.7340960599999997
2    5.3909712299999999    3.5057395499999999    8.6978579099999997
2   10.8328709900000000    5.2844045199999998    1.4801322500000000
2    2.3622152700000001    7.5195828899999997    5.9504287099999997
2   10.8529835800000001    8.6150234799999996    6.8946615600000003
2    3.8762220599999999    1.6630748900000001    4.1044106700000000
2    5.8673867599999996   10.6716270499999997    3.3763120500000001
2    5.5116577099999997   10.6540145099999997    0.7522161400000000
2    3.9002888900000001    1.6740566400000001    1.6405635100000000
2    3.6148129999999998    1.6211643600000001    9.5406527899999993
2    5.7888704700000000    0.0107577000000000    8.8401978700000008
2   10.8968633500000003    9.1563911000000004    9.6441568300000000
2    3.4844188500000000    5.0834485799999998    3.7930377300000000
2    5.5925345699999998    3.3697822799999999    3.3712241600000001
2    5.3253816100000000    4.1550901700000002    0.5425526300000000
2    8.9840330700000006    7.0992439000000003    6.2406166699999996
2    3.5141731500000000    5.4887050000000004    9.1911944400000003
2    5.3005107200000001    3.7454195800000001    6.0235617599999998
2   10.9428808499999999    5.4587485600000001    9.1918897899999994
2    9.1598810299999993    0.0837115100000000    6.4382472000000002
2    1.7347139899999999    3.5966836700000000    6.2946254899999996
2    6.6201868800000003    1.9379128400000001    0.9569061200000000
2    9.0192770899999992    0.7570895100000000    0.8552598300000001
2    7.3258765400000003    8.7171040400000006    4.3839670799999997
2    7.5008020100000001    1.9078092600000001    3.9086825300000001
2    3.5114363499999999    9.5687969699999993    7.2567654399999997
2    8.9451281999999992    7.2605082200000002    9.0573037999999997
2    7.3484578400000000    1.7218183400000000    9.3133880799999993
2    7.7142563300000004    9.0940986899999992    9.6450297799999998
2    5.8448564000000003    7.2782907999999997    8.6964975100000004
2    9.0571913199999994    7.2096918800000003    3.6427283600000000
2    5.1491348400000003    7.4112087700000000    6.1715991800000003
2    7.3006592200000000    8.9426611299999994    1.4384127900000001
2    9.0891076799999997    7.3007725099999998    0.6677890300000000
2    7.6362253999999998    5.2474180500000003    9.4663071900000002
2    4.0345408599999999    8.9785132099999991    9.6397276099999996
2    9.3238728500000008   10.8999822999999996    9.0311523099999995
2    7.2296911899999996    5.1815925399999996    6.8325191099999998
2    5.4810941900000003    0.4163562700000000    5.9070828000000004
2    0.4158410100000000    5.6138053200000000    6.4924396900000003
2   10.8613636099999997    9.2070802399999998    4.0367162700000003
2    1.5810151100000001    7.3236430500000003    3.4513526899999998
2    3.9574907100000001    9.0638144399999998    4.2112619899999997
2    3.2360449099999999    5.9970761100000001    1.5488692500000001
2    5.2545450400000000    7.1741711099999996    0.8439352700000000
2    9.1459865199999992   10.8676504900000008    3.5999253800000002
2    9.1962395000000008    3.3834953600000000    9.0509243799999997
2    7.1961840099999996    5.9043847300000003    1.6130177100000000
2    8.7533348699999998    3.6848508700000000    1.3186781700000001
2    9.0494758799999993    3.5659999700000000    3.5588294199999999
2    7.1367621699999999    5.2613336000000004    4.5414043599999996
2    3.2418811700000001    9.3051311900000009    1.6329740900000000
2    9.1155543699999999    3.4867889600000002    6.2457008399999996
2    7.2934387799999998    1.7093592799999999    6.7606757899999996
2    2.1277929200000001    3.5278868900000000    8.7864617900000006
2    6.9259656700000001    9.2839186199999997    6.8249149100000004
108
 Atoms. Timestep: 50
1    1.8662552022518555    1.6547035929706366    2.3863998818307288
1    3.4927033162722987    7.2441320688109201   10.5169327001011403
1    5.0404463305061542    5.2497763978487724    2.3078879615374412
1    9.0883779511364136    5.3609952753300236    7.9446174652635788
1    0.0832079794634200    7.0580579294255132    5.4393573890111764
1   10.7190290667592496   10.9130028938330295    0.0505847350743390
1    7.2656684297716527    3.3864701198858547    5.0246837959491133
1    7.3438893755958263    7.1167400230319169    5.5038050050191583
1    1.6577432182459686    5.2641733054303490    2.7474212416769537
1   10.5044774484988004    3.4904572242003176    5.0659481011378533
1   10.8976969872158929    3.4544044157211604    0.1327266240909542
1    1.7917788110120538    5.2758997262833525    7.5413022781438741
1    9.0489610813093098    9.0519877905773125    8.2339137472925987
1    1.9259005570796728    1.7879319100099367    7.9760226602074482
1    7.1843330949877888    7.2472691114081869   10.5320243944275926
1    8.7101460234394974    8.8638537146241667    2.9456549503459080
1    5.2986298666745251    9.0005533067597661    2.5511709731657297
1    5.4662618857523002    9.1315706555482699    7.7657228857995158
1    0.0947801206843933   10.7195628004185117    5.0704425128982988
1    3.5911622819347588    3.5869638469243768    5.3055112234840038
1   10.6906355824060650    7.0267232811834148   10.2210292919220951
1    1.7626314158007039    9.0998258066851196    7.9300086575819382
1    7.3366671096507314    3.6364241429056259    0.0112736141820086
1    8.9804412042967972    5.4833988986730704    2.2564344292134231
1    3.7878467872904897    7.2640962529704094    4.7991719524781606
1    3.6957426017997732    0.0331878662908272   10.5764013476647172
1    7.2822479883685061   10.8095697361607730    5.1629548689460307
1    5.3945568314519123    1.5332653359876471    2.7486809234263032
1    5.4331265399410862    1.8828235535815181    7.8557470052279239
1    1.4698241768789715    9.1327111477508751    2.4194426027714981
1    3.5365048589976094   10.8023649919801930    5.1753312307976138
1    3.6359460149565868    3.7739759073192563   10.0485845773295388
1    7.2250165783915898   10.9188310920165588    0.1112700116267397
1    9.0591777862382230    1.8212262181486749    2.5168179345991346
1    5.3648510407270242    5.5631091677800404    7.8663661141605017
1    9.0967599844445886    1.7573163230020570    7.8754434400917050
2   10.4364598915569182    9.6401042222978770    1.8931121835277698
2    5.1671871565537399    7.2281631851937913    3.4307880168923082
2    0.2306976940971702    4.9896830321486441    4.1932665385636181
2   10.6249357655635617    1.5406739132756793    4.3988414336350212
2    1.7524541452035809   10.8218264104451194    3.6280076233415026
2    1.7095054196179151   10.8485866658660779    0.7861461225248183
2    1.8203308855297993    3.4546918142386707    0.9429391784927312
2    0.3127398957674828    1.7441577892971996    9.8240920119915351
2    1.8057177375999598   10.8178288941770688    9.0311266733753293
2    1.8139950584087305    0.0878856502440189    6.1680625687252126
2    0.0217444314515031    2.3079620281860982    7.3272832645904922
2    2.0205395337816565    3.3608628470806794    3.7146058463323128
2    1.3599611850051510    7.8278645145745696    0.6930050739454219
2    1.6708238017554295    7.0364558554704635    8.8855020273344625
2   10.7435091220283336    1.6851950443743784    1.6738639899207775
2    3.8907746587521888    5.3129677002912823    6.7317858933915078
2    3.6515774141970976    1.7418468525428694    6.7517614327480491
2    5.1673566775123438    3.7224056600222308    8.5691854731281847
2    0.1357364123533643    5.2998267611560665    1.5479359121491949
2    1.9601102732532054    6.9828249732426499    6.2646404492949683
2   10.8348077140998154    9.0686329087957542    7.0440222121300975
2    3.7295146632584886    1.5432008924402147    4.0229045897903735
2    5.6053461077115898   10.6976941548754230    3.7864429975917284
2    5.5366950826384516    0.0939943744985159    1.1862733867614126
2    3.6257570647257653    1.8750484398895466    1.3412880577552635
2    3.6130793017388685    1.8693763167504069    9.2806801914436328
2    5.4613110875597144    0.1582430822736534    9.3770315275065688
2   10.3743164336520515    9.0553557440343386    9.7585764726988504
2    3.4815302502989458    5.3727463921862180    4.3157865364540058
2    5.3475531585399230    3.5294251098076441    3.5028358808966824
2    5.1988926788268444    3.9659362814752863    0.7541858734321094
2    9.2138200994721497    6.8607192817723295    6.3414560419847872
2    3.7926834047603415    5.6863558590603933    9.3228374059930008
2    5.3191836933376733    3.1870641205074501    5.9452485374372817
2   10.8227880810723285    5.2160798599778264    9.5558365734791160
2    9.3775809926478590    0.1626116660381275    6.0262474517898532
2    1.7593267116367985    3.6544054486262230    6.2592660417516592
2    7.2270480366839083    2.0260387302688971    1.6574350742381301
2    8.9914655459194037    0.5029426109627305    1.0542711982257831
2    7.1557123239364069    8.7725219140755044    4.3591117042022312
2    7.0469320157971120    1.8093430342355192    3.9046852175227520
2    3.4359638908131158    8.8681853835321540    7.0569989692378705
2    8.9738952019453233    7.2001914358350598    9.0153105481791123
2    7.0909268701004482    2.3791361645648217    9.0591603690973805
2    7.0479842769622234    9.2851360212336207    9.4262681905984174
2    5.8237029565629612    7.4385028825972155    8.8038371847281631
2    8.8604395391121447    7.0234888852605346    3.5443862617388078
2    5.4696587300055226    7.4186539568421725    6.2466797285886422
2    7.2666326744956740    9.3545026681766625    1.5411593416391105
2    8.8244786470783030    7.1842467112739383    0.9542922444816626
2    7.2091429377352423    5.2244330635123850    9.5275579415205076
2    3.7467341619687198    9.0499918443248770    9.7431907764143553
2    9.0573446053770041    0.0473137603780310    9.0684095469407211
2    7.0705252085312482    5.7148654914608690    6.9268906703206268
2    5.3624732192517532   10.5395885030248699    6.4480013887161958
2   10.6402072874149578    4.8838760480951464    6.8711526410548949
2   10.6293554301944209    8.7364217360346128    4.5694741229101803
2    2.0563841921896970    7.3365402782506797    3.5684068920545733
2    3.5536606764849097    9.1288127591465784    4.2351805849813182
2    3.1252901388947412    5.5813922083849210    1.2897024383909699
2    5.4968226112347045    7.5949004677666077    0.7946991750920041
2    8.7016914426520398   10.7740934384325424    3.3067326325913151
2    9.4217620134101523    3.4303812456891971    8.9042662312819179
2    7.2500793323237467    5.2383468833978055    1.2963501231668597
2    9.1585981791081590    3.4450255652571999    1.2686765354692617
2    8.7342349917057405    3.9818904617383715    3.8355885415801034
2    6.9869886654687159    5.7116465100537201    4.2304243533844730
2    3.3627421528151564    9.3604261766408499    1.8865087887186833
2    8.5671464922008926    3.5974649602979643    6.4391554334758707
2    7.4547878572324313    1.5328650896083740    6.6363900304037919
2    1.8329899952346134    3.9431447188524120    9.0618498996998351
2    7.5893328875892214    9.3569564972801746    6.8051473256533255
108
 Atoms. Timestep: 100
1    1.8963563181718004    1.7949509348401307    2.5264792198510775
1    3.5793602824644593    7.3956460209790071   10.5342972242853286
1    5.1929351112932549    5.1665360980551851    2.4747704737084351
1    9.1265322005968752    5.3402205614424654    8.0716376441208215
1   10.6826180126130765    7.2146935146517874    5.3886132015719177
1   10.7814854561573608   10.9231469467999389    0.1360398579278980
1    7.0945992104836426    3.4739353764669887    5.0278079534118403
1    7.4430830854042407    6.9739190233081834    5.3767080645389793
1    1.7812488945977443    5.2592172750385329    2.7945283595357044
1   10.5718933940198703    3.6864125444732112    5.1880312696630453
1    0.1290448549489484    3.3631300547526468   10.5164282057858554
1    1.6938947359250300    5.5269271928429244    7.4706450720916822
1    9.1977333112681379    9.2840354990896632    8.3083534910069634
1    1.8870420021637020    1.7998079719027265    7.9260689564309468
1    6.8909480460631141    7.1843654217609840   10.4636664416911422
1    8.9820938602553504    8.7807666757592191    2.7468470321172638
1    5.5116442873929090    9.1441177082816285    2.5919414708752209
1    5.4462807940383646    8.9592185150719583    7.6343443007074763
1    0.0164107785939918   10.7625981830704376    4.9971589155865574
1    3.6165109899157093    3.5447941705372839    5.2456566389172492
1   10.7160220320739281    6.9921970763269918   10.4195339182418483
1    1.8775467283841174    9.0203465567695087    7.9487248129993171
1    7.2951976778977778    3.4217406140257904   10.5457572227845766
1    9.0238154364746048    5.5009508668542315    2.0793563622977129
1    3.5753166560205916    7.4074170639264310    5.1100123564658970
1    3.5623324278450914   10.8889957111067943   10.4563378002164740
1    7.4507155970563215   10.5971215743396971    5.2681846753706356
1    5.0444768169315051    1.5406320861537102    2.7307596317110265
1    5.5663176763927051    1.8686051367782950    8.0220692973282777
1    1.6252665493651157    9.1141253158434239    2.1641734192168292
1    3.7872201863570489   10.8514737354874793    5.3015041078705032
1    3.4463287311667292    3.8644269055383371   10.1937973136663071
1    7.1070974517353918   10.8869139999829869    0.1503845209352348
1    8.9525631942946493    1.6713043111093477    2.6357012042099366
1    5.3945400254803966    5.7076696716288966    7.8181284122252679
1    9.0676538540964646    1.8599417147585906    7.8733386069344027
2   10.5840364876926731    9.4185179272569606    1.5299786930422148
2    5.1364337730266918    7.2265322994799828    3.6701756189392065
2    0.3118777399096042    5.0851324221902452    4.1864341604498820
2   10.6791614498023648    1.5500050430345000    3.9961361128947512
2    1.3572834843029071    0.0736209372798865    3.3556591930461019
2    1.9665482793444711   10.8048663681013792    0.8737781730767504
2    1.8236611287272637    3.5061706321915906    0.9885748116784923
2    0.0735056749894570    1.6683445893269875    9.5183547545937195
2    1.9219223423772072   10.9134537555893356    8.9155160079197842
2    1.5409788897927594   -0.0040676662256027    6.3216171746024514
2   10.7182332794974773    1.9192019592955027    6.6431706323376085
2    1.6194594519423553    3.3321753222976809    3.8826775443165658
2    1.5938090812643715    7.6464134777357531    0.5568483467792983
2    1.1420425303105122    7.0968081301806194    8.6166348302460705
2   10.6927154403924707    1.8917620486159903    1.4698238323198751
2    3.6355247175896253    5.5412463129913592    6.5968466877040308
2    3.9259071918411497    1.7103668738436630    6.8356619724764851
2    4.7926849692289277    3.7390136162251189    8.6494018952599454
2    0.1244076062870117    5.6111648157813390    1.1932430948553248
2    1.9054614569552897    7.1981430997945228    6.1486327555503610
2   10.7712579906157302    8.9419334238009647    7.0221977883155384
2    3.3843404608878513    1.7318218702021293    4.3432924219963081
2    5.4527608754352945   10.8155046981394030    3.7553640316414416
2    5.4581173447120417   10.7745801520368207    1.1494225923152441
2    3.5902384632578648    1.5737231357548613    1.5931752886315007
2    3.3330869064743345    1.8129307959891638    9.8099278695204255
2    5.2504785895361614   10.6298142507326201    8.7590544070531688
2   10.7382585904272485    9.1902360559968628    9.5745109918720939
2    3.5712796451843807    5.1926103277925533    3.9692837327859616
2    5.2483454226818962    3.2839850165158087    3.5980948149483627
2    5.2814686517353495    3.7935594229644538    0.4286540650212520
2    9.1012151703470217    7.1518933544985890    6.5335262407197510
2    3.6742434422579193    5.7483010557928900    9.1906171068178679
2    5.6434400265224367    3.4993670601931837    6.5783381964948484
2   10.6255491908326700    4.9707539675481174    9.5250544840451852
2    9.0261138659022730   10.7388163245138344    6.3732748350712720
2    1.6566912669982794    3.1100821881677847    6.1261400499428031
2    7.1458365492552609    1.7321590051395443    1.6523993219963353
2    8.9681156113943334    0.3454350662180432    0.9862922488334634
2    7.1085894625314996    8.7480297938610860    4.2462644896221988
2    7.2984348924624802    1.7439048043222376    4.1930298729636668
2    3.4948801796114473    9.1507153419036893    6.5414179187239592
2    9.3132458493310093    7.0433907577104913    8.7918371044360626
2    6.9659215916399209    1.5041580599073059    9.9228547046538687
2    7.7598946564906051    9.1635598017135091    9.9026878879817843
2    5.5040687646867124    7.7509851392247358    9.1174471986442818
2    9.0224047048822449    6.8239970797862535    3.8355180105689968
2    5.5168188595894811    7.0916811480222854    6.1740380774542558
2    7.2621585218691234    9.0751813635682073    1.6550411846876094
2    9.1821944460810467    7.5298524752118094    1.1106729959931434
2    7.0181811995812655    5.4264624563194523    9.6365633807742324
2    3.6029773283072513    8.9183234157487625    9.2046421376232423
2    9.1667456287215128    0.1111368202186721    8.7254454376501087
2    7.0952968599931934    5.6057783496454858    7.0221671120662181
2    5.4256895251077957   10.5074197845471744    6.3344006909908357
2   10.7869281517098283    5.3203089783767901    6.7823427325418537
2   10.6915007300321179    8.7546730149066310    4.2187225306653984
2    1.7222221705447016    7.2712363869261623    3.1102160308649305
2    3.4907186514602087    9.3329233780329819    3.9617587381071711
2    3.4841262644118998    5.5173432075652009    1.2364622771143086
2    5.3740072550681957    7.0245744703196111    0.7542444838982005
2    8.9218299636766751   10.5945155724228020    3.7160680912387227
2    8.5024549982950006    3.4757482841629677    8.6814626842308691
2    7.1597643105557669    5.4972125888876864    1.9132935584919688
2    9.1271480678490100    3.6493227136834991    0.6495791658867613
2    9.3001058471920093    3.8430752977282738    3.4366476105389698
2    6.7576743892305284    5.4674602640689791    4.4984137589026414
2    3.7660818768564144    8.9695328387910163    0.9566646958179265
2    8.6171279823240070    3.5364567073626079    6.3326904689298038
2    7.3266333473424377    1.4397218517501162    7.2540395183900621
2    1.7562375283720160    3.7123082400767449    8.6201349984083144
2    7.4533984793092669    8.5927035280350648    7.2289133713145990
108
 Atoms. Timestep: 150
1    1.6644818600223230    1.7660303860663824    2.6363897502006299
1    3.6111157503564959    7.3984270056680037   10.6224885711053254
1    5.3244472056162069    5.3051936614773503    2.5984673626549144
1    8.9702213452953998    5.2970735984936601    8.0073461011728639
1   10.5548068030272439    7.4606219503502409    5.2368923013551409
1   10.7299603406928910    0.0048595275757851    0.1043085761151017
1    7.0101966099079327    3.5668563896246499    5.0862121479770028
1    7.3264683224170071    6.8727730622208592    5.2138738880757485
1    1.8559091436029613    5.4508141080357770    2.7048397656911094
1   10.8071381629550292    3.6231153891684333    5.2578121585597941
1    0.2795518068730103    3.4073097315125400   10.3984782330728489
1    1.7922818705249388    5.6072611420194152    7.5784592703652942
1    9.3048868991007261    9.2539478085239679    8.2145788089026528
1    1.7725688636068420    1.7394406085155421    7.7135993653368393
1    6.9798819803262999    7.1889623627708943   10.5147271534063140
1    9.3541456559567155    8.7504796721401625    2.5560270962936822
1    5.4075063993833723    9.0989406179012242    2.7257974080728835
1    5.3693617124961550    9.0258567318619072    7.5416861175228451
1   10.8643851022140545   10.8522860864604578    5.1020510439591114
1    3.5748260819097979    3.4757417258893146    5.2154176840978890
1   10.9443908177782436    7.1671334110635589   10.5394450069894230
1    1.7020492021850830    9.0173912831081697    7.8238036210497599
1    7.0606468692926496    3.4496052683441132   10.5998780639576093
1    9.1604366859279764    5.3136396755677406    2.2087675187163049
1    3.4305608978729496    7.3713619604192671    5.1996293961108213
1    3.4812437811057797   10.7772928678250501   10.2290696452594041
1    7.6161623171961041   10.5897074405955962    5.3711232464005620
1    5.1157122757196385    1.5515593368270209    2.5917630892856756
1    5.4637644414691087    1.7785161323333263    8.0659357046452840
1    1.9369928840059929    9.0173776821798590    2.1189176360228275
1    3.8098001653268612   10.8805126898063982    5.4326628253754485
1    3.4405860540825293    3.9930704037077707   10.4341958301665567
1    7.0978249796505892   10.7530071715126656    0.1586445733333584
1    8.8713305409442889    1.4817342223310219    2.8242929441517073
1    5.3185728142170792    5.5272857896371752    7.8179531501227038
1    9.0686402155202401    1.8646277621216401    7.6896403674232952
2   10.7983326970036462    8.9196477645130532    1.2140680152182683
2    4.6539412024020139    7.3496087544148496    3.6527078729990468
2    0.0329637683458001    5.8720023585608221    4.1902537340800023
2   10.5101208332913103    1.9993646886335832    3.9955697574170439
2    1.0541651018197178    0.1274423774386031    3.2551127911872797
2    1.7411647432916020   10.5410672588935643    0.5439980088284410
2    1.8848777522902000    3.1914955615917062    0.8169596837268800
2    0.0519303154820911    2.0147314071646045    8.9308465167717195
2    2.1789504207254828   10.8566684857742679    8.2856674860449946
2    1.5754617647754541   10.9485036571965431    5.7897125844475079
2   10.8811749552601924    1.7377237964914292    6.4262005968859990
2    1.6533042959604307    3.8211057083960247    3.6718852823175236
2    1.6367436600262708    7.7298246025850563    0.7150942424136746
2    1.2609468154504970    7.2745523431461834    8.7802704591188636
2   10.9295566576175300    1.6152408247474868    1.3251804726928673
2    3.6006674416026025    5.3692808909007299    6.5891162776981913
2    3.6865783876339280    1.3526741929683086    6.8418987779813145
2    5.3684924094421698    3.8041140194233738    8.9425835842207206
2    0.0659141238622862    5.4124200303008720    1.4009805894230332
2    1.6519475109013315    7.0982161353181583    5.8841181897787385
2    0.0164032789060274    9.0120605243371443    6.8646399247629608
2    3.3708294458100405    1.5738708271600999    4.1637915829149446
2    5.7906201671726585   10.7797786278436121    3.6422159479866103
2    5.3390425524375384   10.7627798434981923    0.9510087794278445
2    3.3940655508058941    1.2811061417597664    1.5812075820018974
2    3.5374615045018452    1.9633565064745189    9.2174291392022170
2    5.1557036678257742   10.8514886059778313    8.9923185652335267
2    0.0159129288768390    9.4703874478275996    9.4425827206091295
2    3.5129656541068308    5.2657478747721402    4.0182916597216085
2    5.2082025349315497    3.2802597963180049    3.5929704426786864
2    5.1617339657977359    3.5701822877001814    1.1979977855087129
2    9.0439585676630507    7.0667692220535381    6.5660699257104547
2    3.0811245247291676    5.7333808690820609    9.4099313160282172
2    5.3149731122859540    3.3920115934365009    6.4224068679162452
2   10.5329197306220994    5.1646876237294022    9.5274925933023145
2    9.3809338886824722   10.5378316494909061    6.2487678812048708
2    1.9715855962424400    3.5563208457589455    6.5258183254050168
2    7.0975249184128035    1.9842102150351533    1.5974977986750785
2    8.8827069350320205    0.1371662622920529    1.1978042736006487
2    7.2519052971695537    8.7592031456913642    4.7336158772470469
2    8.0798831181055011    1.7399348250668067    4.7943673572433188
2    3.3000576188573891    9.0090152233487242    6.5997447110538614
2    8.9064692105824950    7.4298491522670558    8.9994085794681595
2    6.7906212093784104    1.5408216302671340    9.9342668187507730
2    7.4196302392052234    9.0808729640589352    9.8877434516960712
2    5.3583704155435870    7.2959175283268829    8.9824719181477306
2    8.9046880467079532    7.1371976576692555    3.8157746906338610
2    5.2951231694576943    7.2626223689338518    6.4289087395640516
2    7.2690556375430386    8.8425985708418970    1.7758722089231140
2    9.0897740106967841    7.0013626301945209    0.9064732297229416
2    7.2138417834397002    5.4654427557371443    9.5120400339981277
2    3.6209696541552723    8.8883524393602649    9.2910649966705066
2    9.0443591912042134    0.1785596294809103    9.3320512672168654
2    6.9174134119921664    5.6483709462184377    6.9338190955292873
2    5.4517834665404390   10.4176824500377005    6.2824309652777242
2    0.0716530282180727    5.2941688225406169    6.8241588392874011
2   10.7179547880851143    8.9832915358486130    4.0890935488257538
2    2.2534539067044537    7.3920365735804037    3.2545421181360887
2    3.5582465708721638    9.5607690393483296    3.9515872622102002
2    3.4625307562964718    5.4349188982795953    1.3220631203827369
2    5.3075588034808021    7.3586448579481551    0.8483454171697508
2    8.9603264205258899   10.5982470480600171    3.5233658766873668
2    8.5027717931668452    3.2569253867051531    8.7515596973673340
2    7.1226201303252257    5.5966647903542919    1.5200535029082571
2    8.9888819030329099    3.7282589955137144    0.7896952023708900
2    8.6557895874688544    3.7372871733133897    3.8155724587035880
2    6.6018550092055932    5.3968968495040626    4.3701394260224848
2    3.7620145325512704    8.9990618361576811    1.1610268202525114
2    9.0192407485071620    3.7280693408237555    6.4114913225936805
2    7.2164197170193631    1.4088983855935036    6.8712854990196535
2    1.8379342339013267    3.7963921329648200    9.2073986829294867
2    7.4487636192228361    9.2513528867461936    7.3787096149780176
108
 Atoms. Timestep: 200
1    1.4335435349446579    1.7695725838504917    2.6234076876642884
1    3.7913876375014168    7.2894018128904570   10.5683210249534927
1    5.3518554573657111    5.4888696644456045    2.6547236291387266
1    8.8496628761107416    5.3192875809645361    7.9511319881751703
1   10.6559671470922304    7.3319063922801808    5.2026420173614136
1   10.5414757796351157    0.0084745123566809   10.5771979461418244
1    7.1469818987495737    3.4965945652334796    5.1675208157385724