ITEM: TIMESTEP
0
ITEM: NUMBER OF ATOMS
108
ITEM: BOX BOUNDS pp pp pp
0.0000000000000000e+00 1.0956000000000000e+01
0.0000000000000000e+00 1.0956000000000000e+01
0.0000000000000000e+00 1.0629000000000000e+01
ITEM: ATOMS id type x y z fx fy fz
   1 1    1.9498426099999999    1.6123894800000000    2.2463115000000000    0.2934028330634868    2.2391463791156099    3.5805991258125935
   2 1    3.2310994800000001    7.2917578000000001   10.6101818899999998    2.5019366319967573    0.3079131021151275   -1.4811393670115502
   3 1    5.0867491899999999    5.3743590899999996    2.2430686899999999    0.9859633865454459    1.2623129739003773   -0.0724878733305623
   4 1    8.9265713699999996    5.1206595400000001    7.8247845199999997    2.2869528861424504    1.8107239315350534    2.9778492209883822
   5 1    0.2592721000000000    7.0133755899999999    5.3305418199999997   -0.5435944436922033    4.8617220212396486   -1.7159494443602910
   6 1   10.7365987599999997   10.8800927800000000   10.6153213300000004    0.2323767752277698    1.5272686719534261    0.6949390035198624
   7 1    7.1881782400000001    3.5480399000000000    5.1419050200000003   -0.8002883589431903   -2.2978909082366985    0.3721054619785160
   8 1    7.2680072800000000    7.1069656900000000    5.4505338700000001   -1.7465470603408810   -0.1412051582686101   -0.5735341457886880
   9 1    1.6494264599999999    5.2833683000000002    2.6433772400000000   -0.7644597248200520    0.1151103598900958   -0.6694519998323458
  10 1   10.7283949100000005    3.2646578100000001    5.3122076399999996    3.6158548108900259    2.5689349857529087   -2.8970957738873926
  11 1   10.8235741700000005    3.6351975099999998    0.1936622900000000    0.2493087632621707    0.5913220087418749   -2.1509310940531683
  12 1    1.9354248400000000    5.1519876800000004    7.7933675300000003    0.2084039970496627    2.4132132851437462   -0.6796567959325568
  13 1    8.9461627799999999    9.0473408899999992    8.0078490599999999    0.6308095163135119   -0.4422140828977066    0.1254871061463397
  14 1    1.7098071600000000    1.6894044600000000    7.9303547200000004    0.2057390464348821    0.5501147798542650    2.2154334083840972
  15 1    7.3893707199999996    7.2870110099999996   10.4758578999999994   -2.1964358991471284   -0.2635663953284553    1.0763947706868597
  16 1    8.7307771299999999    9.0393448700000008    2.9513383800000002    1.1622089915319753   -0.9353078635179946   -2.6980559547623963
  17 1    5.0789946400000003    8.9861253300000001    2.4193840299999998    1.6845572644872022   -0.6251057238061610    0.4314129966994438
  18 1    5.4426058800000003    9.3071524599999993    7.9839223300000004   -4.8551985873041268   -4.7797821799603568    0.7632089562334319
  19 1   10.9507573300000001   10.7516530699999997    5.3004673799999997   -1.3048269320165409    0.4280376260964956   -2.4263199501966310
  20 1    3.5276752199999999    3.4735595899999998    5.1816768299999998   -0.4953319868518810   -0.1227878092127736   -1.1914731182312446
  21 1   10.9538038699999998    7.2940740100000001   10.3258917399999994   -3.6315649365653582   -2.5260967870890587   -1.0213597147501012
  22 1    1.6456279000000000    9.0987234299999997    7.9318484199999997    1.6968017017138246   -0.8878953569841368   -0.7728381879483535
  23 1    7.2406413799999996    3.7825271200000001    0.0748470800000000    0.6082368209803559   -3.2263734923813701   -1.6310825397136863
  24 1    8.9499556299999998    5.4080370699999998    2.6872656600000000    0.9740246877572094    0.8743991031877281   -0.6672580195043860
  25 1    3.8236803699999999    6.9904107199999999    4.8131646100000003   -1.8839160394465857    0.4671371266448079    2.6896005702213377
  26 1    3.7737331799999998    0.0466739800000000    0.0220746300000000   -2.8426280532355688   -2.3860813311001414   -0.3619598311149292
  27 1    7.1999626299999999    0.0728454600000000    5.2426781499999997    2.0653976799054741   -1.9521394327359678   -1.4975960030880593
  28 1    5.6696258100000003    1.6242438699999999    2.6256736900000002   -1.4488936961060535   -1.4187129702326440    0.9229359280262404
  29 1    5.3494679300000003    1.7250430200000000    7.5813982700000002    1.9247026684960349    0.6653214912234051    1.7686794395313752
  30 1    1.4256022800000001    8.9866387299999992    2.5796010100000002   -1.9242853201342414    3.2112945016969996   -0.7286992158014673
  31 1    3.3299887699999999   10.9341262399999994    5.2506655200000001    3.4446211020268640   -1.7841769061158705   -1.2630096999913005
  32 1    3.7357748000000002    3.6106027200000002   10.2165931000000008   -2.3518327897612252   -0.7578038151714184   -2.0273826266224995
  33 1    7.1817182600000002   10.9535638199999994   10.5472857399999995    3.8867704643021805    1.7517538872733731   -2.1699459480627112
  34 1    9.0363334999999996    1.7914524800000000    2.5222215200000000    0.8913402091993508    0.0736805180991194    1.9464139846892672
  35 1    5.4428051599999998    5.4758693899999997    7.8838400899999996   -1.8376593620436557    0.1736556028679499   -1.1545576107188529
  36 1    9.0497654500000007    1.7001676400000001    7.7713846300000000   -1.1695218212397327   -0.4312894529309659    3.3400069291595580
  37 2   10.5057749000000005    9.5845480799999994    1.6476423200000001    0.9790245808548013   -0.3578097610566784   -1.0102325589811447
  38 2    5.0698647899999996    7.1086391100000004    3.3652439699999999    2.9789706311202471   -0.1687817119211782   -2.1796435604287021
  39 2   10.8249983400000005    5.5721666000000001    4.0577155600000001    0.5392535949178390   -2.9863297132349995   -0.9225416720446172
  40 2   10.5201266100000002    1.7316611000000000    4.2294791399999996    1.2355015225317296   -1.9299164544693723   -0.0124905560077886
  41 2    1.7629813400000001   10.8695582599999998    3.8848047999999999    0.1421885260265550    1.4194413203592799   -1.6749977028721967
  42 2    1.7024185500000000    0.0846790300000000    1.1687234900000001   -0.6300993152741989   -0.7736261920866251   -2.7253003829439040
  43 2    2.1226030599999999    3.9810609000000001    0.6740873500000000   -2.1014663002403333   -1.4049449688806932    1.2625977437310829
  44 2    0.4495063800000000    1.9355864400000000    9.7257516200000005   -0.4822776999503079   -0.8804194544455562   -0.3936539296438120
  45 2    1.7441040500000000   10.8285213500000008    8.9739178099999997   -0.2786953574439921    0.2930170765926097   -0.1637826348680103
  46 2    1.7574875700000001   10.4756398799999992    6.2722654799999997   -4.0303484638211824    1.4584355543664596    1.1461698836436693
  47 2   10.9542293999999991    1.8100072300000001    6.7498245399999997    0.8311030697950729   -1.0133038150823837    1.5376911654526071
  48 2    1.8843236500000000    3.3871044800000001    3.3237903400000000   -1.1804504935176459   -0.4205567085053339    1.0207183562287103
  49 2    1.4719650000000000    7.5332583900000003    0.9597057000000000   -0.3053181673754164    0.9487737968656469    0.0444591131140770
  50 2    1.8063053099999999    7.1928590899999998    8.9430213199999997   -0.1159273741168297    1.5818003581190752   -0.0158864607095192
  51 2   10.7286291499999997    2.2867134199999999    1.6239633499999999    4.1573340611580640   -0.4352743205038239    0.4088047531538392
  52 2    3.7478391100000001    5.1082562500000002    6.4553532999999996   -2.0486312002855516    2.7811546535869249    2.4197563629263841
  53 2    3.5104206200000001    1.6528777100000001    6.7340960599999997   -1.5715826650225817    0.1577397714433502    0.3350493935220607
  54 2    5.3909712299999999    3.5057395499999999    8.6978579099999997   -0.3997202592493987    0.8446119391161855   -0.3088323323919994
  55 2   10.8328709900000000    5.2844045199999998    1.4801322500000000   -0.0146755573371993   -0.0252878397169710   -0.0815697871452707
  56 2    2.3622152700000001    7.5195828899999997    5.9504287099999997   -3.9014984568308133    0.0527277516190761    1.4969963792481484
  57 2   10.8529835800000001    8.6150234799999996    6.8946615600000003    0.0801041089039087    1.5769862250756914    0.5204074745440136
  58 2    3.8762220599999999    1.6630748900000001    4.1044106700000000   -1.1558762787731756   -0.3493690776088775    0.7445185154939844
  59 2    5.8673867599999996   10.6716270499999997    3.3763120500000001    0.8538331998870401    0.6699437878493710    0.1931232779929203
  60 2    5.5116577099999997   10.6540145099999997    0.7522161400000000   -1.9640356870811706   -1.0471752256161739    2.2385672347721757
  61 2    3.9002888900000001    1.6740566400000001    1.6405635100000000   -1.9935701484961361   -0.5875440942205894   -2.1719134253338184
  62 2    3.6148129999999998    1.6211643600000001    9.5406527899999993    0.6932994603149611    0.8855198773798847   -0.9540174447711305
  63 2    5.7888704700000000    0.0107577000000000    8.8401978700000008   -1.1165292155837401    1.8009810067476613    0.1271137293116893
  64 2   10.8968633500000003    9.1563911000000004    9.6441568300000000    0.3439833358071727   -1.3179779333932562   -1.4418952392387832
  65 2    3.4844188500000000    5.0834485799999998    3.7930377300000000    0.7761822958244826    0.5931833798033980    0.9606722439100074
  66 2    5.5925345699999998    3.3697822799999999    3.3712241600000001    0.0001652139789172    3.7908467979160436    0.0443057564395682
  67 2    5.3253816100000000    4.1550901700000002    0.5425526300000000    0.5237954831970909    1.4668304145559969    2.0660333469495233
  68 2    8.9840330700000006    7.0992439000000003    6.2406166699999996    1.2488344277350500   -0.5906703218608387    1.7911315704567410
  69 2    3.5141731500000000    5.4887050000000004    9.1911944400000003    2.2000678814733154    0.4880736695502260    0.8871769640549010
  70 2    5.3005107200000001    3.7454195800000001    6.0235617599999998    3.2156557210557994   -3.8395021380348884    0.0267555804105834
  71 2   10.9428808499999999    5.4587485600000001    9.1918897899999994   -0.0987191117575823   -0.8908043400557286    0.5372527360093136
  72 2    9.1598810299999993    0.0837115100000000    6.4382472000000002   -0.3941062391927215   -2.0805632026325265   -1.1523374636236117
  73 2    1.7347139899999999    3.5966836700000000    6.2946254899999996   -0.1977312908722239   -1.4750509419378575   -1.1777613647431662
  74 2    6.6201868800000003    1.9379128400000001    0.9569061200000000    1.0248278223549412   -0.2003542334229520    0.9504448631189051
  75 2    9.0192770899999992    0.7570895100000000    0.8552598300000001   -1.2517986686171252   -2.1270072137285956   -1.4502021796645965
  76 2    7.3258765400000003    8.7171040400000006    4.3839670799999997   -0.5571846266306532    2.9801574493899605   -0.3305963533194075
  77 2    7.5008020100000001    1.9078092600000001    3.9086825300000001   -2.2752876682425187   -2.8267442914212713    1.5518381140984172
  78 2    3.5114363499999999    9.5687969699999993    7.2567654399999997    2.8979145015336898    0.2632598273409230   -0.3674260113141832
  79 2    8.9451281999999992    7.2605082200000002    9.0573037999999997    1.4697087599264820   -0.4180664653526591   -4.3135393181717641
  80 2    7.3484578400000000    1.7218183400000000    9.3133880799999993    0.6239276133337960    0.5494304841163475   -0.1371087834136339
  81 2    7.7142563300000004    9.0940986899999992    9.6450297799999998   -1.8659224585085323    2.7450211119613876   -1.0560238168814375
  82 2    5.8448564000000003    7.2782907999999997    8.6964975100000004    0.5651126208474592   -0.7162480625093615   -0.0140027069745972
  83 2    9.0571913199999994    7.2096918800000003    3.6427283600000000   -0.1615049425819928   -1.0731808242618703   -0.3934100188488242
  84 2    5.1491348400000003    7.4112087700000000    6.1715991800000003    2.8388125153706674   -1.5437159691897397    0.4399041699383294
  85 2    7.3006592200000000    8.9426611299999994    1.4384127900000001   -0.5349093574745920    0.8035788253543752    1.4816966218388115
  86 2    9.0891076799999997    7.3007725099999998    0.6677890300000000    3.9385907098274502   -0.7730228239566579    2.7623202010620025
  87 2    7.6362253999999998    5.2474180500000003    9.4663071900000002   -1.3286126749910683    1.0415190950324482   -0.6414935630375364
  88 2    4.0345408599999999    8.9785132099999991    9.6397276099999996   -1.2470911227501174    0.9498583191871250    1.6442619956920523
  89 2    9.3238728500000008   10.8999822999999996    9.0311523099999995    0.1851653819759210    0.4969129513734898   -1.4796586042993147
  90 2    7.2296911899999996    5.1815925399999996    6.8325191099999998   -0.8507008327721838    0.2933856797267700    1.6306536533516998
  91 2    5.4810941900000003    0.4163562700000000    5.9070828000000004   -2.3199859628359940   -0.6258015481870792    0.9777561259186153
  92 2    0.4158410100000000    5.6138053200000000    6.4924396900000003   -1.1373439247059480   -2.5306593263865320    3.0651799333269905
  93 2   10.8613636099999997    9.2070802399999998    4.0367162700000003   -0.1165651093864111   -1.2527156796342247    2.1691349732728784
  94 2    1.5810151100000001    7.3236430500000003    3.4513526899999998    1.1426408213410475   -2.9470434593914852    1.5271245557949509
  95 2    3.9574907100000001    9.0638144399999998    4.2112619899999997   -0.8455454186548076    1.4176695920633651    0.1614891547139160
  96 2    3.2360449099999999    5.9970761100000001    1.5488692500000001    0.8734092688874066   -0.7776304639782192    0.1806044541582874
  97 2    5.2545450400000000    7.1741711099999996    0.8439352700000000   -0.9352414784058818    0.8692970525218509   -0.4097538337495982
  98 2    9.1459865199999992   10.8676504900000008    3.5999253800000002   -2.1725002166655933    0.5480884054888278    0.8750676859154711
  99 2    9.1962395000000008    3.3834953600000000    9.0509243799999997    0.8795441733808413    0.9326884862760056   -1.0100778666879964
 100 2    7.1961840099999996    5.9043847300000003    1.6130177100000000   -0.3245114910882589   -2.5452536091585887    0.7071490394951874
 101 2    8.7533348699999998    3.6848508700000000    1.3186781700000001    0.1469309276433668    0.1484794756760984   -2.1376010682607016
 102 2    9.0494758799999993    3.5659999700000000    3.5588294199999999    0.5138537348520672    2.5757809526868876    2.7672776651217021
 103 2    7.1367621699999999    5.2613336000000004    4.5414043599999996    0.6266532751830788    4.5390509892016242   -3.7780555727038654
 104 2    3.2418811700000001    9.3051311900000009    1.6329740900000000    2.0188685772231909   -0.6950478556436437   -0.7356089824567784
 105 2    9.1155543699999999    3.4867889600000002    6.2457008399999996   -2.4630114841603170    1.2662416037313977    2.4546481125322055
 106 2    7.2934387799999998    1.7093592799999999    6.7606757899999996   -0.5539128837056498    0.8534391001531847   -1.4364064951519611
 107 2    2.1277929200000001    3.5278868900000000    8.7864617900000006   -0.2013605044082187   -1.7620995199171328   -0.7861252918413548
 108 2    6.9259656700000001    9.2839186199999997    6.8249149100000004    4.8265670648663974    0.3909400888137224   -1.3451879055655318
ITEM: TIMESTEP
50
ITEM: NUMBER OF ATOMS
108
ITEM: BOX BOUNDS pp pp pp
0.0000000000000000e+00 1.0956000000000000e+01
0.0000000000000000e+00 1.0956000000000000e+01
0.0000000000000000e+00 1.0629000000000000e+01
ITEM: ATOMS id type x y z fx fy fz
   1 1    1.8662552022518555    1.6547035929706366    2.3863998818307288    1.1920241118884243    1.8927756429469795   -0.3296002592437344
   2 1    3.4927033162722987    7.2441320688109201   10.5169327001011403   -2.1315878479220833    1.0123758217671730    0.4205280541614062
   3 1    5.0404463305061542    5.2497763978487724    2.3078879615374412    1.6444690179270904   -1.4479229605469954    2.2321648032551367
   4 1    9.0883779511364136    5.3609952753300236    7.9446174652635788   -2.5404654493976984   -2.6851218612431849   -0.3713654698938097
   5 1    0.0832079794634200    7.0580579294255132    5.4393573890111764   -0.4920905397793405   -0.5053873132611009   -0.1355231108762522
   6 1   10.7190290667592496   10.9130028938330295    0.0505847350743390    0.0275287745961215    0.3823194538574293    0.7633967164330876
   7 1    7.2656684297716527    3.3864701198858547    5.0246837959491133   -4.4113299826085068    2.4718541278110120    1.0377939929260258
   8 1    7.3438893755958263    7.1167400230319169    5.5038050050191583   -0.3809842582450215   -1.0690784869692047   -1.1033818850141985
   9 1    1.6577432182459686    5.2641733054303490    2.7474212416769537    2.3855844710874345   -0.9596041035181562    0.9229550083842158
  10 1   10.5044774484988004    3.4904572242003176    5.0659481011378533   -0.0846687318007460   -1.7539847114287195    5.0557467840256436
  11 1   10.8976969872158929    3.4544044157211604    0.1327266240909542    1.4709872093651639    0.4306404399323007   -1.5531049250874593
  12 1    1.7917788110120538    5.2758997262833525    7.5413022781438741    0.4240977924026623   -0.0449092629540326    0.3939551747420822
  13 1    9.0489610813093098    9.0519877905773125    8.2339137472925987   -0.9020630241998396    2.6632794358593119   -2.1575188253261737
  14 1    1.9259005570796728    1.7879319100099367    7.9760226602074482   -2.0869531951069442   -0.0689385555559135   -0.3747949591066301
  15 1    7.1843330949877888    7.2472691114081869   10.5320243944275926   -1.3594900439749849   -0.1922472883604349   -3.4351820163036924
  16 1    8.7101460234394974    8.8638537146241667    2.9456549503459080    1.2472514473319425    1.3487016200956270   -2.3958467646854347
  17 1    5.2986298666745251    9.0005533067597661    2.5511709731657297   -0.0185669833454044    1.8777010985804341   -0.6870677875986561
  18 1    5.4662618857523002    9.1315706555482699    7.7657228857995158    0.3089157776810734   -1.3854591109733563    1.6513809896071281
  19 1    0.0947801206843933   10.7195628004185117    5.0704425128982988   -0.5416053684010969   -0.8097670425409644    1.6374202434752183
  20 1    3.5911622819347588    3.5869638469243768    5.3055112234840038   -1.9159710444267071   -0.7143806665540438   -1.8812951646351577
  21 1   10.6906355824060650    7.0267232811834148   10.2210292919220951    2.8304387070616350    1.6007745284150219    2.6230729790423091
  22 1    1.7626314158007039    9.0998258066851196    7.9300086575819382   -0.3007065124345054   -0.7411707312485174    1.2375572692750423
  23 1    7.3366671096507314    3.6364241429056259    0.0112736141820086   -0.8241673119138997   -2.2389123649499050    0.3690541519914278
  24 1    8.9804412042967972    5.4833988986730704    2.2564344292134231    0.0385944394817067   -0.2689827289526872    1.7373896120569035
  25 1    3.7878467872904897    7.2640962529704094    4.7991719524781606   -1.0387376563410071   -0.5346634755982569    4.5034575714212197
  26 1    3.6957426017997732    0.0331878662908272   10.5764013476647172   -0.0527818608582972    0.1589661132146684    0.0394091444046416
  27 1    7.2822479883685061   10.8095697361607730    5.1629548689460307    1.2759075476153388    0.2539942917106718    1.5461160096174869
  28 1    5.3945568314519123    1.5332653359876471    2.7486809234263032   -0.6773521991741469    1.4287364585460627   -1.1018439708660757
  29 1    5.4331265399410862    1.8828235535815181    7.8557470052279239    1.2101717212618008   -0.8762561754375311   -0.6139909404951740
  30 1    1.4698241768789715    9.1327111477508751    2.4194426027714981    0.0413950390078791   -1.3512839609211875   -1.3914856705485354
  31 1    3.5365048589976094   10.8023649919801930    5.1753312307976138    1.4101191600545058    1.9509547887338878    0.9197506111736128
  32 1    3.6359460149565868    3.7739759073192563   10.0485845773295388   -1.0043482509772166   -0.5572460806329872    2.4422724972723944
  33 1    7.2250165783915898   10.9188310920165588    0.1112700116267397   -0.2889675100104290   -0.2332980033159830   -0.8708962647003562
  34 1    9.0591777862382230    1.8212262181486749    2.5168179345991346   -3.1555201769582060   -1.6133614158242509    2.8657699861312604
  35 1    5.3648510407270242    5.5631091677800404    7.8663661141605017    2.0385019932213160    2.5226017425846337    1.0639811989640418
  36 1    9.0967599844445886    1.7573163230020570    7.8754434400917050   -0.5731413495520091    0.3745947020574730   -1.1015525297897828
  37 2   10.4364598915569182    9.6401042222978770    1.8931121835277698    1.7500296425075768   -1.2130777492212812    0.1115009396174735
  38 2    5.1671871565537399    7.2281631851937913    3.4307880168923082   -0.0083203960711334   -0.6321978327384177   -2.3366817121669454
  39 2    0.2306976940971702    4.9896830321486441    4.1932665385636181   -0.1407476144736091    4.5460456088337411   -0.3655550656348101
  40 2   10.6249357655635617    1.5406739132756793    4.3988414336350212   -0.2177951581855715    3.4182865877590984   -1.9162428267949130
  41 2    1.7524541452035809   10.8218264104451194    3.6280076233415026   -1.0744399442324346    0.3450589082300899   -0.4753282541267464
  42 2    1.7095054196179151   10.8485866658660779    0.7861461225248183   -0.1788911869307497    0.6915826659457027    2.1454527079167751
  43 2    1.8203308855297993    3.4546918142386707    0.9429391784927312   -0.9328279743294132   -0.5979502452092896    0.6467633416575368
  44 2    0.3127398957674828    1.7441577892971996    9.8240920119915351    0.0566945748552947   -0.5269646633979395   -0.5535385069033786
  45 2    1.8057177375999598   10.8178288941770688    9.0311266733753293    0.5056174788490986   -0.2601781489739429   -2.2079266223712715
  46 2    1.8139950584087305    0.0878856502440189    6.1680625687252126   -1.3729515946697604   -0.6829830503213250    1.3131955732411131
  47 2    0.0217444314515031    2.3079620281860982    7.3272832645904922    0.1194520689867139   -2.0225772311888353   -1.4118057166052640
  48 2    2.0205395337816565    3.3608628470806794    3.7146058463323128   -0.8568959631341544   -0.7162653088972939   -2.2870461358206295
  49 2    1.3599611850051510    7.8278645145745696    0.6930050739454219    0.6301002002533858   -0.4370617341879220    0.5358634495292272
  50 2    1.6708238017554295    7.0364558554704635    8.8855020273344625   -0.9362207677636467    1.7527375594504309   -0.1524811742414935
  51 2   10.7435091220283336    1.6851950443743784    1.6738639899207775    5.9266097042742683    0.6074365723590587    0.0308126683880214
  52 2    3.8907746587521888    5.3129677002912823    6.7317858933915078   -3.3408315203608314   -0.9893990906519931   -1.2359605892897745
  53 2    3.6515774141970976    1.7418468525428694    6.7517614327480491   -1.1922743067633395   -0.4728053611205764    0.4628315427996438
  54 2    5.1673566775123438    3.7224056600222308    8.5691854731281847   -1.1573663097553399   -0.5409267189591586    0.8286203228625714
  55 2    0.1357364123533643    5.2998267611560665    1.5479359121491949   -3.1146911308593590    0.9945513445176197   -0.5226970378413706
  56 2    1.9601102732532054    6.9828249732426499    6.2646404492949683   -2.4985905556845083   -0.1991860788946943   -0.8000184999936000
  57 2   10.8348077140998154    9.0686329087957542    7.0440222121300975    1.0012684024400156   -0.7802636005539451    0.6582791131789274
  58 2    3.7295146632584886    1.5432008924402147    4.0229045897903735   -0.2997423223016816   -0.8544238521457801    0.4507227223406628
  59 2    5.6053461077115898   10.6976941548754230    3.7864429975917284   -0.2754204617706045   -0.2141069796156657    0.0076489279590744
  60 2    5.5366950826384516    0.0939943744985159    1.1862733867614126   -2.0249627442375173   -0.6356010669102630    0.5181595983021805
  61 2    3.6257570647257653    1.8750484398895466    1.3412880577552635    0.1835920679320031   -2.2588284207409512    0.5652717052324270
  62 2    3.6130793017388685    1.8693763167504069    9.2806801914436328   -0.5366417848661489   -0.4713865212726468    0.4753831883841011
  63 2    5.4613110875597144    0.1582430822736534    9.3770315275065688   -0.5196133638059022    0.6934735360030462   -2.0631610381796079
  64 2   10.3743164336520515    9.0553557440343386    9.7585764726988504    1.4189194870113826    0.0089642764633283    0.5591692853617665
  65 2    3.4815302502989458    5.3727463921862180    4.3157865364540058    0.1981148546586941   -0.9599426681515579   -2.8482680477153370
  66 2    5.3475531585399230    3.5294251098076441    3.5028358808966824   -0.8486540810596090    2.1614327279971062   -1.9954603931253005
  67 2    5.1988926788268444    3.9659362814752863    0.7541858734321094    0.6556002026717387    0.1121230107132456   -0.6400389479030898
  68 2    9.2138200994721497    6.8607192817723295    6.3414560419847872    1.1806696927889735    0.8378078556375145    0.1861089717825921
  69 2    3.7926834047603415    5.6863558590603933    9.3228374059930008    0.3648237638415939    0.4190868350875350    0.4762855380137451
  70 2    5.3191836933376733    3.1870641205074501    5.9452485374372817    4.4078007681493894   -0.3356183202807403    2.0342452667343509
  71 2   10.8227880810723285    5.2160798599778264    9.5558365734791160   -1.4920103739148005    1.1296766896922947   -0.1773655934210647
  72 2    9.3775809926478590    0.1626116660381275    6.0262474517898532   -0.7423442666830244   -0.3591197659437988    0.7252938409726167
  73 2    1.7593267116367985    3.6544054486262230    6.2592660417516592    1.1309612717956914    0.1131967454763864    0.5683258878148090
  74 2    7.2270480366839083    2.0260387302688971    1.6574350742381301   -2.1322122036613540    0.6398624700459312   -2.9604925678758600
  75 2    8.9914655459194037    0.5029426109627305    1.0542711982257831   -1.3927164656955766   -1.4893675278003897   -3.7535566498922615
  76 2    7.1557123239364069    8.7725219140755044    4.3591117042022312    0.3187369483328869    2.1140567577771923   -1.3747451533283142
  77 2    7.0469320157971120    1.8093430342355192    3.9046852175227520    1.9415618959167140   -2.2103548457670246    2.5196607654891157
  78 2    3.4359638908131158    8.8681853835321540    7.0569989692378705    1.0235329928999888    1.1021789911188931   -0.3861225332836438
  79 2    8.9738952019453233    7.2001914358350598    9.0153105481791123   -0.4512201302558509   -1.0566099990380471   -0.4104172289215789
  80 2    7.0909268701004482    2.3791361645648217    9.0591603690973805    0.5965559991086347   -1.6996559113017038    1.1468252859170962
  81 2    7.0479842769622234    9.2851360212336207    9.4262681905984174    2.7355195035323066   -0.6532955154646369    1.2394627645755225
  82 2    5.8237029565629612    7.4385028825972155    8.8038371847281631   -0.6070905608837455   -2.6478216218495292    0.5139863206986823
  83 2    8.8604395391121447    7.0234888852605346    3.5443862617388078    1.8958418251513138   -1.7408453697513635    0.5032005635958567
  84 2    5.4696587300055226    7.4186539568421725    6.2466797285886422   -1.4330627695980758    1.3827799153869009   -0.2140290489808463
  85 2    7.2666326744956740    9.3545026681766625    1.5411593416391105   -0.1119002449732324   -1.4881761351715952    0.1811370643157548
  86 2    8.8244786470783030    7.1842467112739383    0.9542922444816626    2.8520184119283174   -0.1900331864013434    0.8193004066906701
  87 2    7.2091429377352423    5.2244330635123850    9.5275579415205076    0.6477137124834321    2.1518405284596347   -1.1874226735900326
  88 2    3.7467341619687198    9.0499918443248770    9.7431907764143553   -0.3567285451114768    0.6768800458436565   -0.5610237254037488
  89 2    9.0573446053770041    0.0473137603780310    9.0684095469407211    0.1460611530257673    0.5220790328431248   -0.0475107902261215
  90 2    7.0705252085312482    5.7148654914608690    6.9268906703206268    2.2857672531146829   -1.7341893734618796    1.1342798746718392
  91 2    5.3624732192517532   10.5395885030248699    6.4480013887161958   -0.3008549849948071    2.8522091088714312   -2.3119386819557657
  92 2   10.6402072874149578    4.8838760480951464    6.8711526410548949    2.9905102948488751    1.8276522721532658   -0.9999537054814662
  93 2   10.6293554301944209    8.7364217360346128    4.5694741229101803    0.4050607912858086    1.1276576794232915   -2.0131993907553021
  94 2    2.0563841921896970    7.3365402782506797    3.5684068920545733   -2.5568806502986665   -0.9016534926330386   -1.2938206927158173
  95 2    3.5536606764849097    9.1288127591465784    4.2351805849813182    1.0072097271191371    0.1670334327621250    0.6322897977192040
  96 2    3.1252901388947412    5.5813922083849210    1.2897024383909699    2.3429441857338684    1.0835598115479093    0.8007383174933881
  97 2    5.4968226112347045    7.5949004677666077    0.7946991750920041   -2.5548871307726340   -1.0631963340059638    1.5992004833262956
  98 2    8.7016914426520398   10.7740934384325424    3.3067326325913151   -0.7152954197227910    1.5701227843672423    3.5176365656249673
  99 2    9.4217620134101523    3.4303812456891971    8.9042662312819179   -1.3907284520446992    1.2312110887346259    2.1439597212974717
 100 2    7.2500793323237467    5.2383468833978055    1.2963501231668597   -1.0706008727509495    1.5580436434830538    2.1614671265852552
 101 2    9.1585981791081590    3.4450255652571999    1.2686765354692617   -0.1223203458849804    2.5650910200202999   -1.7719475251410630
 102 2    8.7342349917057405    3.9818904617383715    3.8355885415801034    3.2278530118683322   -1.3083467691466406   -1.4914555017589162
 103 2    6.9869886654687159    5.7116465100537201    4.2304243533844730   -1.0147215487499486   -2.4057321961595735    0.0058536816416061
 104 2    3.3627421528151564    9.3604261766408499    1.8865087887186833    2.9164433158048237   -0.3161840539628878   -1.8402203790949563