LAMMPS (2 Aug 2023 - Development - patch_2Aug2023-219-g06e2d5d306)
units          metal
boundary       p p p
atom_style     atomic
read_data     tetrag_hfo2_sample_DATA
Reading data file ...
  orthogonal box = (0 0 0) to (10.956 10.956 10.629)
  1 by 1 by 1 MPI processor grid
  reading atoms ...
  108 atoms
  read_data CPU = 0.005 seconds
pair_style     pace
ACE version: 2022.6.27
Recursive evaluator is used
pair_coeff     * * Siviraman_GAP_HfO2_N3_rcut5_maxdeg10_regQR.yace Hf O
Loading Siviraman_GAP_HfO2_N3_rcut5_maxdeg10_regQR.yace
Total number of basis functions
	O: 20 (r=1) 1166 (r>1)
	Hf: 20 (r=1) 1166 (r>1)
Mapping LAMMPS atom type #1(Hf) -> ACE species type #1
Mapping LAMMPS atom type #2(O) -> ACE species type #0
variable T        equal  2000
variable Tdamp    equal  0.1
variable Tseed    equal  12280329
variable dumpf    equal  50
velocity     all create $T ${Tseed} mom yes rot yes dist gaussian
velocity     all create 2000 ${Tseed} mom yes rot yes dist gaussian
velocity     all create 2000 12280329 mom yes rot yes dist gaussian
thermo       10
thermo_style custom step temp pe ke etotal press
dump           run_dump all xyz ${dumpf} dump_run.xyz
dump           run_dump all xyz 50 dump_run.xyz
dump_modify    run_dump sort id format line "%s %21.16f %21.16f %21.16f" 
dump           run_forces all custom ${dumpf} dump_run_forces.custom id type x y z fx fy fz
dump           run_forces all custom 50 dump_run_forces.custom id type x y z fx fy fz
dump_modify    run_forces sort id format line "%4d %1d %21.16f %21.16f %21.16f %21.16f %21.16f %21.16f" 
fix          nvt all nvt temp $T $T ${Tdamp}
fix          nvt all nvt temp 2000 $T ${Tdamp}
fix          nvt all nvt temp 2000 2000 ${Tdamp}
fix          nvt all nvt temp 2000 2000 0.1
run 1
Neighbor list info ...
  update: every = 1 steps, delay = 0 steps, check = yes
  max neighbors/atom: 2000, page size: 100000
  master list distance cutoff = 7
  ghost atom cutoff = 7
  binsize = 3.5, bins = 4 4 4
  1 neighbor lists, perpetual/occasional/extra = 1 0 0
  (1) pair pace, perpetual
      attributes: full, newton on
      pair build: full/bin/atomonly
      stencil: full/bin/3d
      bin: standard
Per MPI rank memory allocation (min/avg/max) = 3.102 | 3.102 | 3.102 Mbytes
   Step          Temp          PotEng         KinEng         TotEng         Press     
         0   2000          -1063.1311      27.661671     -1035.4694      29976.049    
         1   1995.1938     -1063.064       27.595197     -1035.4688      30177.72     
Loop time of 0.00561733 on 1 procs for 1 steps with 108 atoms

Performance: 15.381 ns/day, 1.560 hours/ns, 178.020 timesteps/s, 19.226 katom-step/s
98.9% CPU use with 1 MPI tasks x no OpenMP threads

MPI task timing breakdown:
Section |  min time  |  avg time  |  max time  |%varavg| %total
---------------------------------------------------------------
Pair    | 0.0055775  | 0.0055775  | 0.0055775  |   0.0 | 99.29
Neigh   | 0          | 0          | 0          |   0.0 |  0.00
Comm    | 6.666e-06  | 6.666e-06  | 6.666e-06  |   0.0 |  0.12
Output  | 1.1125e-05 | 1.1125e-05 | 1.1125e-05 |   0.0 |  0.20
Modify  | 1.6583e-05 | 1.6583e-05 | 1.6583e-05 |   0.0 |  0.30
Other   |            | 5.418e-06  |            |       |  0.10

Nlocal:            108 ave         108 max         108 min
Histogram: 1 0 0 0 0 0 0 0 0 0
Nghost:           1106 ave        1106 max        1106 min
Histogram: 1 0 0 0 0 0 0 0 0 0
Neighs:              0 ave           0 max           0 min
Histogram: 1 0 0 0 0 0 0 0 0 0
FullNghs:        13098 ave       13098 max       13098 min
Histogram: 1 0 0 0 0 0 0 0 0 0

Total # of neighbors = 13098
Ave neighs/atom = 121.27778
Neighbor list builds = 0
Dangerous builds = 0
run 1
Per MPI rank memory allocation (min/avg/max) = 5.376 | 5.376 | 5.376 Mbytes
   Step          Temp          PotEng         KinEng         TotEng         Press     
         1   1995.1938     -1063.064       27.595197     -1035.4688      30177.72     
         2   1994.3479     -1063.0521      27.583498     -1035.4686      30186.459    
Loop time of 0.00521108 on 1 procs for 1 steps with 108 atoms

Performance: 16.580 ns/day, 1.448 hours/ns, 191.899 timesteps/s, 20.725 katom-step/s
96.0% CPU use with 1 MPI tasks x no OpenMP threads

MPI task timing breakdown:
Section |  min time  |  avg time  |  max time  |%varavg| %total
---------------------------------------------------------------
Pair    | 0.005183   | 0.005183   | 0.005183   |   0.0 | 99.46
Neigh   | 0          | 0          | 0          |   0.0 |  0.00
Comm    | 6.208e-06  | 6.208e-06  | 6.208e-06  |   0.0 |  0.12
Output  | 7.75e-06   | 7.75e-06   | 7.75e-06   |   0.0 |  0.15
Modify  | 7.667e-06  | 7.667e-06  | 7.667e-06  |   0.0 |  0.15
Other   |            | 6.501e-06  |            |       |  0.12

Nlocal:            108 ave         108 max         108 min
Histogram: 1 0 0 0 0 0 0 0 0 0
Nghost:           1106 ave        1106 max        1106 min
Histogram: 1 0 0 0 0 0 0 0 0 0
Neighs:              0 ave           0 max           0 min
Histogram: 1 0 0 0 0 0 0 0 0 0
FullNghs:        13112 ave       13112 max       13112 min
Histogram: 1 0 0 0 0 0 0 0 0 0

Total # of neighbors = 13112
Ave neighs/atom = 121.40741
Neighbor list builds = 0
Dangerous builds = 0
run 1
Per MPI rank memory allocation (min/avg/max) = 5.376 | 5.376 | 5.376 Mbytes
   Step          Temp          PotEng         KinEng         TotEng         Press     
         2   1994.3479     -1063.0521      27.583498     -1035.4686      30186.459    
         3   1997.7148     -1063.0988      27.630064     -1035.4688      29996.983    
Loop time of 0.00429392 on 1 procs for 1 steps with 108 atoms

Performance: 20.121 ns/day, 1.193 hours/ns, 232.888 timesteps/s, 25.152 katom-step/s
99.0% CPU use with 1 MPI tasks x no OpenMP threads

MPI task timing breakdown:
Section |  min time  |  avg time  |  max time  |%varavg| %total
---------------------------------------------------------------
Pair    | 0.0042791  | 0.0042791  | 0.0042791  |   0.0 | 99.66
Neigh   | 0          | 0          | 0          |   0.0 |  0.00
Comm    | 4.583e-06  | 4.583e-06  | 4.583e-06  |   0.0 |  0.11
Output  | 3.583e-06  | 3.583e-06  | 3.583e-06  |   0.0 |  0.08
Modify  | 3.375e-06  | 3.375e-06  | 3.375e-06  |   0.0 |  0.08
Other   |            | 3.251e-06  |            |       |  0.08

Nlocal:            108 ave         108 max         108 min
Histogram: 1 0 0 0 0 0 0 0 0 0
Nghost:           1106 ave        1106 max        1106 min
Histogram: 1 0 0 0 0 0 0 0 0 0
Neighs:              0 ave           0 max           0 min
Histogram: 1 0 0 0 0 0 0 0 0 0
FullNghs:        13126 ave       13126 max       13126 min
Histogram: 1 0 0 0 0 0 0 0 0 0

Total # of neighbors = 13126
Ave neighs/atom = 121.53704
Neighbor list builds = 0
Dangerous builds = 0
run 1
Per MPI rank memory allocation (min/avg/max) = 5.376 | 5.376 | 5.376 Mbytes
   Step          Temp          PotEng         KinEng         TotEng         Press     
         3   1997.7148     -1063.0988      27.630064     -1035.4688      29996.983    
         4   2005.101      -1063.2015      27.732222     -1035.4693      29615.899    
Loop time of 0.00328396 on 1 procs for 1 steps with 108 atoms

Performance: 26.310 ns/day, 0.912 hours/ns, 304.511 timesteps/s, 32.887 katom-step/s
99.3% CPU use with 1 MPI tasks x no OpenMP threads

MPI task timing breakdown:
Section |  min time  |  avg time  |  max time  |%varavg| %total
---------------------------------------------------------------
Pair    | 0.0032742  | 0.0032742  | 0.0032742  |   0.0 | 99.70
Neigh   | 0          | 0          | 0          |   0.0 |  0.00
Comm    | 3.291e-06  | 3.291e-06  | 3.291e-06  |   0.0 |  0.10
Output  | 2.459e-06  | 2.459e-06  | 2.459e-06  |   0.0 |  0.07
Modify  | 2.333e-06  | 2.333e-06  | 2.333e-06  |   0.0 |  0.07
Other   |            | 1.708e-06  |            |       |  0.05

Nlocal:            108 ave         108 max         108 min
Histogram: 1 0 0 0 0 0 0 0 0 0
Nghost:           1100 ave        1100 max        1100 min
Histogram: 1 0 0 0 0 0 0 0 0 0
Neighs:              0 ave           0 max           0 min
Histogram: 1 0 0 0 0 0 0 0 0 0
FullNghs:        13122 ave       13122 max       13122 min
Histogram: 1 0 0 0 0 0 0 0 0 0

Total # of neighbors = 13122
Ave neighs/atom = 121.5
Neighbor list builds = 0
Dangerous builds = 0
run 1
Per MPI rank memory allocation (min/avg/max) = 5.376 | 5.376 | 5.376 Mbytes
   Step          Temp          PotEng         KinEng         TotEng         Press     
         4   2005.101      -1063.2015      27.732222     -1035.4693      29615.899    
         5   2015.9073     -1063.3518      27.881682     -1035.4701      29057.715    
Loop time of 0.00359288 on 1 procs for 1 steps with 108 atoms

Performance: 24.048 ns/day, 0.998 hours/ns, 278.329 timesteps/s, 30.059 katom-step/s
99.3% CPU use with 1 MPI tasks x no OpenMP threads

MPI task timing breakdown:
Section |  min time  |  avg time  |  max time  |%varavg| %total
---------------------------------------------------------------
Pair    | 0.0035642  | 0.0035642  | 0.0035642  |   0.0 | 99.20
Neigh   | 0          | 0          | 0          |   0.0 |  0.00
Comm    | 8.417e-06  | 8.417e-06  | 8.417e-06  |   0.0 |  0.23
Output  | 8.541e-06  | 8.541e-06  | 8.541e-06  |   0.0 |  0.24
Modify  | 7.125e-06  | 7.125e-06  | 7.125e-06  |   0.0 |  0.20
Other   |            | 4.583e-06  |            |       |  0.13

Nlocal:            108 ave         108 max         108 min
Histogram: 1 0 0 0 0 0 0 0 0 0
Nghost:           1100 ave        1100 max        1100 min
Histogram: 1 0 0 0 0 0 0 0 0 0
Neighs:              0 ave           0 max           0 min
Histogram: 1 0 0 0 0 0 0 0 0 0
FullNghs:        13118 ave       13118 max       13118 min
Histogram: 1 0 0 0 0 0 0 0 0 0

Total # of neighbors = 13118
Ave neighs/atom = 121.46296
Neighbor list builds = 0
Dangerous builds = 0
run 1
Per MPI rank memory allocation (min/avg/max) = 5.376 | 5.376 | 5.376 Mbytes
   Step          Temp          PotEng         KinEng         TotEng         Press     
         5   2015.9073     -1063.3518      27.881682     -1035.4701      29057.715    
         6   2029.2375     -1063.5372      28.066051     -1035.4711      28370.15     
Loop time of 0.00331667 on 1 procs for 1 steps with 108 atoms

Performance: 26.050 ns/day, 0.921 hours/ns, 301.508 timesteps/s, 32.563 katom-step/s
99.8% CPU use with 1 MPI tasks x no OpenMP threads

MPI task timing breakdown:
Section |  min time  |  avg time  |  max time  |%varavg| %total
---------------------------------------------------------------
Pair    | 0.0033082  | 0.0033082  | 0.0033082  |   0.0 | 99.75
Neigh   | 0          | 0          | 0          |   0.0 |  0.00
Comm    | 3.083e-06  | 3.083e-06  | 3.083e-06  |   0.0 |  0.09
Output  | 2e-06      | 2e-06      | 2e-06      |   0.0 |  0.06
Modify  | 1.833e-06  | 1.833e-06  | 1.833e-06  |   0.0 |  0.06
Other   |            | 1.501e-06  |            |       |  0.05

Nlocal:            108 ave         108 max         108 min
Histogram: 1 0 0 0 0 0 0 0 0 0
Nghost:           1100 ave        1100 max        1100 min
Histogram: 1 0 0 0 0 0 0 0 0 0
Neighs:              0 ave           0 max           0 min
Histogram: 1 0 0 0 0 0 0 0 0 0
FullNghs:        13114 ave       13114 max       13114 min
Histogram: 1 0 0 0 0 0 0 0 0 0

Total # of neighbors = 13114
Ave neighs/atom = 121.42593
Neighbor list builds = 0
Dangerous builds = 0
run 1
Per MPI rank memory allocation (min/avg/max) = 5.376 | 5.376 | 5.376 Mbytes
   Step          Temp          PotEng         KinEng         TotEng         Press     
         6   2029.2375     -1063.5372      28.066051     -1035.4711      28370.15     
         7   2044.0541     -1063.7431      28.270977     -1035.4721      27596.432    
Loop time of 0.00303321 on 1 procs for 1 steps with 108 atoms

Performance: 28.485 ns/day, 0.843 hours/ns, 329.684 timesteps/s, 35.606 katom-step/s
100.0% CPU use with 1 MPI tasks x no OpenMP threads

MPI task timing breakdown:
Section |  min time  |  avg time  |  max time  |%varavg| %total
---------------------------------------------------------------
Pair    | 0.0030264  | 0.0030264  | 0.0030264  |   0.0 | 99.77
Neigh   | 0          | 0          | 0          |   0.0 |  0.00
Comm    | 2.626e-06  | 2.626e-06  | 2.626e-06  |   0.0 |  0.09
Output  | 1.667e-06  | 1.667e-06  | 1.667e-06  |   0.0 |  0.05
Modify  | 1.416e-06  | 1.416e-06  | 1.416e-06  |   0.0 |  0.05
Other   |            | 1.124e-06  |            |       |  0.04

Nlocal:            108 ave         108 max         108 min
Histogram: 1 0 0 0 0 0 0 0 0 0
Nghost:           1102 ave        1102 max        1102 min
Histogram: 1 0 0 0 0 0 0 0 0 0
Neighs:              0 ave           0 max           0 min
Histogram: 1 0 0 0 0 0 0 0 0 0
FullNghs:        13116 ave       13116 max       13116 min
Histogram: 1 0 0 0 0 0 0 0 0 0

Total # of neighbors = 13116
Ave neighs/atom = 121.44444
Neighbor list builds = 0
Dangerous builds = 0
run 1
Per MPI rank memory allocation (min/avg/max) = 5.376 | 5.376 | 5.376 Mbytes
   Step          Temp          PotEng         KinEng         TotEng         Press     
         7   2044.0541     -1063.7431      28.270977     -1035.4721      27596.432    
         8   2059.3475     -1063.9555      28.482496     -1035.4731      26742.195    
Loop time of 0.00305883 on 1 procs for 1 steps with 108 atoms

Performance: 28.246 ns/day, 0.850 hours/ns, 326.922 timesteps/s, 35.308 katom-step/s
100.0% CPU use with 1 MPI tasks x no OpenMP threads

MPI task timing breakdown:
Section |  min time  |  avg time  |  max time  |%varavg| %total
---------------------------------------------------------------
Pair    | 0.0030518  | 0.0030518  | 0.0030518  |   0.0 | 99.77
Neigh   | 0          | 0          | 0          |   0.0 |  0.00
Comm    | 2.584e-06  | 2.584e-06  | 2.584e-06  |   0.0 |  0.08
Output  | 1.75e-06   | 1.75e-06   | 1.75e-06   |   0.0 |  0.06
Modify  | 1.499e-06  | 1.499e-06  | 1.499e-06  |   0.0 |  0.05
Other   |            | 1.168e-06  |            |       |  0.04

Nlocal:            108 ave         108 max         108 min
Histogram: 1 0 0 0 0 0 0 0 0 0
Nghost:           1086 ave        1086 max        1086 min
Histogram: 1 0 0 0 0 0 0 0 0 0
Neighs:              0 ave           0 max           0 min
Histogram: 1 0 0 0 0 0 0 0 0 0
FullNghs:        13112 ave       13112 max       13112 min
Histogram: 1 0 0 0 0 0 0 0 0 0

Total # of neighbors = 13112
Ave neighs/atom = 121.40741
Neighbor list builds = 0
Dangerous builds = 0
run 1
Per MPI rank memory allocation (min/avg/max) = 5.376 | 5.376 | 5.376 Mbytes
   Step          Temp          PotEng         KinEng         TotEng         Press     
         8   2059.3475     -1063.9555      28.482496     -1035.4731      26742.195    
         9   2074.2689     -1064.1628      28.688872     -1035.4739      25835.298    
Loop time of 0.00291058 on 1 procs for 1 steps with 108 atoms

Performance: 29.685 ns/day, 0.808 hours/ns, 343.574 timesteps/s, 37.106 katom-step/s
100.0% CPU use with 1 MPI tasks x no OpenMP threads

MPI task timing breakdown:
Section |  min time  |  avg time  |  max time  |%varavg| %total
---------------------------------------------------------------
Pair    | 0.002904   | 0.002904   | 0.002904   |   0.0 | 99.77
Neigh   | 0          | 0          | 0          |   0.0 |  0.00
Comm    | 2.5e-06    | 2.5e-06    | 2.5e-06    |   0.0 |  0.09
Output  | 1.541e-06  | 1.541e-06  | 1.541e-06  |   0.0 |  0.05
Modify  | 1.5e-06    | 1.5e-06    | 1.5e-06    |   0.0 |  0.05
Other   |            | 1.084e-06  |            |       |  0.04

Nlocal:            108 ave         108 max         108 min
Histogram: 1 0 0 0 0 0 0 0 0 0
Nghost:           1090 ave        1090 max        1090 min
Histogram: 1 0 0 0 0 0 0 0 0 0
Neighs:              0 ave           0 max           0 min
Histogram: 1 0 0 0 0 0 0 0 0 0
FullNghs:        13122 ave       13122 max       13122 min
Histogram: 1 0 0 0 0 0 0 0 0 0

Total # of neighbors = 13122
Ave neighs/atom = 121.5
Neighbor list builds = 0
Dangerous builds = 0
run 1
Per MPI rank memory allocation (min/avg/max) = 5.376 | 5.376 | 5.376 Mbytes
   Step          Temp          PotEng         KinEng         TotEng         Press     
         9   2074.2689     -1064.1628      28.688872     -1035.4739      25835.298    
        10   2088.2132     -1064.3565      28.881734     -1035.4748      24913.96     
Loop time of 0.00287042 on 1 procs for 1 steps with 108 atoms

Performance: 30.100 ns/day, 0.797 hours/ns, 348.382 timesteps/s, 37.625 katom-step/s
99.3% CPU use with 1 MPI tasks x no OpenMP threads

MPI task timing breakdown:
Section |  min time  |  avg time  |  max time  |%varavg| %total
---------------------------------------------------------------
Pair    | 0.002864   | 0.002864   | 0.002864   |   0.0 | 99.78
Neigh   | 0          | 0          | 0          |   0.0 |  0.00
Comm    | 2.459e-06  | 2.459e-06  | 2.459e-06  |   0.0 |  0.09
Output  | 1.667e-06  | 1.667e-06  | 1.667e-06  |   0.0 |  0.06
Modify  | 1.25e-06   | 1.25e-06   | 1.25e-06   |   0.0 |  0.04
Other   |            | 1.04e-06   |            |       |  0.04

Nlocal:            108 ave         108 max         108 min
Histogram: 1 0 0 0 0 0 0 0 0 0
Nghost:           1099 ave        1099 max        1099 min
Histogram: 1 0 0 0 0 0 0 0 0 0
Neighs:              0 ave           0 max           0 min
Histogram: 1 0 0 0 0 0 0 0 0 0
FullNghs:        13132 ave       13132 max       13132 min
Histogram: 1 0 0 0 0 0 0 0 0 0

Total # of neighbors = 13132
Ave neighs/atom = 121.59259
Neighbor list builds = 0
Dangerous builds = 0
run 1
Per MPI rank memory allocation (min/avg/max) = 5.376 | 5.376 | 5.376 Mbytes
   Step          Temp          PotEng         KinEng         TotEng         Press     
        10   2088.2132     -1064.3565      28.881734     -1035.4748      24913.96     
        11   2100.8719     -1064.5324      29.056814     -1035.4756      24004.468    
Loop time of 0.00285813 on 1 procs for 1 steps with 108 atoms

Performance: 30.230 ns/day, 0.794 hours/ns, 349.880 timesteps/s, 37.787 katom-step/s
100.0% CPU use with 1 MPI tasks x no OpenMP threads

MPI task timing breakdown:
Section |  min time  |  avg time  |  max time  |%varavg| %total
---------------------------------------------------------------
Pair    | 0.0028518  | 0.0028518  | 0.0028518  |   0.0 | 99.78
Neigh   | 0          | 0          | 0          |   0.0 |  0.00
Comm    | 2.416e-06  | 2.416e-06  | 2.416e-06  |   0.0 |  0.08
Output  | 1.458e-06  | 1.458e-06  | 1.458e-06  |   0.0 |  0.05
Modify  | 1.417e-06  | 1.417e-06  | 1.417e-06  |   0.0 |  0.05
Other   |            | 1.001e-06  |            |       |  0.04

Nlocal:            108 ave         108 max         108 min
Histogram: 1 0 0 0 0 0 0 0 0 0
Nghost:           1099 ave        1099 max        1099 min
Histogram: 1 0 0 0 0 0 0 0 0 0
Neighs:              0 ave           0 max           0 min
Histogram: 1 0 0 0 0 0 0 0 0 0
FullNghs:        13152 ave       13152 max       13152 min
Histogram: 1 0 0 0 0 0 0 0 0 0

Total # of neighbors = 13152
Ave neighs/atom = 121.77778
Neighbor list builds = 0
Dangerous builds = 0
run 1
Per MPI rank memory allocation (min/avg/max) = 5.376 | 5.376 | 5.376 Mbytes
   Step          Temp          PotEng         KinEng         TotEng         Press     
        11   2100.8719     -1064.5324      29.056814     -1035.4756      24004.468    
        12   2112.218      -1064.6902      29.21374      -1035.4765      23100.4      
Loop time of 0.00278992 on 1 procs for 1 steps with 108 atoms

Performance: 30.969 ns/day, 0.775 hours/ns, 358.434 timesteps/s, 38.711 katom-step/s
100.0% CPU use with 1 MPI tasks x no OpenMP threads

MPI task timing breakdown:
Section |  min time  |  avg time  |  max time  |%varavg| %total
---------------------------------------------------------------
Pair    | 0.0027837  | 0.0027837  | 0.0027837  |   0.0 | 99.78
Neigh   | 0          | 0          | 0          |   0.0 |  0.00
Comm    | 2.375e-06  | 2.375e-06  | 2.375e-06  |   0.0 |  0.09
Output  | 1.541e-06  | 1.541e-06  | 1.541e-06  |   0.0 |  0.06
Modify  | 1.25e-06   | 1.25e-06   | 1.25e-06   |   0.0 |  0.04
Other   |            | 1.083e-06  |            |       |  0.04

Nlocal:            108 ave         108 max         108 min
Histogram: 1 0 0 0 0 0 0 0 0 0
Nghost:           1099 ave        1099 max        1099 min
Histogram: 1 0 0 0 0 0 0 0 0 0
Neighs:              0 ave           0 max           0 min
Histogram: 1 0 0 0 0 0 0 0 0 0
FullNghs:        13152 ave       13152 max       13152 min
Histogram: 1 0 0 0 0 0 0 0 0 0

Total # of neighbors = 13152
Ave neighs/atom = 121.77778
Neighbor list builds = 0
Dangerous builds = 0
run 1
Per MPI rank memory allocation (min/avg/max) = 5.376 | 5.376 | 5.376 Mbytes
   Step          Temp          PotEng         KinEng         TotEng         Press     
        12   2112.218      -1064.6902      29.21374      -1035.4765      23100.4      
        13   2122.4276     -1064.8325      29.354946     -1035.4776      22179.988    
Loop time of 0.00280683 on 1 procs for 1 steps with 108 atoms

Performance: 30.782 ns/day, 0.780 hours/ns, 356.273 timesteps/s, 38.478 katom-step/s
99.6% CPU use with 1 MPI tasks x no OpenMP threads

MPI task timing breakdown:
Section |  min time  |  avg time  |  max time  |%varavg| %total
---------------------------------------------------------------
Pair    | 0.0028007  | 0.0028007  | 0.0028007  |   0.0 | 99.78
Neigh   | 0          | 0          | 0          |   0.0 |  0.00
Comm    | 2.416e-06  | 2.416e-06  | 2.416e-06  |   0.0 |  0.09
Output  | 1.459e-06  | 1.459e-06  | 1.459e-06  |   0.0 |  0.05
Modify  | 1.25e-06   | 1.25e-06   | 1.25e-06   |   0.0 |  0.04
Other   |            | 1.041e-06  |            |       |  0.04

Nlocal:            108 ave         108 max         108 min
Histogram: 1 0 0 0 0 0 0 0 0 0
Nghost:           1099 ave        1099 max        1099 min
Histogram: 1 0 0 0 0 0 0 0 0 0
Neighs:              0 ave           0 max           0 min
Histogram: 1 0 0 0 0 0 0 0 0 0
FullNghs:        13148 ave       13148 max       13148 min
Histogram: 1 0 0 0 0 0 0 0 0 0

Total # of neighbors = 13148
Ave neighs/atom = 121.74074
Neighbor list builds = 0
Dangerous builds = 0
run 1
Per MPI rank memory allocation (min/avg/max) = 5.376 | 5.376 | 5.376 Mbytes
   Step          Temp          PotEng         KinEng         TotEng         Press     
        13   2122.4276     -1064.8325      29.354946     -1035.4776      22179.988    
        14   2131.7668     -1064.9633      29.484117     -1035.4791      21254.954    
Loop time of 0.00276017 on 1 procs for 1 steps with 108 atoms

Performance: 31.302 ns/day, 0.767 hours/ns, 362.297 timesteps/s, 39.128 katom-step/s
100.0% CPU use with 1 MPI tasks x no OpenMP threads

MPI task timing breakdown:
Section |  min time  |  avg time  |  max time  |%varavg| %total
---------------------------------------------------------------
Pair    | 0.002754   | 0.002754   | 0.002754   |   0.0 | 99.78
Neigh   | 0          | 0          | 0          |   0.0 |  0.00
Comm    | 2.459e-06  | 2.459e-06  | 2.459e-06  |   0.0 |  0.09
Output  | 1.416e-06  | 1.416e-06  | 1.416e-06  |   0.0 |  0.05
Modify  | 1.209e-06  | 1.209e-06  | 1.209e-06  |   0.0 |  0.04
Other   |            | 1.082e-06  |            |       |  0.04

Nlocal:            108 ave         108 max         108 min
Histogram: 1 0 0 0 0 0 0 0 0 0
Nghost:           1099 ave        1099 max        1099 min
Histogram: 1 0 0 0 0 0 0 0 0 0
Neighs:              0 ave           0 max           0 min
Histogram: 1 0 0 0 0 0 0 0 0 0
FullNghs:        13128 ave       13128 max       13128 min
Histogram: 1 0 0 0 0 0 0 0 0 0

Total # of neighbors = 13128
Ave neighs/atom = 121.55556
Neighbor list builds = 0
Dangerous builds = 0
run 1
Per MPI rank memory allocation (min/avg/max) = 5.376 | 5.376 | 5.376 Mbytes
   Step          Temp          PotEng         KinEng         TotEng         Press     
        14   2131.7668     -1064.9633      29.484117     -1035.4791      21254.954    
        15   2140.4682     -1065.0857      29.604464     -1035.4812      20319.525    
Loop time of 0.00275238 on 1 procs for 1 steps with 108 atoms

Performance: 31.391 ns/day, 0.765 hours/ns, 363.323 timesteps/s, 39.239 katom-step/s
99.8% CPU use with 1 MPI tasks x no OpenMP threads

MPI task timing breakdown:
Section |  min time  |  avg time  |  max time  |%varavg| %total
---------------------------------------------------------------
Pair    | 0.0027463  | 0.0027463  | 0.0027463  |   0.0 | 99.78
Neigh   | 0          | 0          | 0          |   0.0 |  0.00
Comm    | 2.374e-06  | 2.374e-06  | 2.374e-06  |   0.0 |  0.09
Output  | 1.5e-06    | 1.5e-06    | 1.5e-06    |   0.0 |  0.05
Modify  | 1.25e-06   | 1.25e-06   | 1.25e-06   |   0.0 |  0.05
Other   |            | 9.59e-07   |            |       |  0.03

Nlocal:            108 ave         108 max         108 min
Histogram: 1 0 0 0 0 0 0 0 0 0
Nghost:           1099 ave        1099 max        1099 min
Histogram: 1 0 0 0 0 0 0 0 0 0
Neighs:              0 ave           0 max           0 min
Histogram: 1 0 0 0 0 0 0 0 0 0
FullNghs:        13130 ave       13130 max       13130 min
Histogram: 1 0 0 0 0 0 0 0 0 0

Total # of neighbors = 13130
Ave neighs/atom = 121.57407
Neighbor list builds = 0
Dangerous builds = 0
run 1
Per MPI rank memory allocation (min/avg/max) = 5.376 | 5.376 | 5.376 Mbytes
   Step          Temp          PotEng         KinEng         TotEng         Press     
        15   2140.4682     -1065.0857      29.604464     -1035.4812      20319.525    
        16   2148.6208     -1065.2012      29.717221     -1035.484       19355.987    
Loop time of 0.00276042 on 1 procs for 1 steps with 108 atoms

Performance: 31.300 ns/day, 0.767 hours/ns, 362.264 timesteps/s, 39.125 katom-step/s
99.6% CPU use with 1 MPI tasks x no OpenMP threads

MPI task timing breakdown:
Section |  min time  |  avg time  |  max time  |%varavg| %total
---------------------------------------------------------------
Pair    | 0.0027515  | 0.0027515  | 0.0027515  |   0.0 | 99.68
Neigh   | 0          | 0          | 0          |   0.0 |  0.00
Comm    | 2.667e-06  | 2.667e-06  | 2.667e-06  |   0.0 |  0.10
Output  | 1.583e-06  | 1.583e-06  | 1.583e-06  |   0.0 |  0.06
Modify  | 1.209e-06  | 1.209e-06  | 1.209e-06  |   0.0 |  0.04
Other   |            | 3.458e-06  |            |       |  0.13

Nlocal:            108 ave         108 max         108 min
Histogram: 1 0 0 0 0 0 0 0 0 0
Nghost:           1095 ave        1095 max        1095 min
Histogram: 1 0 0 0 0 0 0 0 0 0
Neighs:              0 ave           0 max           0 min
Histogram: 1 0 0 0 0 0 0 0 0 0
FullNghs:        13138 ave       13138 max       13138 min
Histogram: 1 0 0 0 0 0 0 0 0 0

Total # of neighbors = 13138
Ave neighs/atom = 121.64815
Neighbor list builds = 0
Dangerous builds = 0
run 1
Per MPI rank memory allocation (min/avg/max) = 5.376 | 5.376 | 5.376 Mbytes
   Step          Temp          PotEng         KinEng         TotEng         Press     
        16   2148.6208     -1065.2012      29.717221     -1035.484       19355.987    
        17   2156.111      -1065.3082      29.820816     -1035.4874      18355.433    
Loop time of 0.00274463 on 1 procs for 1 steps with 108 atoms

Performance: 31.480 ns/day, 0.762 hours/ns, 364.348 timesteps/s, 39.350 katom-step/s
99.9% CPU use with 1 MPI tasks x no OpenMP threads

MPI task timing breakdown:
Section |  min time  |  avg time  |  max time  |%varavg| %total
---------------------------------------------------------------
Pair    | 0.0027384  | 0.0027384  | 0.0027384  |   0.0 | 99.77
Neigh   | 0          | 0          | 0          |   0.0 |  0.00
Comm    | 2.418e-06  | 2.418e-06  | 2.418e-06  |   0.0 |  0.09
Output  | 1.459e-06  | 1.459e-06  | 1.459e-06  |   0.0 |  0.05
Modify  | 1.209e-06  | 1.209e-06  | 1.209e-06  |   0.0 |  0.04
Other   |            | 1.123e-06  |            |       |  0.04

Nlocal:            108 ave         108 max         108 min
Histogram: 1 0 0 0 0 0 0 0 0 0
Nghost:           1095 ave        1095 max        1095 min
Histogram: 1 0 0 0 0 0 0 0 0 0
Neighs:              0 ave           0 max           0 min
Histogram: 1 0 0 0 0 0 0 0 0 0
FullNghs:        13136 ave       13136 max       13136 min
Histogram: 1 0 0 0 0 0 0 0 0 0

Total # of neighbors = 13136
Ave neighs/atom = 121.62963
Neighbor list builds = 0
Dangerous builds = 0
run 1
Per MPI rank memory allocation (min/avg/max) = 5.376 | 5.376 | 5.376 Mbytes
   Step          Temp          PotEng         KinEng         TotEng         Press     
        17   2156.111      -1065.3082      29.820816     -1035.4874      18355.433    
        18   2162.6167     -1065.4022      29.910796     -1035.4914      17340.839    
Loop time of 0.00275213 on 1 procs for 1 steps with 108 atoms

Performance: 31.394 ns/day, 0.764 hours/ns, 363.356 timesteps/s, 39.242 katom-step/s
100.0% CPU use with 1 MPI tasks x no OpenMP threads

MPI task timing breakdown:
Section |  min time  |  avg time  |  max time  |%varavg| %total
---------------------------------------------------------------
Pair    | 0.0027462  | 0.0027462  | 0.0027462  |   0.0 | 99.78
Neigh   | 0          | 0          | 0          |   0.0 |  0.00
Comm    | 2.333e-06  | 2.333e-06  | 2.333e-06  |   0.0 |  0.08
Output  | 1.375e-06  | 1.375e-06  | 1.375e-06  |   0.0 |  0.05
Modify  | 1.209e-06  | 1.209e-06  | 1.209e-06  |   0.0 |  0.04
Other   |            | 1.041e-06  |            |       |  0.04

Nlocal:            108 ave         108 max         108 min
Histogram: 1 0 0 0 0 0 0 0 0 0
Nghost:           1095 ave        1095 max        1095 min
Histogram: 1 0 0 0 0 0 0 0 0 0
Neighs:              0 ave           0 max           0 min
Histogram: 1 0 0 0 0 0 0 0 0 0
FullNghs:        13126 ave       13126 max       13126 min
Histogram: 1 0 0 0 0 0 0 0 0 0

Total # of neighbors = 13126
Ave neighs/atom = 121.53704
Neighbor list builds = 0
Dangerous builds = 0
run 1
Per MPI rank memory allocation (min/avg/max) = 5.376 | 5.376 | 5.376 Mbytes
   Step          Temp          PotEng         KinEng         TotEng         Press     
        18   2162.6167     -1065.4022      29.910796     -1035.4914      17340.839    
        19   2167.6512     -1065.4765      29.980428     -1035.496       16341.203    
Loop time of 0.00273867 on 1 procs for 1 steps with 108 atoms

Performance: 31.548 ns/day, 0.761 hours/ns, 365.141 timesteps/s, 39.435 katom-step/s
99.7% CPU use with 1 MPI tasks x no OpenMP threads

MPI task timing breakdown:
Section |  min time  |  avg time  |  max time  |%varavg| %total
---------------------------------------------------------------
Pair    | 0.0027325  | 0.0027325  | 0.0027325  |   0.0 | 99.77
Neigh   | 0          | 0          | 0          |   0.0 |  0.00
Comm    | 2.376e-06  | 2.376e-06  | 2.376e-06  |   0.0 |  0.09
Output  | 1.625e-06  | 1.625e-06  | 1.625e-06  |   0.0 |  0.06
Modify  | 1.209e-06  | 1.209e-06  | 1.209e-06  |   0.0 |  0.04
Other   |            | 9.98e-07   |            |       |  0.04

Nlocal:            108 ave         108 max         108 min
Histogram: 1 0 0 0 0 0 0 0 0 0
Nghost:           1095 ave        1095 max        1095 min
Histogram: 1 0 0 0 0 0 0 0 0 0
Neighs:              0 ave           0 max           0 min
Histogram: 1 0 0 0 0 0 0 0 0 0
FullNghs:        13124 ave       13124 max       13124 min
Histogram: 1 0 0 0 0 0 0 0 0 0

Total # of neighbors = 13124
Ave neighs/atom = 121.51852
Neighbor list builds = 0
Dangerous builds = 0
run 1
Per MPI rank memory allocation (min/avg/max) = 5.376 | 5.376 | 5.376 Mbytes
   Step          Temp          PotEng         KinEng         TotEng         Press     
        19   2167.6512     -1065.4765      29.980428     -1035.496       16341.203    
        20   2170.6574     -1065.5232      30.022006     -1035.5012      15390.536    
Loop time of 0.00273737 on 1 procs for 1 steps with 108 atoms

Performance: 31.563 ns/day, 0.760 hours/ns, 365.313 timesteps/s, 39.454 katom-step/s
100.0% CPU use with 1 MPI tasks x no OpenMP threads

MPI task timing breakdown:
Section |  min time  |  avg time  |  max time  |%varavg| %total
---------------------------------------------------------------
Pair    | 0.0027313  | 0.0027313  | 0.0027313  |   0.0 | 99.78
Neigh   | 0          | 0          | 0          |   0.0 |  0.00
Comm    | 2.417e-06  | 2.417e-06  | 2.417e-06  |   0.0 |  0.09
Output  | 1.375e-06  | 1.375e-06  | 1.375e-06  |   0.0 |  0.05
Modify  | 1.209e-06  | 1.209e-06  | 1.209e-06  |   0.0 |  0.04
Other   |            | 1.041e-06  |            |       |  0.04

Nlocal:            108 ave         108 max         108 min
Histogram: 1 0 0 0 0 0 0 0 0 0
Nghost:           1095 ave        1095 max        1095 min
Histogram: 1 0 0 0 0 0 0 0 0 0
Neighs:              0 ave           0 max           0 min
Histogram: 1 0 0 0 0 0 0 0 0 0
FullNghs:        13130 ave       13130 max       13130 min
Histogram: 1 0 0 0 0 0 0 0 0 0

Total # of neighbors = 13130
Ave neighs/atom = 121.57407
Neighbor list builds = 0
Dangerous builds = 0
run 1
Per MPI rank memory allocation (min/avg/max) = 5.376 | 5.376 | 5.376 Mbytes
   Step          Temp          PotEng         KinEng         TotEng         Press     
        20   2170.6574     -1065.5232      30.022006     -1035.5012      15390.536    
        21   2171.1198     -1065.5351      30.028401     -1035.5067      14521.991    
Loop time of 0.00272354 on 1 procs for 1 steps with 108 atoms

Performance: 31.723 ns/day, 0.757 hours/ns, 367.169 timesteps/s, 39.654 katom-step/s
100.0% CPU use with 1 MPI tasks x no OpenMP threads

MPI task timing breakdown:
Section |  min time  |  avg time  |  max time  |%varavg| %total
---------------------------------------------------------------
Pair    | 0.0027175  | 0.0027175  | 0.0027175  |   0.0 | 99.78
Neigh   | 0          | 0          | 0          |   0.0 |  0.00
Comm    | 2.376e-06  | 2.376e-06  | 2.376e-06  |   0.0 |  0.09
Output  | 1.458e-06  | 1.458e-06  | 1.458e-06  |   0.0 |  0.05
Modify  | 1.209e-06  | 1.209e-06  | 1.209e-06  |   0.0 |  0.04
Other   |            | 9.58e-07   |            |       |  0.04

Nlocal:            108 ave         108 max         108 min
Histogram: 1 0 0 0 0 0 0 0 0 0
Nghost:           1095 ave        1095 max        1095 min
Histogram: 1 0 0 0 0 0 0 0 0 0
Neighs:              0 ave           0 max           0 min
Histogram: 1 0 0 0 0 0 0 0 0 0
FullNghs:        13116 ave       13116 max       13116 min
Histogram: 1 0 0 0 0 0 0 0 0 0

Total # of neighbors = 13116
Ave neighs/atom = 121.44444
Neighbor list builds = 0
Dangerous builds = 0
run 1
Per MPI rank memory allocation (min/avg/max) = 5.376 | 5.376 | 5.376 Mbytes
   Step          Temp          PotEng         KinEng         TotEng         Press     
        21   2171.1198     -1065.5351      30.028401     -1035.5067      14521.991    
        22   2168.6625     -1065.507       29.994415     -1035.5126      13767.462    
Loop time of 0.00287225 on 1 procs for 1 steps with 108 atoms

Performance: 30.081 ns/day, 0.798 hours/ns, 348.159 timesteps/s, 37.601 katom-step/s
98.4% CPU use with 1 MPI tasks x no OpenMP threads

MPI task timing breakdown:
Section |  min time  |  avg time  |  max time  |%varavg| %total
---------------------------------------------------------------
Pair    | 0.0028647  | 0.0028647  | 0.0028647  |   0.0 | 99.74
Neigh   | 0          | 0          | 0          |   0.0 |  0.00
Comm    | 2.458e-06  | 2.458e-06  | 2.458e-06  |   0.0 |  0.09
Output  | 2e-06      | 2e-06      | 2e-06      |   0.0 |  0.07
Modify  | 1.542e-06  | 1.542e-06  | 1.542e-06  |   0.0 |  0.05
Other   |            | 1.542e-06  |            |       |  0.05

Nlocal:            108 ave         108 max         108 min
Histogram: 1 0 0 0 0 0 0 0 0 0
Nghost:           1095 ave        1095 max        1095 min
Histogram: 1 0 0 0 0 0 0 0 0 0
Neighs:              0 ave           0 max           0 min
Histogram: 1 0 0 0 0 0 0 0 0 0
FullNghs:        13108 ave       13108 max       13108 min
Histogram: 1 0 0 0 0 0 0 0 0 0

Total # of neighbors = 13108
Ave neighs/atom = 121.37037
Neighbor list builds = 0
Dangerous builds = 0
run 1
Per MPI rank memory allocation (min/avg/max) = 5.376 | 5.376 | 5.376 Mbytes
   Step          Temp          PotEng         KinEng         TotEng         Press     
        22   2168.6625     -1065.507       29.994415     -1035.5126      13767.462    
        23   2163.1467     -1065.4368      29.918126     -1035.5187      13157.425    
Loop time of 0.00278487 on 1 procs for 1 steps with 108 atoms

Performance: 31.025 ns/day, 0.774 hours/ns, 359.083 timesteps/s, 38.781 katom-step/s
100.0% CPU use with 1 MPI tasks x no OpenMP threads

MPI task timing breakdown:
Section |  min time  |  avg time  |  max time  |%varavg| %total
---------------------------------------------------------------
Pair    | 0.0027788  | 0.0027788  | 0.0027788  |   0.0 | 99.78
Neigh   | 0          | 0          | 0          |   0.0 |  0.00
Comm    | 2.374e-06  | 2.374e-06  | 2.374e-06  |   0.0 |  0.09
Output  | 1.375e-06  | 1.375e-06  | 1.375e-06  |   0.0 |  0.05
Modify  | 1.25e-06   | 1.25e-06   | 1.25e-06   |   0.0 |  0.04
Other   |            | 1.084e-06  |            |       |  0.04

Nlocal:            108 ave         108 max         108 min
Histogram: 1 0 0 0 0 0 0 0 0 0
Nghost:           1089 ave        1089 max        1089 min
Histogram: 1 0 0 0 0 0 0 0 0 0
Neighs:              0 ave           0 max           0 min
Histogram: 1 0 0 0 0 0 0 0 0 0
FullNghs:        13096 ave       13096 max       13096 min
Histogram: 1 0 0 0 0 0 0 0 0 0

Total # of neighbors = 13096
Ave neighs/atom = 121.25926
Neighbor list builds = 0
Dangerous builds = 0
run 1
Per MPI rank memory allocation (min/avg/max) = 5.376 | 5.376 | 5.376 Mbytes
   Step          Temp          PotEng         KinEng         TotEng         Press     
        23   2163.1467     -1065.4368      29.918126     -1035.5187      13157.425    
        24   2154.7141     -1065.3265      29.801496     -1035.5251      12711.91     
Loop time of 0.00276958 on 1 procs for 1 steps with 108 atoms

Performance: 31.196 ns/day, 0.769 hours/ns, 361.065 timesteps/s, 38.995 katom-step/s
100.0% CPU use with 1 MPI tasks x no OpenMP threads

MPI task timing breakdown:
Section |  min time  |  avg time  |  max time  |%varavg| %total
---------------------------------------------------------------
Pair    | 0.0027635  | 0.0027635  | 0.0027635  |   0.0 | 99.78
Neigh   | 0          | 0          | 0          |   0.0 |  0.00
Comm    | 2.417e-06  | 2.417e-06  | 2.417e-06  |   0.0 |  0.09
Output  | 1.459e-06  | 1.459e-06  | 1.459e-06  |   0.0 |  0.05
Modify  | 1.208e-06  | 1.208e-06  | 1.208e-06  |   0.0 |  0.04
Other   |            | 1e-06      |            |       |  0.04

Nlocal:            108 ave         108 max         108 min
Histogram: 1 0 0 0 0 0 0 0 0 0
Nghost:           1089 ave        1089 max        1089 min
Histogram: 1 0 0 0 0 0 0 0 0 0
Neighs:              0 ave           0 max           0 min
Histogram: 1 0 0 0 0 0 0 0 0 0
FullNghs:        13116 ave       13116 max       13116 min
Histogram: 1 0 0 0 0 0 0 0 0 0

Total # of neighbors = 13116
Ave neighs/atom = 121.44444
Neighbor list builds = 0
Dangerous builds = 0
run 1
Per MPI rank memory allocation (min/avg/max) = 5.376 | 5.376 | 5.376 Mbytes
   Step          Temp          PotEng         KinEng         TotEng         Press     
        24   2154.7141     -1065.3265      29.801496     -1035.5251      12711.91     
        25   2143.756      -1065.1817      29.649936     -1035.5317      12453.666    
Loop time of 0.00288738 on 1 procs for 1 steps with 108 atoms

Performance: 29.923 ns/day, 0.802 hours/ns, 346.335 timesteps/s, 37.404 katom-step/s
97.8% CPU use with 1 MPI tasks x no OpenMP threads

MPI task timing breakdown:
Section |  min time  |  avg time  |  max time  |%varavg| %total
---------------------------------------------------------------
Pair    | 0.002881   | 0.002881   | 0.002881   |   0.0 | 99.78
Neigh   | 0          | 0          | 0          |   0.0 |  0.00
Comm    | 2.458e-06  | 2.458e-06  | 2.458e-06  |   0.0 |  0.09
Output  | 1.583e-06  | 1.583e-06  | 1.583e-06  |   0.0 |  0.05
Modify  | 1.25e-06   | 1.25e-06   | 1.25e-06   |   0.0 |  0.04
Other   |            | 1.043e-06  |            |       |  0.04

Nlocal:            108 ave         108 max         108 min
Histogram: 1 0 0 0 0 0 0 0 0 0
Nghost:           1089 ave        1089 max        1089 min
Histogram: 1 0 0 0 0 0 0 0 0 0
Neighs:              0 ave           0 max           0 min
Histogram: 1 0 0 0 0 0 0 0 0 0
FullNghs:        13128 ave       13128 max       13128 min
Histogram: 1 0 0 0 0 0 0 0 0 0

Total # of neighbors = 13128
Ave neighs/atom = 121.55556
Neighbor list builds = 0
Dangerous builds = 0
run 1
Per MPI rank memory allocation (min/avg/max) = 5.376 | 5.376 | 5.376 Mbytes
   Step          Temp          PotEng         KinEng         TotEng         Press     
        25   2143.756      -1065.1817      29.649936     -1035.5317      12453.666    
        26   2130.8407     -1065.0101      29.471308     -1035.5387      12389.305    
Loop time of 0.00305292 on 1 procs for 1 steps with 108 atoms

Performance: 28.301 ns/day, 0.848 hours/ns, 327.556 timesteps/s, 35.376 katom-step/s
99.8% CPU use with 1 MPI tasks x no OpenMP threads

MPI task timing breakdown:
Section |  min time  |  avg time  |  max time  |%varavg| %total
---------------------------------------------------------------
Pair    | 0.0030372  | 0.0030372  | 0.0030372  |   0.0 | 99.48
Neigh   | 0          | 0          | 0          |   0.0 |  0.00
Comm    | 3.334e-06  | 3.334e-06  | 3.334e-06  |   0.0 |  0.11
Output  | 4.959e-06  | 4.959e-06  | 4.959e-06  |   0.0 |  0.16
Modify  | 4.167e-06  | 4.167e-06  | 4.167e-06  |   0.0 |  0.14
Other   |            | 3.289e-06  |            |       |  0.11

Nlocal:            108 ave         108 max         108 min
Histogram: 1 0 0 0 0 0 0 0 0 0
Nghost:           1089 ave        1089 max        1089 min
Histogram: 1 0 0 0 0 0 0 0 0 0
Neighs:              0 ave           0 max           0 min
Histogram: 1 0 0 0 0 0 0 0 0 0
FullNghs:        13140 ave       13140 max       13140 min
Histogram: 1 0 0 0 0 0 0 0 0 0

Total # of neighbors = 13140
Ave neighs/atom = 121.66667
Neighbor list builds = 0
Dangerous builds = 0
run 1
Per MPI rank memory allocation (min/avg/max) = 5.376 | 5.376 | 5.376 Mbytes
   Step          Temp          PotEng         KinEng         TotEng         Press     
        26   2130.8407     -1065.0101      29.471308     -1035.5387      12389.305    
        27   2116.6042     -1064.8206      29.274405     -1035.5462      12510.123    
Loop time of 0.00287462 on 1 procs for 1 steps with 108 atoms

Performance: 30.056 ns/day, 0.799 hours/ns, 347.871 timesteps/s, 37.570 katom-step/s
99.6% CPU use with 1 MPI tasks x no OpenMP threads

MPI task timing breakdown:
Section |  min time  |  avg time  |  max time  |%varavg| %total
---------------------------------------------------------------
Pair    | 0.0028677  | 0.0028677  | 0.0028677  |   0.0 | 99.76
Neigh   | 0          | 0          | 0          |   0.0 |  0.00
Comm    | 2.583e-06  | 2.583e-06  | 2.583e-06  |   0.0 |  0.09
Output  | 1.75e-06   | 1.75e-06   | 1.75e-06   |   0.0 |  0.06
Modify  | 1.5e-06    | 1.5e-06    | 1.5e-06    |   0.0 |  0.05
Other   |            | 1.125e-06  |            |       |  0.04

Nlocal:            108 ave         108 max         108 min
Histogram: 1 0 0 0 0 0 0 0 0 0
Nghost:           1089 ave        1089 max        1089 min
Histogram: 1 0 0 0 0 0 0 0 0 0
Neighs:              0 ave           0 max           0 min
Histogram: 1 0 0 0 0 0 0 0 0 0
FullNghs:        13136 ave       13136 max       13136 min
Histogram: 1 0 0 0 0 0 0 0 0 0

Total # of neighbors = 13136
Ave neighs/atom = 121.62963
Neighbor list builds = 0
Dangerous builds = 0
run 1
Per MPI rank memory allocation (min/avg/max) = 5.376 | 5.376 | 5.376 Mbytes
   Step          Temp          PotEng         KinEng         TotEng         Press     
        27   2116.6042     -1064.8206      29.274405     -1035.5462      12510.123    
        28   2101.6249     -1064.6214      29.067229     -1035.5542      12814.269    
Loop time of 0.00282563 on 1 procs for 1 steps with 108 atoms

Performance: 30.577 ns/day, 0.785 hours/ns, 353.904 timesteps/s, 38.222 katom-step/s
100.0% CPU use with 1 MPI tasks x no OpenMP threads

MPI task timing breakdown:
Section |  min time  |  avg time  |  max time  |%varavg| %total
---------------------------------------------------------------
Pair    | 0.0028193  | 0.0028193  | 0.0028193  |   0.0 | 99.78
Neigh   | 0          | 0          | 0          |   0.0 |  0.00
Comm    | 2.417e-06  | 2.417e-06  | 2.417e-06  |   0.0 |  0.09
Output  | 1.5e-06    | 1.5e-06    | 1.5e-06    |   0.0 |  0.05
Modify  | 1.25e-06   | 1.25e-06   | 1.25e-06   |   0.0 |  0.04
Other   |            | 1.125e-06  |            |       |  0.04

Nlocal:            108 ave         108 max         108 min
Histogram: 1 0 0 0 0 0 0 0 0 0
Nghost:           1085 ave        1085 max        1085 min
Histogram: 1 0 0 0 0 0 0 0 0 0
Neighs:              0 ave           0 max           0 min
Histogram: 1 0 0 0 0 0 0 0 0 0
FullNghs:        13136 ave       13136 max       13136 min
Histogram: 1 0 0 0 0 0 0 0 0 0

Total # of neighbors = 13136
Ave neighs/atom = 121.62963
Neighbor list builds = 0
Dangerous builds = 0
run 1
Per MPI rank memory allocation (min/avg/max) = 5.376 | 5.376 | 5.376 Mbytes
   Step          Temp          PotEng         KinEng         TotEng         Press     
        28   2101.6249     -1064.6214      29.067229     -1035.5542      12814.269    
        29   2086.3054     -1064.418       28.855346     -1035.5626      13302.242    
Loop time of 0.00297337 on 1 procs for 1 steps with 108 atoms

Performance: 29.058 ns/day, 0.826 hours/ns, 336.318 timesteps/s, 36.322 katom-step/s
100.0% CPU use with 1 MPI tasks x no OpenMP threads

MPI task timing breakdown:
Section |  min time  |  avg time  |  max time  |%varavg| %total
---------------------------------------------------------------
Pair    | 0.0029657  | 0.0029657  | 0.0029657  |   0.0 | 99.74
Neigh   | 0          | 0          | 0          |   0.0 |  0.00
Comm    | 2.584e-06  | 2.584e-06  | 2.584e-06  |   0.0 |  0.09
Output  | 1.958e-06  | 1.958e-06  | 1.958e-06  |   0.0 |  0.07
Modify  | 1.833e-06  | 1.833e-06  | 1.833e-06  |   0.0 |  0.06
Other   |            | 1.334e-06  |            |       |  0.04

Nlocal:            108 ave         108 max         108 min
Histogram: 1 0 0 0 0 0 0 0 0 0
Nghost:           1091 ave        1091 max        1091 min
Histogram: 1 0 0 0 0 0 0 0 0 0
Neighs:              0 ave           0 max           0 min
Histogram: 1 0 0 0 0 0 0 0 0 0
FullNghs:        13144 ave       13144 max       13144 min
Histogram: 1 0 0 0 0 0 0 0 0 0

Total # of neighbors = 13144
Ave neighs/atom = 121.7037
Neighbor list builds = 0
Dangerous builds = 0
run 1
Per MPI rank memory allocation (min/avg/max) = 5.376 | 5.376 | 5.376 Mbytes
   Step          Temp          PotEng         KinEng         TotEng         Press     
        29   2086.3054     -1064.418       28.855346     -1035.5626      13302.242    
        30   2070.8089     -1064.2126      28.641017     -1035.5716      13938.532    
Loop time of 0.00288838 on 1 procs for 1 steps with 108 atoms

Performance: 29.913 ns/day, 0.802 hours/ns, 346.215 timesteps/s, 37.391 katom-step/s
100.0% CPU use with 1 MPI tasks x no OpenMP threads

MPI task timing breakdown:
Section |  min time  |  avg time  |  max time  |%varavg| %total
---------------------------------------------------------------
Pair    | 0.0028803  | 0.0028803  | 0.0028803  |   0.0 | 99.72
Neigh   | 0          | 0          | 0          |   0.0 |  0.00
Comm    | 3.417e-06  | 3.417e-06  | 3.417e-06  |   0.0 |  0.12
Output  | 1.5e-06    | 1.5e-06    | 1.5e-06    |   0.0 |  0.05
Modify  | 1.625e-06  | 1.625e-06  | 1.625e-06  |   0.0 |  0.06
Other   |            | 1.583e-06  |            |       |  0.05

Nlocal:            108 ave         108 max         108 min
Histogram: 1 0 0 0 0 0 0 0 0 0
Nghost:           1091 ave        1091 max        1091 min
Histogram: 1 0 0 0 0 0 0 0 0 0
Neighs:              0 ave           0 max           0 min
Histogram: 1 0 0 0 0 0 0 0 0 0
FullNghs:        13134 ave       13134 max       13134 min
Histogram: 1 0 0 0 0 0 0 0 0 0

Total # of neighbors = 13134
Ave neighs/atom = 121.61111
Neighbor list builds = 0
Dangerous builds = 0
run 1
Per MPI rank memory allocation (min/avg/max) = 5.376 | 5.376 | 5.376 Mbytes
   Step          Temp          PotEng         KinEng         TotEng         Press     
        30   2070.8089     -1064.2126      28.641017     -1035.5716      13938.532    
        31   2055.0738     -1064.0042      28.423388     -1035.5808      14714.491    
Loop time of 0.00284792 on 1 procs for 1 steps with 108 atoms

Performance: 30.338 ns/day, 0.791 hours/ns, 351.134 timesteps/s, 37.922 katom-step/s
99.8% CPU use with 1 MPI tasks x no OpenMP threads

MPI task timing breakdown:
Section |  min time  |  avg time  |  max time  |%varavg| %total
---------------------------------------------------------------
Pair    | 0.0028417  | 0.0028417  | 0.0028417  |   0.0 | 99.78
Neigh   | 0          | 0          | 0          |   0.0 |  0.00
Comm    | 2.458e-06  | 2.458e-06  | 2.458e-06  |   0.0 |  0.09
Output  | 1.542e-06  | 1.542e-06  | 1.542e-06  |   0.0 |  0.05
Modify  | 1.208e-06  | 1.208e-06  | 1.208e-06  |   0.0 |  0.04
Other   |            | 1.001e-06  |            |       |  0.04

Nlocal:            108 ave         108 max         108 min
Histogram: 1 0 0 0 0 0 0 0 0 0
Nghost:           1091 ave        1091 max        1091 min
Histogram: 1 0 0 0 0 0 0 0 0 0
Neighs:              0 ave           0 max           0 min
Histogram: 1 0 0 0 0 0 0 0 0 0
FullNghs:        13134 ave       13134 max       13134 min
Histogram: 1 0 0 0 0 0 0 0 0 0

Total # of neighbors = 13134
Ave neighs/atom = 121.61111
Neighbor list builds = 0
Dangerous builds = 0
run 1
Per MPI rank memory allocation (min/avg/max) = 5.376 | 5.376 | 5.376 Mbytes
   Step          Temp          PotEng         KinEng         TotEng         Press     
        31   2055.0738     -1064.0042      28.423388     -1035.5808      14714.491    
        32   2038.8861     -1063.7897      28.199499     -1035.5902      15632.372    
Loop time of 0.00281838 on 1 procs for 1 steps with 108 atoms

Performance: 30.656 ns/day, 0.783 hours/ns, 354.814 timesteps/s, 38.320 katom-step/s
100.0% CPU use with 1 MPI tasks x no OpenMP threads

MPI task timing breakdown:
Section |  min time  |  avg time  |  max time  |%varavg| %total
---------------------------------------------------------------
Pair    | 0.0028121  | 0.0028121  | 0.0028121  |   0.0 | 99.78
Neigh   | 0          | 0          | 0          |   0.0 |  0.00
Comm    | 2.375e-06  | 2.375e-06  | 2.375e-06  |   0.0 |  0.08
Output  | 1.458e-06  | 1.458e-06  | 1.458e-06  |   0.0 |  0.05
Modify  | 1.208e-06  | 1.208e-06  | 1.208e-06  |   0.0 |  0.04
Other   |            | 1.209e-06  |            |       |  0.04

Nlocal:            108 ave         108 max         108 min
Histogram: 1 0 0 0 0 0 0 0 0 0
Nghost:           1087 ave        1087 max        1087 min
Histogram: 1 0 0 0 0 0 0 0 0 0
Neighs:              0 ave           0 max           0 min
Histogram: 1 0 0 0 0 0 0 0 0 0
FullNghs:        13128 ave       13128 max       13128 min
Histogram: 1 0 0 0 0 0 0 0 0 0

Total # of neighbors = 13128
Ave neighs/atom = 121.55556
Neighbor list builds = 0
Dangerous builds = 0
run 1
Per MPI rank memory allocation (min/avg/max) = 5.376 | 5.376 | 5.376 Mbytes
   Step          Temp          PotEng         KinEng         TotEng         Press     
        32   2038.8861     -1063.7897      28.199499     -1035.5902      15632.372    
        33   2021.9783     -1063.5653      27.965649     -1035.5997      16663.456    
Loop time of 0.00282379 on 1 procs for 1 steps with 108 atoms

Performance: 30.597 ns/day, 0.784 hours/ns, 354.134 timesteps/s, 38.246 katom-step/s
99.3% CPU use with 1 MPI tasks x no OpenMP threads

MPI task timing breakdown:
Section |  min time  |  avg time  |  max time  |%varavg| %total
---------------------------------------------------------------
Pair    | 0.0028175  | 0.0028175  | 0.0028175  |   0.0 | 99.78
Neigh   | 0          | 0          | 0          |   0.0 |  0.00
Comm    | 2.416e-06  | 2.416e-06  | 2.416e-06  |   0.0 |  0.09
Output  | 1.583e-06  | 1.583e-06  | 1.583e-06  |   0.0 |  0.06
Modify  | 1.334e-06  | 1.334e-06  | 1.334e-06  |   0.0 |  0.05
Other   |            | 9.59e-07   |            |       |  0.03

Nlocal:            108 ave         108 max         108 min
Histogram: 1 0 0 0 0 0 0 0 0 0
Nghost:           1087 ave        1087 max        1087 min
Histogram: 1 0 0 0 0 0 0 0 0 0
Neighs:              0 ave           0 max           0 min
Histogram: 1 0 0 0 0 0 0 0 0 0
FullNghs:        13116 ave       13116 max       13116 min
Histogram: 1 0 0 0 0 0 0 0 0 0

Total # of neighbors = 13116
Ave neighs/atom = 121.44444
Neighbor list builds = 0
Dangerous builds = 0
run 1
Per MPI rank memory allocation (min/avg/max) = 5.376 | 5.376 | 5.376 Mbytes
   Step          Temp          PotEng         KinEng         TotEng         Press     
        33   2021.9783     -1063.5653      27.965649     -1035.5997      16663.456    
        34   2004.1486     -1063.328       27.71905      -1035.6089      17788.987    
Loop time of 0.00296992 on 1 procs for 1 steps with 108 atoms

Performance: 29.092 ns/day, 0.825 hours/ns, 336.710 timesteps/s, 36.365 katom-step/s
99.9% CPU use with 1 MPI tasks x no OpenMP threads

MPI task timing breakdown:
Section |  min time  |  avg time  |  max time  |%varavg| %total
---------------------------------------------------------------
Pair    | 0.0029626  | 0.0029626  | 0.0029626  |   0.0 | 99.75
Neigh   | 0          | 0          | 0          |   0.0 |  0.00
Comm    | 2.584e-06  | 2.584e-06  | 2.584e-06  |   0.0 |  0.09
Output  | 1.792e-06  | 1.792e-06  | 1.792e-06  |   0.0 |  0.06
Modify  | 1.541e-06  | 1.541e-06  | 1.541e-06  |   0.0 |  0.05
Other   |            | 1.416e-06  |            |       |  0.05

Nlocal:            108 ave         108 max         108 min
Histogram: 1 0 0 0 0 0 0 0 0 0
Nghost:           1087 ave        1087 max        1087 min
Histogram: 1 0 0 0 0 0 0 0 0 0
Neighs:              0 ave           0 max           0 min
Histogram: 1 0 0 0 0 0 0 0 0 0
FullNghs:        13122 ave       13122 max       13122 min
Histogram: 1 0 0 0 0 0 0 0 0 0

Total # of neighbors = 13122
Ave neighs/atom = 121.5
Neighbor list builds = 0
Dangerous builds = 0
run 1
Per MPI rank memory allocation (min/avg/max) = 5.376 | 5.376 | 5.376 Mbytes
   Step          Temp          PotEng         KinEng         TotEng         Press     
        34   2004.1486     -1063.328       27.71905      -1035.6089      17788.987    
        35   1985.4061     -1063.0777      27.459825     -1035.6179      18971.34     
Loop time of 0.00283192 on 1 procs for 1 steps with 108 atoms

Performance: 30.509 ns/day, 0.787 hours/ns, 353.118 timesteps/s, 38.137 katom-step/s
100.0% CPU use with 1 MPI tasks x no OpenMP threads

MPI task timing breakdown:
Section |  min time  |  avg time  |  max time  |%varavg| %total
---------------------------------------------------------------
Pair    | 0.0028257  | 0.0028257  | 0.0028257  |   0.0 | 99.78
Neigh   | 0          | 0          | 0          |   0.0 |  0.00
Comm    | 2.416e-06  | 2.416e-06  | 2.416e-06  |   0.0 |  0.09
Output  | 1.5e-06    | 1.5e-06    | 1.5e-06    |   0.0 |  0.05
Modify  | 1.25e-06   | 1.25e-06   | 1.25e-06   |   0.0 |  0.04
Other   |            | 1.001e-06  |            |       |  0.04

Nlocal:            108 ave         108 max         108 min
Histogram: 1 0 0 0 0 0 0 0 0 0
Nghost:           1087 ave        1087 max        1087 min
Histogram: 1 0 0 0 0 0 0 0 0 0
Neighs:              0 ave           0 max           0 min
Histogram: 1 0 0 0 0 0 0 0 0 0
FullNghs:        13128 ave       13128 max       13128 min
Histogram: 1 0 0 0 0 0 0 0 0 0

Total # of neighbors = 13128
Ave neighs/atom = 121.55556
Neighbor list builds = 0
Dangerous builds = 0
run 1
Per MPI rank memory allocation (min/avg/max) = 5.376 | 5.376 | 5.376 Mbytes
   Step          Temp          PotEng         KinEng         TotEng         Press     
        35   1985.4061     -1063.0777      27.459825     -1035.6179      18971.34     
        36   1966.0711     -1062.8188      27.192405     -1035.6264      20158.958    
Loop time of 0.00286746 on 1 procs for 1 steps with 108 atoms

Performance: 30.131 ns/day, 0.797 hours/ns, 348.741 timesteps/s, 37.664 katom-step/s
98.9% CPU use with 1 MPI tasks x no OpenMP threads

MPI task timing breakdown:
Section |  min time  |  avg time  |  max time  |%varavg| %total
---------------------------------------------------------------
Pair    | 0.0028613  | 0.0028613  | 0.0028613  |   0.0 | 99.79
Neigh   | 0          | 0          | 0          |   0.0 |  0.00
Comm    | 2.334e-06  | 2.334e-06  | 2.334e-06  |   0.0 |  0.08
Output  | 1.417e-06  | 1.417e-06  | 1.417e-06  |   0.0 |  0.05
Modify  | 1.251e-06  | 1.251e-06  | 1.251e-06  |   0.0 |  0.04
Other   |            | 1.123e-06  |            |       |  0.04

Nlocal:            108 ave         108 max         108 min
Histogram: 1 0 0 0 0 0 0 0 0 0
Nghost:           1087 ave        1087 max        1087 min
Histogram: 1 0 0 0 0 0 0 0 0 0
Neighs:              0 ave           0 max           0 min
Histogram: 1 0 0 0 0 0 0 0 0 0
FullNghs:        13128 ave       13128 max       13128 min
Histogram: 1 0 0 0 0 0 0 0 0 0

Total # of neighbors = 13128
Ave neighs/atom = 121.55556
Neighbor list builds = 0
Dangerous builds = 0
run 1
Per MPI rank memory allocation (min/avg/max) = 5.376 | 5.376 | 5.376 Mbytes
   Step          Temp          PotEng         KinEng         TotEng         Press     
        36   1966.0711     -1062.8188      27.192405     -1035.6264      20158.958    
        37   1946.8104     -1062.5604      26.926015     -1035.6344      21295.084    
Loop time of 0.00278708 on 1 procs for 1 steps with 108 atoms

Performance: 31.000 ns/day, 0.774 hours/ns, 358.798 timesteps/s, 38.750 katom-step/s
100.0% CPU use with 1 MPI tasks x no OpenMP threads

MPI task timing breakdown:
Section |  min time  |  avg time  |  max time  |%varavg| %total
---------------------------------------------------------------
Pair    | 0.0027811  | 0.0027811  | 0.0027811  |   0.0 | 99.78
Neigh   | 0          | 0          | 0          |   0.0 |  0.00
Comm    | 2.416e-06  | 2.416e-06  | 2.416e-06  |   0.0 |  0.09
Output  | 1.375e-06  | 1.375e-06  | 1.375e-06  |   0.0 |  0.05
Modify  | 1.208e-06  | 1.208e-06  | 1.208e-06  |   0.0 |  0.04
Other   |            | 1e-06      |            |       |  0.04

Nlocal:            108 ave         108 max         108 min
Histogram: 1 0 0 0 0 0 0 0 0 0
Nghost:           1093 ave        1093 max        1093 min
Histogram: 1 0 0 0 0 0 0 0 0 0
Neighs:              0 ave           0 max           0 min
Histogram: 1 0 0 0 0 0 0 0 0 0
FullNghs:        13130 ave       13130 max       13130 min
Histogram: 1 0 0 0 0 0 0 0 0 0

Total # of neighbors = 13130
Ave neighs/atom = 121.57407
Neighbor list builds = 0
Dangerous builds = 0
run 1
Per MPI rank memory allocation (min/avg/max) = 5.376 | 5.376 | 5.376 Mbytes
   Step          Temp          PotEng         KinEng         TotEng         Press     
        37   1946.8104     -1062.5604      26.926015     -1035.6344      21295.084    
        38   1928.604      -1062.3163      26.674205     -1035.642       22315.843    
Loop time of 0.00277383 on 1 procs for 1 steps with 108 atoms

Performance: 31.148 ns/day, 0.771 hours/ns, 360.512 timesteps/s, 38.935 katom-step/s
100.0% CPU use with 1 MPI tasks x no OpenMP threads

MPI task timing breakdown:
Section |  min time  |  avg time  |  max time  |%varavg| %total
---------------------------------------------------------------
Pair    | 0.0027678  | 0.0027678  | 0.0027678  |   0.0 | 99.78
Neigh   | 0          | 0          | 0          |   0.0 |  0.00
Comm    | 2.375e-06  | 2.375e-06  | 2.375e-06  |   0.0 |  0.09
Output  | 1.5e-06    | 1.5e-06    | 1.5e-06    |   0.0 |  0.05
Modify  | 1.208e-06  | 1.208e-06  | 1.208e-06  |   0.0 |  0.04
Other   |            | 1e-06      |            |       |  0.04

Nlocal:            108 ave         108 max         108 min
Histogram: 1 0 0 0 0 0 0 0 0 0
Nghost:           1089 ave        1089 max        1089 min
Histogram: 1 0 0 0 0 0 0 0 0 0
Neighs:              0 ave           0 max           0 min
Histogram: 1 0 0 0 0 0 0 0 0 0
FullNghs:        13156 ave       13156 max       13156 min
Histogram: 1 0 0 0 0 0 0 0 0 0

Total # of neighbors = 13156
Ave neighs/atom = 121.81481
Neighbor list builds = 0
Dangerous builds = 0
run 1
Per MPI rank memory allocation (min/avg/max) = 5.376 | 5.376 | 5.376 Mbytes
   Step          Temp          PotEng         KinEng         TotEng         Press     
        38   1928.604      -1062.3163      26.674205     -1035.642       22315.843    
        39   1912.6482     -1062.1029      26.453522     -1035.6493      23158.083    
Loop time of 0.00275467 on 1 procs for 1 steps with 108 atoms

Performance: 31.365 ns/day, 0.765 hours/ns, 363.020 timesteps/s, 39.206 katom-step/s
100.0% CPU use with 1 MPI tasks x no OpenMP threads

MPI task timing breakdown:
Section |  min time  |  avg time  |  max time  |%varavg| %total
---------------------------------------------------------------
Pair    | 0.0027486  | 0.0027486  | 0.0027486  |   0.0 | 99.78
Neigh   | 0          | 0          | 0          |   0.0 |  0.00
Comm    | 2.375e-06  | 2.375e-06  | 2.375e-06  |   0.0 |  0.09
Output  | 1.458e-06  | 1.458e-06  | 1.458e-06  |   0.0 |  0.05
Modify  | 1.209e-06  | 1.209e-06  | 1.209e-06  |   0.0 |  0.04
Other   |            | 9.99e-07   |            |       |  0.04

Nlocal:            108 ave         108 max         108 min
Histogram: 1 0 0 0 0 0 0 0 0 0
Nghost:           1095 ave        1095 max        1095 min
Histogram: 1 0 0 0 0 0 0 0 0 0
Neighs:              0 ave           0 max           0 min
Histogram: 1 0 0 0 0 0 0 0 0 0
FullNghs:        13156 ave       13156 max       13156 min
Histogram: 1 0 0 0 0 0 0 0 0 0

Total # of neighbors = 13156
Ave neighs/atom = 121.81481
Neighbor list builds = 0
Dangerous builds = 0
run 1
Per MPI rank memory allocation (min/avg/max) = 5.376 | 5.376 | 5.376 Mbytes
   Step          Temp          PotEng         KinEng         TotEng         Press     
        39   1912.6482     -1062.1029      26.453522     -1035.6493      23158.083    
        40   1900.2242     -1061.9381      26.281688     -1035.6564      23754.84     
Loop time of 0.00273587 on 1 procs for 1 steps with 108 atoms

Performance: 31.580 ns/day, 0.760 hours/ns, 365.514 timesteps/s, 39.475 katom-step/s
100.1% CPU use with 1 MPI tasks x no OpenMP threads

MPI task timing breakdown:
Section |  min time  |  avg time  |  max time  |%varavg| %total
---------------------------------------------------------------
Pair    | 0.0027298  | 0.0027298  | 0.0027298  |   0.0 | 99.78
Neigh   | 0          | 0          | 0          |   0.0 |  0.00
Comm    | 2.332e-06  | 2.332e-06  | 2.332e-06  |   0.0 |  0.09
Output  | 1.5e-06    | 1.5e-06    | 1.5e-06    |   0.0 |  0.05
Modify  | 1.25e-06   | 1.25e-06   | 1.25e-06   |   0.0 |  0.05
Other   |            | 9.59e-07   |            |       |  0.04

Nlocal:            108 ave         108 max         108 min
Histogram: 1 0 0 0 0 0 0 0 0 0
Nghost:           1095 ave        1095 max        1095 min
Histogram: 1 0 0 0 0 0 0 0 0 0
Neighs:              0 ave           0 max           0 min
Histogram: 1 0 0 0 0 0 0 0 0 0
FullNghs:        13152 ave       13152 max       13152 min
Histogram: 1 0 0 0 0 0 0 0 0 0

Total # of neighbors = 13152
Ave neighs/atom = 121.77778
Neighbor list builds = 0
Dangerous builds = 0
run 1
Per MPI rank memory allocation (min/avg/max) = 5.376 | 5.376 | 5.376 Mbytes
   Step          Temp          PotEng         KinEng         TotEng         Press     
        40   1900.2242     -1061.9381      26.281688     -1035.6564      23754.84     
        41   1892.5353     -1061.8387      26.175344     -1035.6634      24078.301    
Loop time of 0.00276613 on 1 procs for 1 steps with 108 atoms

Performance: 31.235 ns/day, 0.768 hours/ns, 361.517 timesteps/s, 39.044 katom-step/s
99.3% CPU use with 1 MPI tasks x no OpenMP threads

MPI task timing breakdown:
Section |  min time  |  avg time  |  max time  |%varavg| %total
---------------------------------------------------------------
Pair    | 0.00276    | 0.00276    | 0.00276    |   0.0 | 99.78
Neigh   | 0          | 0          | 0          |   0.0 |  0.00
Comm    | 2.417e-06  | 2.417e-06  | 2.417e-06  |   0.0 |  0.09
Output  | 1.458e-06  | 1.458e-06  | 1.458e-06  |   0.0 |  0.05
Modify  | 1.166e-06  | 1.166e-06  | 1.166e-06  |   0.0 |  0.04
Other   |            | 1.042e-06  |            |       |  0.04

Nlocal:            108 ave         108 max         108 min
Histogram: 1 0 0 0 0 0 0 0 0 0
Nghost:           1099 ave        1099 max        1099 min
Histogram: 1 0 0 0 0 0 0 0 0 0
Neighs:              0 ave           0 max           0 min
Histogram: 1 0 0 0 0 0 0 0 0 0
FullNghs:        13156 ave       13156 max       13156 min
Histogram: 1 0 0 0 0 0 0 0 0 0

Total # of neighbors = 13156
Ave neighs/atom = 121.81481
Neighbor list builds = 0
Dangerous builds = 0
run 1
Per MPI rank memory allocation (min/avg/max) = 5.376 | 5.376 | 5.376 Mbytes
   Step          Temp          PotEng         KinEng         TotEng         Press     
        41   1892.5353     -1061.8387      26.175344     -1035.6634      24078.301    
        42   1890.5574     -1061.8183      26.147988     -1035.6703      24074.263    
Loop time of 0.00273938 on 1 procs for 1 steps with 108 atoms

Performance: 31.540 ns/day, 0.761 hours/ns, 365.047 timesteps/s, 39.425 katom-step/s
100.1% CPU use with 1 MPI tasks x no OpenMP threads

MPI task timing breakdown:
Section |  min time  |  avg time  |  max time  |%varavg| %total
---------------------------------------------------------------
Pair    | 0.0027334  | 0.0027334  | 0.0027334  |   0.0 | 99.78
Neigh   | 0          | 0          | 0          |   0.0 |  0.00
Comm    | 2.418e-06  | 2.418e-06  | 2.418e-06  |   0.0 |  0.09
Output  | 1.417e-06  | 1.417e-06  | 1.417e-06  |   0.0 |  0.05
Modify  | 1.167e-06  | 1.167e-06  | 1.167e-06  |   0.0 |  0.04
Other   |            | 9.57e-07   |            |       |  0.03

Nlocal:            108 ave         108 max         108 min
Histogram: 1 0 0 0 0 0 0 0 0 0
Nghost:           1099 ave        1099 max        1099 min
Histogram: 1 0 0 0 0 0 0 0 0 0
Neighs:              0 ave           0 max           0 min
Histogram: 1 0 0 0 0 0 0 0 0 0
FullNghs:        13152 ave       13152 max       13152 min
Histogram: 1 0 0 0 0 0 0 0 0 0

Total # of neighbors = 13152
Ave neighs/atom = 121.77778
Neighbor list builds = 0
Dangerous builds = 0
run 1
Per MPI rank memory allocation (min/avg/max) = 5.376 | 5.376 | 5.376 Mbytes
   Step          Temp          PotEng         KinEng         TotEng         Press     
        42   1890.5574     -1061.8183      26.147988     -1035.6703      24074.263    
        43   1894.9035     -1061.8856      26.208098     -1035.6775      23723.347    
Loop time of 0.00273908 on 1 procs for 1 steps with 108 atoms

Performance: 31.543 ns/day, 0.761 hours/ns, 365.086 timesteps/s, 39.429 katom-step/s
100.0% CPU use with 1 MPI tasks x no OpenMP threads

MPI task timing breakdown:
Section |  min time  |  avg time  |  max time  |%varavg| %total
---------------------------------------------------------------
Pair    | 0.002733   | 0.002733   | 0.002733   |   0.0 | 99.78
Neigh   | 0          | 0          | 0          |   0.0 |  0.00
Comm    | 2.375e-06  | 2.375e-06  | 2.375e-06  |   0.0 |  0.09
Output  | 1.417e-06  | 1.417e-06  | 1.417e-06  |   0.0 |  0.05
Modify  | 1.208e-06  | 1.208e-06  | 1.208e-06  |   0.0 |  0.04
Other   |            | 1.042e-06  |            |       |  0.04

Nlocal:            108 ave         108 max         108 min
Histogram: 1 0 0 0 0 0 0 0 0 0
Nghost:           1099 ave        1099 max        1099 min
Histogram: 1 0 0 0 0 0 0 0 0 0
Neighs:              0 ave           0 max           0 min
Histogram: 1 0 0 0 0 0 0 0 0 0
FullNghs:        13154 ave       13154 max       13154 min
Histogram: 1 0 0 0 0 0 0 0 0 0

Total # of neighbors = 13154
Ave neighs/atom = 121.7963
Neighbor list builds = 0
Dangerous builds = 0
run 1
Per MPI rank memory allocation (min/avg/max) = 5.376 | 5.376 | 5.376 Mbytes
   Step          Temp          PotEng         KinEng         TotEng         Press     
        43   1894.9035     -1061.8856      26.208098     -1035.6775      23723.347    
        44   1905.7084     -1062.0424      26.35754      -1035.6849      23009.106    
Loop time of 0.0027345 on 1 procs for 1 steps with 108 atoms

Performance: 31.596 ns/day, 0.760 hours/ns, 365.698 timesteps/s, 39.495 katom-step/s
100.0% CPU use with 1 MPI tasks x no OpenMP threads

MPI task timing breakdown:
Section |  min time  |  avg time  |  max time  |%varavg| %total
---------------------------------------------------------------
Pair    | 0.0027285  | 0.0027285  | 0.0027285  |   0.0 | 99.78
Neigh   | 0          | 0          | 0          |   0.0 |  0.00
Comm    | 2.333e-06  | 2.333e-06  | 2.333e-06  |   0.0 |  0.09
Output  | 1.458e-06  | 1.458e-06  | 1.458e-06  |   0.0 |  0.05
Modify  | 1.208e-06  | 1.208e-06  | 1.208e-06  |   0.0 |  0.04
Other   |            | 1.001e-06  |            |       |  0.04

Nlocal:            108 ave         108 max         108 min
Histogram: 1 0 0 0 0 0 0 0 0 0
Nghost:           1099 ave        1099 max        1099 min
Histogram: 1 0 0 0 0 0 0 0 0 0
Neighs:              0 ave           0 max           0 min
Histogram: 1 0 0 0 0 0 0 0 0 0
FullNghs:        13156 ave       13156 max       13156 min
Histogram: 1 0 0 0 0 0 0 0 0 0

Total # of neighbors = 13156
Ave neighs/atom = 121.81481
Neighbor list builds = 0
Dangerous builds = 0
run 1
Per MPI rank memory allocation (min/avg/max) = 5.376 | 5.376 | 5.376 Mbytes
   Step          Temp          PotEng         KinEng         TotEng         Press     
        44   1905.7084     -1062.0424      26.35754      -1035.6849      23009.106    
        45   1922.5649     -1062.2833      26.590679     -1035.6926      21958.501    
Loop time of 0.00275958 on 1 procs for 1 steps with 108 atoms

Performance: 31.309 ns/day, 0.767 hours/ns, 362.374 timesteps/s, 39.136 katom-step/s
99.6% CPU use with 1 MPI tasks x no OpenMP threads

MPI task timing breakdown:
Section |  min time  |  avg time  |  max time  |%varavg| %total
---------------------------------------------------------------
Pair    | 0.0027534  | 0.0027534  | 0.0027534  |   0.0 | 99.78
Neigh   | 0          | 0          | 0          |   0.0 |  0.00
Comm    | 2.416e-06  | 2.416e-06  | 2.416e-06  |   0.0 |  0.09
Output  | 1.417e-06  | 1.417e-06  | 1.417e-06  |   0.0 |  0.05
Modify  | 1.292e-06  | 1.292e-06  | 1.292e-06  |   0.0 |  0.05
Other   |            | 1.083e-06  |            |       |  0.04

Nlocal:            108 ave         108 max         108 min
Histogram: 1 0 0 0 0 0 0 0 0 0
Nghost:           1099 ave        1099 max        1099 min
Histogram: 1 0 0 0 0 0 0 0 0 0
Neighs:              0 ave           0 max           0 min
Histogram: 1 0 0 0 0 0 0 0 0 0
FullNghs:        13168 ave       13168 max       13168 min
Histogram: 1 0 0 0 0 0 0 0 0 0

Total # of neighbors = 13168
Ave neighs/atom = 121.92593
Neighbor list builds = 0
Dangerous builds = 0
run 1
Per MPI rank memory allocation (min/avg/max) = 5.376 | 5.376 | 5.376 Mbytes
   Step          Temp          PotEng         KinEng         TotEng         Press     
        45   1922.5649     -1062.2833      26.590679     -1035.6926      21958.501    
        46   1944.5233     -1062.595       26.894382     -1035.7006      20614.552    
Loop time of 0.00276292 on 1 procs for 1 steps with 108 atoms

Performance: 31.271 ns/day, 0.767 hours/ns, 361.936 timesteps/s, 39.089 katom-step/s
100.0% CPU use with 1 MPI tasks x no OpenMP threads

MPI task timing breakdown:
Section |  min time  |  avg time  |  max time  |%varavg| %total
---------------------------------------------------------------
Pair    | 0.0027568  | 0.0027568  | 0.0027568  |   0.0 | 99.78
Neigh   | 0          | 0          | 0          |   0.0 |  0.00
Comm    | 2.374e-06  | 2.374e-06  | 2.374e-06  |   0.0 |  0.09
Output  | 1.458e-06  | 1.458e-06  | 1.458e-06  |   0.0 |  0.05
Modify  | 1.292e-06  | 1.292e-06  | 1.292e-06  |   0.0 |  0.05
Other   |            | 9.59e-07   |            |       |  0.03

Nlocal:            108 ave         108 max         108 min
Histogram: 1 0 0 0 0 0 0 0 0 0
Nghost:           1099 ave        1099 max        1099 min
Histogram: 1 0 0 0 0 0 0 0 0 0
Neighs:              0 ave           0 max           0 min
Histogram: 1 0 0 0 0 0 0 0 0 0
FullNghs:        13150 ave       13150 max       13150 min
Histogram: 1 0 0 0 0 0 0 0 0 0

Total # of neighbors = 13150
Ave neighs/atom = 121.75926
Neighbor list builds = 0
Dangerous builds = 0
run 1
Per MPI rank memory allocation (min/avg/max) = 5.376 | 5.376 | 5.376 Mbytes
   Step          Temp          PotEng         KinEng         TotEng         Press     
        46   1944.5233     -1062.595       26.894382     -1035.7006      20614.552    
        47   1970.1736     -1062.958       27.249147     -1035.7089      19066.141    
Loop time of 0.00289517 on 1 procs for 1 steps with 108 atoms

Performance: 29.843 ns/day, 0.804 hours/ns, 345.403 timesteps/s, 37.304 katom-step/s
98.9% CPU use with 1 MPI tasks x no OpenMP threads

MPI task timing breakdown:
Section |  min time  |  avg time  |  max time  |%varavg| %total
---------------------------------------------------------------
Pair    | 0.0028845  | 0.0028845  | 0.0028845  |   0.0 | 99.63
Neigh   | 0          | 0          | 0          |   0.0 |  0.00
Comm    | 2.833e-06  | 2.833e-06  | 2.833e-06  |   0.0 |  0.10
Output  | 3.5e-06    | 3.5e-06    | 3.5e-06    |   0.0 |  0.12
Modify  | 2.167e-06  | 2.167e-06  | 2.167e-06  |   0.0 |  0.07
Other   |            | 2.124e-06  |            |       |  0.07

Nlocal:            108 ave         108 max         108 min
Histogram: 1 0 0 0 0 0 0 0 0 0
Nghost:           1095 ave        1095 max        1095 min
Histogram: 1 0 0 0 0 0 0 0 0 0
Neighs:              0 ave           0 max           0 min
Histogram: 1 0 0 0 0 0 0 0 0 0
FullNghs:        13154 ave       13154 max       13154 min
Histogram: 1 0 0 0 0 0 0 0 0 0

Total # of neighbors = 13154
Ave neighs/atom = 121.7963
Neighbor list builds = 0
Dangerous builds = 0
run 1
Per MPI rank memory allocation (min/avg/max) = 5.376 | 5.376 | 5.376 Mbytes
   Step          Temp          PotEng         KinEng         TotEng         Press     
        47   1970.1736     -1062.958       27.249147     -1035.7089      19066.141    
        48   1997.7922     -1063.3485      27.631135     -1035.7173      17395.712    
Loop time of 0.00306271 on 1 procs for 1 steps with 108 atoms

Performance: 28.210 ns/day, 0.851 hours/ns, 326.508 timesteps/s, 35.263 katom-step/s
99.2% CPU use with 1 MPI tasks x no OpenMP threads

MPI task timing breakdown:
Section |  min time  |  avg time  |  max time  |%varavg| %total
---------------------------------------------------------------
Pair    | 0.0030546  | 0.0030546  | 0.0030546  |   0.0 | 99.73
Neigh   | 0          | 0          | 0          |   0.0 |  0.00
Comm    | 2.583e-06  | 2.583e-06  | 2.583e-06  |   0.0 |  0.08
Output  | 1.875e-06  | 1.875e-06  | 1.875e-06  |   0.0 |  0.06
Modify  | 1.876e-06  | 1.876e-06  | 1.876e-06  |   0.0 |  0.06
Other   |            | 1.79e-06   |            |       |  0.06

Nlocal:            108 ave         108 max         108 min
Histogram: 1 0 0 0 0 0 0 0 0 0
Nghost:           1095 ave        1095 max        1095 min
Histogram: 1 0 0 0 0 0 0 0 0 0
Neighs:              0 ave           0 max           0 min
Histogram: 1 0 0 0 0 0 0 0 0 0
FullNghs:        13138 ave       13138 max       13138 min
Histogram: 1 0 0 0 0 0 0 0 0 0

Total # of neighbors = 13138
Ave neighs/atom = 121.64815
Neighbor list builds = 0
Dangerous builds = 0
run 1
Per MPI rank memory allocation (min/avg/max) = 5.376 | 5.376 | 5.376 Mbytes
   Step          Temp          PotEng         KinEng         TotEng         Press     
        48   1997.7922     -1063.3485      27.631135     -1035.7173      17395.712    
        49   2025.5367     -1063.7407      28.014864     -1035.7258      15696.527    
Loop time of 0.00286546 on 1 procs for 1 steps with 108 atoms

Performance: 30.152 ns/day, 0.796 hours/ns, 348.984 timesteps/s, 37.690 katom-step/s
100.0% CPU use with 1 MPI tasks x no OpenMP threads

MPI task timing breakdown:
Section |  min time  |  avg time  |  max time  |%varavg| %total
---------------------------------------------------------------
Pair    | 0.0028592  | 0.0028592  | 0.0028592  |   0.0 | 99.78
Neigh   | 0          | 0          | 0          |   0.0 |  0.00
Comm    | 2.416e-06  | 2.416e-06  | 2.416e-06  |   0.0 |  0.08
Output  | 1.458e-06  | 1.458e-06  | 1.458e-06  |   0.0 |  0.05
Modify  | 1.209e-06  | 1.209e-06  | 1.209e-06  |   0.0 |  0.04
Other   |            | 1.208e-06  |            |       |  0.04

Nlocal:            108 ave         108 max         108 min
Histogram: 1 0 0 0 0 0 0 0 0 0
Nghost:           1095 ave        1095 max        1095 min
Histogram: 1 0 0 0 0 0 0 0 0 0
Neighs:              0 ave           0 max           0 min
Histogram: 1 0 0 0 0 0 0 0 0 0
FullNghs:        13128 ave       13128 max       13128 min
Histogram: 1 0 0 0 0 0 0 0 0 0

Total # of neighbors = 13128
Ave neighs/atom = 121.55556
Neighbor list builds = 0
Dangerous builds = 0
run 1
Per MPI rank memory allocation (min/avg/max) = 5.376 | 5.376 | 5.376 Mbytes
   Step          Temp          PotEng         KinEng         TotEng         Press     
        49   2025.5367     -1063.7407      28.014864     -1035.7258      15696.527    
        50   2051.6284     -1064.11        28.375734     -1035.7343      14035.744    
Loop time of 0.00329042 on 1 procs for 1 steps with 108 atoms

Performance: 26.258 ns/day, 0.914 hours/ns, 303.913 timesteps/s, 32.823 katom-step/s
97.7% CPU use with 1 MPI tasks x no OpenMP threads

MPI task timing breakdown:
Section |  min time  |  avg time  |  max time  |%varavg| %total
---------------------------------------------------------------
Pair    | 0.0028704  | 0.0028704  | 0.0028704  |   0.0 | 87.24
Neigh   | 0          | 0          | 0          |   0.0 |  0.00
Comm    | 2.708e-06  | 2.708e-06  | 2.708e-06  |   0.0 |  0.08
Output  | 0.00041492 | 0.00041492 | 0.00041492 |   0.0 | 12.61
Modify  | 1.208e-06  | 1.208e-06  | 1.208e-06  |   0.0 |  0.04
Other   |            | 1.167e-06  |            |       |  0.04

Nlocal:            108 ave         108 max         108 min
Histogram: 1 0 0 0 0 0 0 0 0 0
Nghost:           1101 ave        1101 max        1101 min
Histogram: 1 0 0 0 0 0 0 0 0 0
Neighs:              0 ave           0 max           0 min
Histogram: 1 0 0 0 0 0 0 0 0 0
FullNghs:        13124 ave       13124 max       13124 min
Histogram: 1 0 0 0 0 0 0 0 0 0

Total # of neighbors = 13124
Ave neighs/atom = 121.51852
Neighbor list builds = 0
Dangerous builds = 0
run 1
Per MPI rank memory allocation (min/avg/max) = 5.376 | 5.376 | 5.376 Mbytes
   Step          Temp          PotEng         KinEng         TotEng         Press     
        50   2051.6284     -1064.11        28.375734     -1035.7343      14035.744    
        51   2074.4994     -1064.4348      28.69206      -1035.7428      12488.28     
Loop time of 0.00301996 on 1 procs for 1 steps with 108 atoms

Performance: 28.610 ns/day, 0.839 hours/ns, 331.130 timesteps/s, 35.762 katom-step/s
100.0% CPU use with 1 MPI tasks x no OpenMP threads

MPI task timing breakdown:
Section |  min time  |  avg time  |  max time  |%varavg| %total
---------------------------------------------------------------
Pair    | 0.0030105  | 0.0030105  | 0.0030105  |   0.0 | 99.69
[...]
   Step          Temp          PotEng         KinEng         TotEng         Press     
       489   2018.5059     -1063.26        27.917623     -1035.3424      17429.559    
       490   2025.3053     -1063.3103      28.011664     -1035.2986      19075.986    
Loop time of 0.00270629 on 1 procs for 1 steps with 108 atoms

Performance: 31.926 ns/day, 0.752 hours/ns, 369.509 timesteps/s, 39.907 katom-step/s
100.0% CPU use with 1 MPI tasks x no OpenMP threads

MPI task timing breakdown:
Section |  min time  |  avg time  |  max time  |%varavg| %total
---------------------------------------------------------------
Pair    | 0.0027001  | 0.0027001  | 0.0027001  |   0.0 | 99.77
Neigh   | 0          | 0          | 0          |   0.0 |  0.00
Comm    | 2.417e-06  | 2.417e-06  | 2.417e-06  |   0.0 |  0.09
Output  | 1.416e-06  | 1.416e-06  | 1.416e-06  |   0.0 |  0.05
Modify  | 1.209e-06  | 1.209e-06  | 1.209e-06  |   0.0 |  0.04
Other   |            | 1.124e-06  |            |       |  0.04

Nlocal:            108 ave         108 max         108 min
Histogram: 1 0 0 0 0 0 0 0 0 0
Nghost:           1113 ave        1113 max        1113 min
Histogram: 1 0 0 0 0 0 0 0 0 0
Neighs:              0 ave           0 max           0 min
Histogram: 1 0 0 0 0 0 0 0 0 0
FullNghs:        13134 ave       13134 max       13134 min
Histogram: 1 0 0 0 0 0 0 0 0 0

Total # of neighbors = 13134
Ave neighs/atom = 121.61111
Neighbor list builds = 0
Dangerous builds = 0
run 1
Per MPI rank memory allocation (min/avg/max) = 5.376 | 5.376 | 5.376 Mbytes
   Step          Temp          PotEng         KinEng         TotEng         Press     
       490   2025.3053     -1063.3103      28.011664     -1035.2986      19075.986    
       491   2032.6667     -1063.3692      28.113479     -1035.2557      20779.723    
Loop time of 0.002746 on 1 procs for 1 steps with 108 atoms

Performance: 31.464 ns/day, 0.763 hours/ns, 364.166 timesteps/s, 39.330 katom-step/s
100.0% CPU use with 1 MPI tasks x no OpenMP threads

MPI task timing breakdown:
Section |  min time  |  avg time  |  max time  |%varavg| %total
---------------------------------------------------------------
Pair    | 0.0027396  | 0.0027396  | 0.0027396  |   0.0 | 99.77
Neigh   | 0          | 0          | 0          |   0.0 |  0.00
Comm    | 2.5e-06    | 2.5e-06    | 2.5e-06    |   0.0 |  0.09
Output  | 1.458e-06  | 1.458e-06  | 1.458e-06  |   0.0 |  0.05
Modify  | 1.292e-06  | 1.292e-06  | 1.292e-06  |   0.0 |  0.05
Other   |            | 1.167e-06  |            |       |  0.04

Nlocal:            108 ave         108 max         108 min
Histogram: 1 0 0 0 0 0 0 0 0 0
Nghost:           1113 ave        1113 max        1113 min
Histogram: 1 0 0 0 0 0 0 0 0 0
Neighs:              0 ave           0 max           0 min
Histogram: 1 0 0 0 0 0 0 0 0 0
FullNghs:        13160 ave       13160 max       13160 min
Histogram: 1 0 0 0 0 0 0 0 0 0

Total # of neighbors = 13160
Ave neighs/atom = 121.85185
Neighbor list builds = 0
Dangerous builds = 0
run 1
Per MPI rank memory allocation (min/avg/max) = 5.376 | 5.376 | 5.376 Mbytes
   Step          Temp          PotEng         KinEng         TotEng         Press     
       491   2032.6667     -1063.3692      28.113479     -1035.2557      20779.723    
       492   2040.7499     -1063.4389      28.225276     -1035.2136      22498.114    
Loop time of 0.00276204 on 1 procs for 1 steps with 108 atoms

Performance: 31.281 ns/day, 0.767 hours/ns, 362.051 timesteps/s, 39.102 katom-step/s
99.3% CPU use with 1 MPI tasks x no OpenMP threads

MPI task timing breakdown:
Section |  min time  |  avg time  |  max time  |%varavg| %total
---------------------------------------------------------------
Pair    | 0.0027558  | 0.0027558  | 0.0027558  |   0.0 | 99.77
Neigh   | 0          | 0          | 0          |   0.0 |  0.00
Comm    | 2.416e-06  | 2.416e-06  | 2.416e-06  |   0.0 |  0.09
Output  | 1.5e-06    | 1.5e-06    | 1.5e-06    |   0.0 |  0.05
Modify  | 1.208e-06  | 1.208e-06  | 1.208e-06  |   0.0 |  0.04
Other   |            | 1.126e-06  |            |       |  0.04

Nlocal:            108 ave         108 max         108 min
Histogram: 1 0 0 0 0 0 0 0 0 0
Nghost:           1107 ave        1107 max        1107 min
Histogram: 1 0 0 0 0 0 0 0 0 0
Neighs:              0 ave           0 max           0 min
Histogram: 1 0 0 0 0 0 0 0 0 0
FullNghs:        13162 ave       13162 max       13162 min
Histogram: 1 0 0 0 0 0 0 0 0 0

Total # of neighbors = 13162
Ave neighs/atom = 121.87037
Neighbor list builds = 0
Dangerous builds = 0
run 1
Per MPI rank memory allocation (min/avg/max) = 5.376 | 5.376 | 5.376 Mbytes
   Step          Temp          PotEng         KinEng         TotEng         Press     
       492   2040.7499     -1063.4389      28.225276     -1035.2136      22498.114    
       493   2049.4566     -1063.5182      28.345698     -1035.1725      24200.281    
Loop time of 0.00272783 on 1 procs for 1 steps with 108 atoms

Performance: 31.673 ns/day, 0.758 hours/ns, 366.591 timesteps/s, 39.592 katom-step/s
100.0% CPU use with 1 MPI tasks x no OpenMP threads

MPI task timing breakdown:
Section |  min time  |  avg time  |  max time  |%varavg| %total
---------------------------------------------------------------
Pair    | 0.0027217  | 0.0027217  | 0.0027217  |   0.0 | 99.78
Neigh   | 0          | 0          | 0          |   0.0 |  0.00
Comm    | 2.374e-06  | 2.374e-06  | 2.374e-06  |   0.0 |  0.09
Output  | 1.416e-06  | 1.416e-06  | 1.416e-06  |   0.0 |  0.05
Modify  | 1.25e-06   | 1.25e-06   | 1.25e-06   |   0.0 |  0.05
Other   |            | 1.085e-06  |            |       |  0.04

Nlocal:            108 ave         108 max         108 min
Histogram: 1 0 0 0 0 0 0 0 0 0
Nghost:           1107 ave        1107 max        1107 min
Histogram: 1 0 0 0 0 0 0 0 0 0
Neighs:              0 ave           0 max           0 min
Histogram: 1 0 0 0 0 0 0 0 0 0
FullNghs:        13142 ave       13142 max       13142 min
Histogram: 1 0 0 0 0 0 0 0 0 0

Total # of neighbors = 13142
Ave neighs/atom = 121.68519
Neighbor list builds = 0
Dangerous builds = 0
run 1
Per MPI rank memory allocation (min/avg/max) = 5.376 | 5.376 | 5.376 Mbytes
   Step          Temp          PotEng         KinEng         TotEng         Press     
       493   2049.4566     -1063.5182      28.345698     -1035.1725      24200.281    
       494   2058.414      -1063.6019      28.469585     -1035.1323      25858.193    
Loop time of 0.00273233 on 1 procs for 1 steps with 108 atoms

Performance: 31.621 ns/day, 0.759 hours/ns, 365.987 timesteps/s, 39.527 katom-step/s
100.0% CPU use with 1 MPI tasks x no OpenMP threads

MPI task timing breakdown:
Section |  min time  |  avg time  |  max time  |%varavg| %total
---------------------------------------------------------------
Pair    | 0.0027259  | 0.0027259  | 0.0027259  |   0.0 | 99.77
Neigh   | 0          | 0          | 0          |   0.0 |  0.00
Comm    | 2.416e-06  | 2.416e-06  | 2.416e-06  |   0.0 |  0.09
Output  | 1.542e-06  | 1.542e-06  | 1.542e-06  |   0.0 |  0.06
Modify  | 1.375e-06  | 1.375e-06  | 1.375e-06  |   0.0 |  0.05
Other   |            | 1.084e-06  |            |       |  0.04

Nlocal:            108 ave         108 max         108 min
Histogram: 1 0 0 0 0 0 0 0 0 0
Nghost:           1107 ave        1107 max        1107 min
Histogram: 1 0 0 0 0 0 0 0 0 0
Neighs:              0 ave           0 max           0 min
Histogram: 1 0 0 0 0 0 0 0 0 0
FullNghs:        13124 ave       13124 max       13124 min
Histogram: 1 0 0 0 0 0 0 0 0 0

Total # of neighbors = 13124
Ave neighs/atom = 121.51852
Neighbor list builds = 0
Dangerous builds = 0
run 1
Per MPI rank memory allocation (min/avg/max) = 5.376 | 5.376 | 5.376 Mbytes
   Step          Temp          PotEng         KinEng         TotEng         Press     
       494   2058.414      -1063.6019      28.469585     -1035.1323      25858.193    
       495   2067.0165     -1063.6814      28.588566     -1035.0929      27462.143    
Loop time of 0.002752 on 1 procs for 1 steps with 108 atoms

Performance: 31.395 ns/day, 0.764 hours/ns, 363.372 timesteps/s, 39.244 katom-step/s
100.0% CPU use with 1 MPI tasks x no OpenMP threads

MPI task timing breakdown:
Section |  min time  |  avg time  |  max time  |%varavg| %total
---------------------------------------------------------------
Pair    | 0.0027459  | 0.0027459  | 0.0027459  |   0.0 | 99.78
Neigh   | 0          | 0          | 0          |   0.0 |  0.00
Comm    | 2.5e-06    | 2.5e-06    | 2.5e-06    |   0.0 |  0.09
Output  | 1.458e-06  | 1.458e-06  | 1.458e-06  |   0.0 |  0.05
Modify  | 1.25e-06   | 1.25e-06   | 1.25e-06   |   0.0 |  0.05
Other   |            | 8.75e-07   |            |       |  0.03

Nlocal:            108 ave         108 max         108 min
Histogram: 1 0 0 0 0 0 0 0 0 0
Nghost:           1113 ave        1113 max        1113 min
Histogram: 1 0 0 0 0 0 0 0 0 0
Neighs:              0 ave           0 max           0 min
Histogram: 1 0 0 0 0 0 0 0 0 0
FullNghs:        13096 ave       13096 max       13096 min
Histogram: 1 0 0 0 0 0 0 0 0 0

Total # of neighbors = 13096
Ave neighs/atom = 121.25926
Neighbor list builds = 0
Dangerous builds = 0
run 1
Per MPI rank memory allocation (min/avg/max) = 5.376 | 5.376 | 5.376 Mbytes
   Step          Temp          PotEng         KinEng         TotEng         Press     
       495   2067.0165     -1063.6814      28.588566     -1035.0929      27462.143    
       496   2074.5283     -1063.7466      28.69246      -1035.0541      29005.139    
Loop time of 0.00274888 on 1 procs for 1 steps with 108 atoms

Performance: 31.431 ns/day, 0.764 hours/ns, 363.785 timesteps/s, 39.289 katom-step/s
100.0% CPU use with 1 MPI tasks x no OpenMP threads

MPI task timing breakdown:
Section |  min time  |  avg time  |  max time  |%varavg| %total
---------------------------------------------------------------
Pair    | 0.0027429  | 0.0027429  | 0.0027429  |   0.0 | 99.78
Neigh   | 0          | 0          | 0          |   0.0 |  0.00
Comm    | 2.417e-06  | 2.417e-06  | 2.417e-06  |   0.0 |  0.09
Output  | 1.375e-06  | 1.375e-06  | 1.375e-06  |   0.0 |  0.05
Modify  | 1.209e-06  | 1.209e-06  | 1.209e-06  |   0.0 |  0.04
Other   |            | 9.99e-07   |            |       |  0.04

Nlocal:            108 ave         108 max         108 min
Histogram: 1 0 0 0 0 0 0 0 0 0
Nghost:           1117 ave        1117 max        1117 min
Histogram: 1 0 0 0 0 0 0 0 0 0
Neighs:              0 ave           0 max           0 min
Histogram: 1 0 0 0 0 0 0 0 0 0
FullNghs:        13102 ave       13102 max       13102 min
Histogram: 1 0 0 0 0 0 0 0 0 0

Total # of neighbors = 13102
Ave neighs/atom = 121.31481
Neighbor list builds = 0
Dangerous builds = 0
run 1
Per MPI rank memory allocation (min/avg/max) = 5.376 | 5.376 | 5.376 Mbytes
   Step          Temp          PotEng         KinEng         TotEng         Press     
       496   2074.5283     -1063.7466      28.69246      -1035.0541      29005.139    
       497   2080.1823     -1063.7868      28.770659     -1035.0161      30499.221    
Loop time of 0.00274704 on 1 procs for 1 steps with 108 atoms

Performance: 31.452 ns/day, 0.763 hours/ns, 364.028 timesteps/s, 39.315 katom-step/s
100.0% CPU use with 1 MPI tasks x no OpenMP threads

MPI task timing breakdown:
Section |  min time  |  avg time  |  max time  |%varavg| %total
---------------------------------------------------------------
Pair    | 0.0027409  | 0.0027409  | 0.0027409  |   0.0 | 99.78
Neigh   | 0          | 0          | 0          |   0.0 |  0.00
Comm    | 2.416e-06  | 2.416e-06  | 2.416e-06  |   0.0 |  0.09
Output  | 1.458e-06  | 1.458e-06  | 1.458e-06  |   0.0 |  0.05
Modify  | 1.25e-06   | 1.25e-06   | 1.25e-06   |   0.0 |  0.05
Other   |            | 1.043e-06  |            |       |  0.04

Nlocal:            108 ave         108 max         108 min
Histogram: 1 0 0 0 0 0 0 0 0 0
Nghost:           1117 ave        1117 max        1117 min
Histogram: 1 0 0 0 0 0 0 0 0 0
Neighs:              0 ave           0 max           0 min
Histogram: 1 0 0 0 0 0 0 0 0 0
FullNghs:        13096 ave       13096 max       13096 min
Histogram: 1 0 0 0 0 0 0 0 0 0

Total # of neighbors = 13096
Ave neighs/atom = 121.25926
Neighbor list builds = 0
Dangerous builds = 0
run 1
Per MPI rank memory allocation (min/avg/max) = 5.376 | 5.376 | 5.376 Mbytes
   Step          Temp          PotEng         KinEng         TotEng         Press     
       497   2080.1823     -1063.7868      28.770659     -1035.0161      30499.221    
       498   2083.2811     -1063.7922      28.813519     -1034.9787      31892.733    
Loop time of 0.00274858 on 1 procs for 1 steps with 108 atoms

Performance: 31.434 ns/day, 0.763 hours/ns, 363.824 timesteps/s, 39.293 katom-step/s
100.1% CPU use with 1 MPI tasks x no OpenMP threads

MPI task timing breakdown:
Section |  min time  |  avg time  |  max time  |%varavg| %total
---------------------------------------------------------------
Pair    | 0.0027425  | 0.0027425  | 0.0027425  |   0.0 | 99.78
Neigh   | 0          | 0          | 0          |   0.0 |  0.00
Comm    | 2.417e-06  | 2.417e-06  | 2.417e-06  |   0.0 |  0.09
Output  | 1.416e-06  | 1.416e-06  | 1.416e-06  |   0.0 |  0.05
Modify  | 1.25e-06   | 1.25e-06   | 1.25e-06   |   0.0 |  0.05
Other   |            | 1.041e-06  |            |       |  0.04

Nlocal:            108 ave         108 max         108 min
Histogram: 1 0 0 0 0 0 0 0 0 0
Nghost:           1117 ave        1117 max        1117 min
Histogram: 1 0 0 0 0 0 0 0 0 0
Neighs:              0 ave           0 max           0 min
Histogram: 1 0 0 0 0 0 0 0 0 0
FullNghs:        13088 ave       13088 max       13088 min
Histogram: 1 0 0 0 0 0 0 0 0 0

Total # of neighbors = 13088
Ave neighs/atom = 121.18519
Neighbor list builds = 0
Dangerous builds = 0
run 1
Per MPI rank memory allocation (min/avg/max) = 5.376 | 5.376 | 5.376 Mbytes
   Step          Temp          PotEng         KinEng         TotEng         Press     
       498   2083.2811     -1063.7922      28.813519     -1034.9787      31892.733    
       499   2083.3258     -1063.756       28.814137     -1034.9419      33180.917    
Loop time of 0.00277917 on 1 procs for 1 steps with 108 atoms

Performance: 31.088 ns/day, 0.772 hours/ns, 359.820 timesteps/s, 38.861 katom-step/s
99.6% CPU use with 1 MPI tasks x no OpenMP threads

MPI task timing breakdown:
Section |  min time  |  avg time  |  max time  |%varavg| %total
---------------------------------------------------------------
Pair    | 0.002773   | 0.002773   | 0.002773   |   0.0 | 99.78
Neigh   | 0          | 0          | 0          |   0.0 |  0.00
Comm    | 2.458e-06  | 2.458e-06  | 2.458e-06  |   0.0 |  0.09
Output  | 1.5e-06    | 1.5e-06    | 1.5e-06    |   0.0 |  0.05
Modify  | 1.208e-06  | 1.208e-06  | 1.208e-06  |   0.0 |  0.04
Other   |            | 1.043e-06  |            |       |  0.04

Nlocal:            108 ave         108 max         108 min
Histogram: 1 0 0 0 0 0 0 0 0 0
Nghost:           1117 ave        1117 max        1117 min
Histogram: 1 0 0 0 0 0 0 0 0 0
Neighs:              0 ave           0 max           0 min
Histogram: 1 0 0 0 0 0 0 0 0 0
FullNghs:        13098 ave       13098 max       13098 min
Histogram: 1 0 0 0 0 0 0 0 0 0

Total # of neighbors = 13098
Ave neighs/atom = 121.27778
Neighbor list builds = 0
Dangerous builds = 0
run 1
Per MPI rank memory allocation (min/avg/max) = 5.376 | 5.376 | 5.376 Mbytes
   Step          Temp          PotEng         KinEng         TotEng         Press     
       499   2083.3258     -1063.756       28.814137     -1034.9419      33180.917    
       500   2080.1033     -1063.6752      28.769566     -1034.9056      34343.356    
Loop time of 0.00311879 on 1 procs for 1 steps with 108 atoms

Performance: 27.703 ns/day, 0.866 hours/ns, 320.637 timesteps/s, 34.629 katom-step/s
99.2% CPU use with 1 MPI tasks x no OpenMP threads

MPI task timing breakdown:
Section |  min time  |  avg time  |  max time  |%varavg| %total
---------------------------------------------------------------
Pair    | 0.0027507  | 0.0027507  | 0.0027507  |   0.0 | 88.20
Neigh   | 0          | 0          | 0          |   0.0 |  0.00
Comm    | 2.417e-06  | 2.417e-06  | 2.417e-06  |   0.0 |  0.08
Output  | 0.00036346 | 0.00036346 | 0.00036346 |   0.0 | 11.65
Modify  | 1.208e-06  | 1.208e-06  | 1.208e-06  |   0.0 |  0.04
Other   |            | 9.59e-07   |            |       |  0.03

Nlocal:            108 ave         108 max         108 min
Histogram: 1 0 0 0 0 0 0 0 0 0
Nghost:           1117 ave        1117 max        1117 min
Histogram: 1 0 0 0 0 0 0 0 0 0
Neighs:              0 ave           0 max           0 min
Histogram: 1 0 0 0 0 0 0 0 0 0
FullNghs:        13114 ave       13114 max       13114 min
Histogram: 1 0 0 0 0 0 0 0 0 0

Total # of neighbors = 13114
Ave neighs/atom = 121.42593
Neighbor list builds = 0
Dangerous builds = 0
run 1
Per MPI rank memory allocation (min/avg/max) = 5.376 | 5.376 | 5.376 Mbytes
   Step          Temp          PotEng         KinEng         TotEng         Press     
       500   2080.1033     -1063.6752      28.769566     -1034.9056      34343.356    
       501   2073.7097     -1063.5511      28.681138     -1034.87        35358.23     
Loop time of 0.00301867 on 1 procs for 1 steps with 108 atoms

Performance: 28.622 ns/day, 0.839 hours/ns, 331.272 timesteps/s, 35.777 katom-step/s
98.1% CPU use with 1 MPI tasks x no OpenMP threads

MPI task timing breakdown:
Section |  min time  |  avg time  |  max time  |%varavg| %total
---------------------------------------------------------------
Pair    | 0.0030075  | 0.0030075  | 0.0030075  |   0.0 | 99.63
Neigh   | 0          | 0          | 0          |   0.0 |  0.00
Comm    | 2.833e-06  | 2.833e-06  | 2.833e-06  |   0.0 |  0.09
Output  | 2.208e-06  | 2.208e-06  | 2.208e-06  |   0.0 |  0.07
Modify  | 4.625e-06  | 4.625e-06  | 4.625e-06  |   0.0 |  0.15
Other   |            | 1.46e-06   |            |       |  0.05

Nlocal:            108 ave         108 max         108 min
Histogram: 1 0 0 0 0 0 0 0 0 0
Nghost:           1123 ave        1123 max        1123 min
Histogram: 1 0 0 0 0 0 0 0 0 0
Neighs:              0 ave           0 max           0 min
Histogram: 1 0 0 0 0 0 0 0 0 0
FullNghs:        13114 ave       13114 max       13114 min
Histogram: 1 0 0 0 0 0 0 0 0 0

Total # of neighbors = 13114
Ave neighs/atom = 121.42593
Neighbor list builds = 0
Dangerous builds = 0
run 1
Per MPI rank memory allocation (min/avg/max) = 5.376 | 5.376 | 5.376 Mbytes
   Step          Temp          PotEng         KinEng         TotEng         Press     
       501   2073.7097     -1063.5511      28.681138     -1034.87        35358.23     
       502   2064.5447     -1063.3894      28.554378     -1034.835       36201.882    
Loop time of 0.00313504 on 1 procs for 1 steps with 108 atoms

Performance: 27.559 ns/day, 0.871 hours/ns, 318.975 timesteps/s, 34.449 katom-step/s
99.1% CPU use with 1 MPI tasks x no OpenMP threads

MPI task timing breakdown:
Section |  min time  |  avg time  |  max time  |%varavg| %total
---------------------------------------------------------------
Pair    | 0.0031196  | 0.0031196  | 0.0031196  |   0.0 | 99.51
Neigh   | 0          | 0          | 0          |   0.0 |  0.00
Comm    | 3.459e-06  | 3.459e-06  | 3.459e-06  |   0.0 |  0.11
Output  | 5.708e-06  | 5.708e-06  | 5.708e-06  |   0.0 |  0.18
Modify  | 3.667e-06  | 3.667e-06  | 3.667e-06  |   0.0 |  0.12
Other   |            | 2.624e-06  |            |       |  0.08

Nlocal:            108 ave         108 max         108 min
Histogram: 1 0 0 0 0 0 0 0 0 0
Nghost:           1123 ave        1123 max        1123 min
Histogram: 1 0 0 0 0 0 0 0 0 0
Neighs:              0 ave           0 max           0 min
Histogram: 1 0 0 0 0 0 0 0 0 0
FullNghs:        13104 ave       13104 max       13104 min
Histogram: 1 0 0 0 0 0 0 0 0 0

Total # of neighbors = 13104
Ave neighs/atom = 121.33333
Neighbor list builds = 0
Dangerous builds = 0
