ITEM: TIMESTEP
0
ITEM: NUMBER OF ATOMS
12
ITEM: BOX BOUNDS xy xz yz pp pp pp
-8.8344296827430302e-01 5.1364755065543157e+00 0.0000000000000000e+00
0.0000000000000000e+00 5.1934133375444702e+00 -8.8344296827430302e-01
0.0000000000000000e+00 5.2461598045212767e+00 0.0000000000000000e+00
ITEM: ATOMS id type x y z fx fy fz
   1 1    0.79296805999999986    2.37891959000000019    3.71379300999999984   -0.00316117092052615   -0.05048968876322490    0.01147394023988380
   2 1    3.01834094000000119    4.97562677999999980    4.15544258999999983    0.00315855768151463   -0.05049412969451972   -0.01143432257003271
   3 1    3.46006344999999982    2.81449477000000003    1.53236422000000005    0.00315344061745215    0.05049055796960528   -0.01147334004343678
   4 1    1.23469005999999992    0.21778759000000000    1.09071465000000001   -0.00315725461741279    0.05049331000345925    0.01143374974960920
   5 2    1.43661056000000009    3.85624494000000029    5.13377423000000022   -0.05755898715128716    0.06195063195181220    0.19018501205177601
   6 2    2.37469844000000130    1.25953775999999995    2.73546187999999990    0.05757023631862154    0.06195130469016712   -0.19017682994331642
   7 2    2.81642043999999991    1.33716941999999994    0.11238300000000000    0.05755962582693023   -0.06195050160702344   -0.19018486012507380
   8 2    1.87833256000000004    3.93387661000000044    2.51069536000000060   -0.05756955794734786   -0.06195195820379938    0.19017662882017086
   9 2    0.04523848000000007    1.71776788000000002    1.81649659000000008   -0.32809291482844172   -0.04836828580484021   -0.01913732814676794
  10 2    4.64951502999999988    4.31447506000000036    0.80658229000000026    0.32807666657104445   -0.04838007789065503    0.01910704453724803
  11 2    4.20779251999999993    3.47564649000000037    3.42966065000000020    0.32809598454157529    0.04836669677301701    0.01913820168388972
  12 2   -0.39648402999999999    0.87893931000000014    4.43957494999999991   -0.32807462609211813    0.04838214057599632   -0.01910789625395504
ITEM: TIMESTEP
100
ITEM: NUMBER OF ATOMS
12
ITEM: BOX BOUNDS xy xz yz pp pp pp
-8.8344296827430302e-01 5.1364755065543157e+00 0.0000000000000000e+00
0.0000000000000000e+00 5.1934133375444702e+00 -8.8344296827430302e-01
0.0000000000000000e+00 5.2461598045212767e+00 0.0000000000000000e+00
ITEM: ATOMS id type x y z fx fy fz
   1 1    0.76679960438819883    2.35773240359521630    3.75134506894191455    1.50066827978425987   -0.22868799414053065   -0.90813344688718423
   2 1    3.05098808629274210    4.97140580110719910    4.13859740643265450   -0.25592940552144505   -0.32157043258448925    0.25599114659289957
   3 1    3.46438385562054485    2.82225473219415068    1.55925929374671179   -0.27290907702660805    0.34826894340236353   -0.23015835451695724
   4 1    1.22668424928638187    0.24158787146313759    1.04773536279716950    0.26022070028468658   -0.00484406528040893    0.30315981076404264
   5 2    2.29699412077435650    3.80284681855515494    0.03480738697539086    0.27596900970155591    0.67006909608264220    0.34320272801805951
   6 2    2.30225008876552151    1.38329302503852403    2.41968560825060264   -0.16149927038188536   -0.26107172695172653    1.38560868386265779
   7 2    2.19187961855335178    1.35553711500963869    5.11971771443417456   -0.79736026569359331    0.08830060018894376   -0.02964692170284074
   8 2    1.72585294284161539    4.09864730638741648    2.67309149296422000    0.65219743762676663   -0.32754748828859437    0.76419691353295094
   9 2   -0.12587638504836995    1.60641995923536762    1.91689647818136732    0.74628411190613164   -0.64100489526794657   -0.96134422738487102
  10 2    4.67597345987104873    4.32564976187622108    0.83281730343364924    0.17355110632127230   -0.48090881695398813   -0.57335925334868609
  11 2    4.20650479243769215    3.34566309930989503    3.48988358971703017   -1.53559361822810625    1.35009107073005818    0.21508473434294678
  12 2   -0.29261743240600002    0.78696581577575964    4.44615746993538874   -0.58559900877303628   -0.19109429093631780   -0.56460181327301651
ITEM: TIMESTEP
200
ITEM: NUMBER OF ATOMS
12
ITEM: BOX BOUNDS xy xz yz pp pp pp
-8.8344296827430302e-01 5.1364755065543157e+00 0.0000000000000000e+00
0.0000000000000000e+00 5.1934133375444702e+00 -8.8344296827430302e-01
0.0000000000000000e+00 5.2461598045212767e+00 0.0000000000000000e+00
ITEM: ATOMS id type x y z fx fy fz
   1 1    0.78609009905387695    2.39256701236020408    3.56811249602704939   -0.26654361832610984   -1.68614221583664436    0.54937744366813546
   2 1    2.99409321295151809    4.93278184572937395    4.24024893558055638    1.20244361832320390    0.99191126742955271    0.10578030801090019
   3 1    3.43807296018561193    2.88867253897229093    1.60134629410565332   -0.07947449817563079   -1.27349343314740682   -1.35341050820416209
   4 1    1.27007813572152450    0.17323772393208933    1.10162943974739269   -0.86432790672559268    1.74524264839658194   -0.53333939795985674
   5 2    2.34534696860476277    3.99705588894780384    0.15103384065556136    0.17423724561780940   -0.61955379013533607   -0.60540201554186623
   6 2    2.40555706296298766    1.20992349334649241    2.46754819654968660   -0.38832913298530553    0.48676153403174943   -0.22035904459275535
   7 2    2.17727305199303078    1.53269946673876012    4.94914550782830975   -1.16617853770391511    0.12168736996401246    1.25560768942824708
   8 2    1.87983688050544706    4.00056488140451805    2.75581833807737508   -1.53413367148254087   -0.83005122106245943   -0.26081455914643981
   9 2   -0.13534279500285226    1.64889930167499044    1.72290034789513347    1.23764288172731263   -0.22989069468883905    1.54418246059435349
  10 2    4.70139558009576941    4.27486794085923538    0.82654132895530907    0.33470655848152003   -0.58320417142909653    0.07916854662397491
  11 2    4.16106624833075944    3.34730452214174345    3.44966668342694494    0.71053933090211818    0.91087419403369219    0.59831180628099179
  12 2   -0.32522857736413741    0.75754039425564190    4.44975138560584238    0.63941773034712490    0.96585851244418386   -1.15910272916152324
ITEM: TIMESTEP
300
ITEM: NUMBER OF ATOMS
12
ITEM: BOX BOUNDS xy xz yz pp pp pp
-8.8344296827430302e-01 5.1364755065543157e+00 0.0000000000000000e+00
0.0000000000000000e+00 5.1934133375444702e+00 -8.8344296827430302e-01
0.0000000000000000e+00 5.2461598045212767e+00 0.0000000000000000e+00
ITEM: ATOMS id type x y z fx fy fz
   1 1    0.76921180227978891    2.31504650261828049    3.79087086349560076    1.38004858491158489    1.81038289757706483   -1.97752421299564007
   2 1    3.02483892341552929    4.98281148206681568    4.15227312778367619    0.10521041832060141   -1.01059973219794030   -0.32042588619258494
   3 1    3.45419640362587588    2.78637061318114121    1.48976986942565537    0.46943731636758768    0.31902488408581575    1.11660372337158798
   4 1    1.23060372159850906    0.31423305545084668    1.07068675268808744    0.08674402224592193   -2.25414631146831468    0.06344897990666420
   5 2    1.41333795098809301    3.64336786287716397    5.28667780846314184   -0.81330998004158017    0.69757767418308725   -1.13811690805923393
   6 2    2.39591857549607479    1.29306330163889482    2.57510212777641456    0.50367211832253800   -0.12895836266748517    1.37693068812664410
   7 2    2.90713644119782089    1.17601287296711865    0.08399555368449774   -0.40374597764308462    0.16218892165145787   -0.80629943247104918
   8 2    1.92565513560410517    3.96172909689952402    2.47166623563155596    0.56032952180170736    0.30724735161884986    1.36869174934668902
   9 2    0.07560307820597875    1.71180594136652475    1.79896310878924726   -1.07736260895521863    1.15645292673562983    0.39315549716062614
  10 2    4.64403768096492087    4.31447188853959851    0.82185331483260859    0.77831639813493836    0.78016917360175109   -0.80518367740331642
  11 2    4.37176731867735313    3.60282751299129078    3.39037006674142027   -0.14547372718217599   -0.92761313947677915    0.23032624099477306
  12 2   -0.41775014292930551    0.94059835125052405    4.43008888120152733   -1.44386608628282875   -0.91172628364314345    0.49839323821484016
ITEM: TIMESTEP
400
ITEM: NUMBER OF ATOMS
12
ITEM: BOX BOUNDS xy xz yz pp pp pp
-8.8344296827430302e-01 5.1364755065543157e+00 0.0000000000000000e+00
0.0000000000000000e+00 5.1934133375444702e+00 -8.8344296827430302e-01
0.0000000000000000e+00 5.2461598045212767e+00 0.0000000000000000e+00
ITEM: ATOMS id type x y z fx fy fz
   1 1    0.81745427110245272    2.44254413380086932    3.64890565738065487   -0.04767435312279744   -1.83199532165562862    0.83410232029817055
   2 1    3.01475274856757069    5.00765125872867323    4.17049042901563283    0.24935653771110000   -0.22590641343433057    0.02182863183683284
   3 1    3.49517467957977779    2.83852591996385017    1.57320138822126832   -0.25498742630409299   -2.01573719696087039   -1.03142757228972770
   4 1    1.17811346463178057    0.14171229382597955    1.08790176676417993    2.05429418873437530    1.51546420564760487   -0.39844968070123654
   5 2    1.34723386405062850    3.83810823432928805    5.22555343471299594    0.93114685949761378    0.20887012836804469    0.12288687426121830
   6 2    2.35331259485242583    1.12567648812829502    2.59951318411961818    0.27729125117603209    0.01635320224587414    0.14929945153699817
   7 2    1.99757976302811957    1.32351103427941652    5.17696344504436734    0.09065555687644455    0.69416887475009215    0.06475446418035520
   8 2    2.02154146006932223    3.83604347958273761    2.57281847407466691   -1.31333678909714391    0.65664232412953971    0.27393486686765434
   9 2   -0.02268002879771970    1.56986326799515363    1.89119459232337084   -0.83485945058029332    1.61857050160721849    0.13016056557933253
  10 2    4.68706429430660165    4.29995898471100446    0.94369274942084214   -1.43817151965256484   -0.57685063821438665   -1.08225515399493832
  11 2    4.16450227296418518    3.37677250394799966    3.46327227244977509    0.88009726857005277    0.55967551727496756    0.97166997553935408
  12 2   -0.41354369261204255    0.91725342425742107    4.48959510053639921   -0.59381212380872350   -0.61925518375811661   -0.05650474311402043
ITEM: TIMESTEP
500
ITEM: NUMBER OF ATOMS
12
ITEM: BOX BOUNDS xy xz yz pp pp pp
-8.8344296827430302e-01 5.1364755065543157e+00 0.0000000000000000e+00
0.0000000000000000e+00 5.1934133375444702e+00 -8.8344296827430302e-01
0.0000000000000000e+00 5.2461598045212767e+00 0.0000000000000000e+00
ITEM: ATOMS id type x y z fx fy fz
   1 1    0.71669225645904933    2.34748196471566972    3.63053562388860174    0.05544242034605018   -0.41323295200760901    0.76643842474983837
   2 1    3.04625647265639188    4.90208009031168856    4.22911569284051403   -0.48946778438906136    0.82505975043420698   -0.26140755316652231
   3 1    3.42658207818744476    2.87148754851851518    1.53517578034863278   -0.05120405912980364   -0.49048610766931455    0.44877203438017033
   4 1    1.35294898910317607    0.29685677990711212    1.07441655464886310   -1.95600649783477953   -1.51149238092090155    0.14222018659306301
   5 2    2.38465495098008873    3.84638807746119893   -0.05992091714536679   -0.21379820858801057    0.91869714640911093    0.29841256787272941
   6 2    2.31672213197483501    1.32780644365854328    2.54051493925263960   -0.50759857263228636    0.45700550659364281    0.90508981534088795
   7 2    2.03778269036872928    1.46816873449202712    5.26293927984171539   -0.36927151866012792   -0.70482102533410607   -1.25394115632052383
   8 2    1.72736835578650760    4.01775102001852691    2.58527653284263526    0.03500280960307611   -0.06498868713363071    1.08999989049477097
   9 2   -0.27084757426531147    1.49157748982736771    1.95334762355529024    2.21832172420339324    0.14881488159863832   -0.36626849046868626
  10 2    4.79314571149355562    4.22254039203258369    0.85842655339575724   -0.04893951324157302   -0.41327625289531172   -0.20746348456817115
  11 2    4.01276170582580516    3.30645008542788732    3.55436721110060638    1.02635589753648504   -0.60674784715949170   -0.03403459065195184
  12 2   -0.39574695551424138    0.74626290976045362    4.54706321085051623    0.30116330278665870    1.85546796808477232   -1.52781764425560418
