LAMMPS (27 Jun 2024)
OMP_NUM_THREADS environment is not set. Defaulting to 1 thread. (src/comm.cpp:98)
  using 1 OpenMP thread(s) per MPI task
# Localized thermostat simulation (mode 3)
# Generated by localized_thermostat

units metal
atom_style atomic
boundary p p p

read_data thermostat.data
Reading data file ...
  orthogonal box = (0 0 0) to (48.302314 50.197237 45.139088)
  2 by 2 by 2 MPI processor grid
  reading atoms ...
  4861 atoms
  read_data CPU = 0.027 seconds

neighbor 2.0 bin
neigh_modify every 1 delay 0 check yes

pair_style pod
pair_coeff * * HfO2_param.pod HfO2_coefficients.pod Hf O
**************** Begin of POD Potentials ****************
species: Hf O 
periodic boundary conditions: 1 1 1
number of environment clusters: 1
number of principal compoments: 2
inner cut-off radius: 1
outer cut-off radius: 5.5
cut-off function type: 1
gaussian_exponents: 
polynomial_degrees: 
bessel polynomial degree: 4
inverse polynomial degree: 8
one-body potential: 1
two-body radial basis functions: 8
three-body radial basis functions: 6
three-body angular degree: 4
four-body radial basis functions: 4
four-body angular degree: 2
five-body radial basis functions: 4
five-body angular degree: 2
six-body radial basis functions: 3
six-body angular degree: 2
seven-body radial basis functions: 0
seven-body angular degree: 0
number of local descriptors per element for one-body potential: 1
number of local descriptors per element for two-body potential: 16
number of local descriptors per element for three-body potential: 90
number of local descriptors per element for four-body potential: 64
number of local descriptors per element for five-body potential: 192
number of local descriptors per element for six-body potential: 198
number of local descriptors per element for seven-body potential: 0
number of local descriptors per element for all potentials: 561
number of global descriptors: 1122
**************** End of POD Potentials ****************

**************** Begin of Model Coefficients ****************
total number of coefficients for POD potential: 1122
total number of elements for PCA projection matrix: 0
total number of elements for PCA centroids: 0
**************** End of Model Coefficients ****************


# --- Group definitions (hybrid: ID-based mobile, frozen = rest) ---
group mobile id 809 1093 1096 1097 1098 1100 1101 1104 1129 1130 1132 1133 1134 1135 1136 1137 1138 1140 1141 1165 1166 1169 1170 1172 1173 1174 1384 1385 1388 1392 1417 1418 1419 1420 1421 1422 1423 1424 1425 1426 1427 1428 1429 1432 1449 1450 1451 1452 1453 1454 1455 1456 1457 1458 1459 1460 1461 1462 1463 1464 1465 1466 1468 1485 1486 1489 1490 1491 1492 1493 1494 1495 1496 1497 1498 1499 1500 1501 1525 1526 1529 1530 1533 1534 1705 1706 1707 1708 1709 1710 1711 1712 1713 1715 1716 1720 1737 1738 1739 1740 1741 1742 1743 1744 1745 1746 1747 1748 1749 1750 1751 1752 1753 1754 1755 1756 1773 1774 1775 1776 1777 1778 1779 1780 1781 1782 1783 1784 1785 1786 1787 1788 1789 1790 1791 1792 1793 1809 1810 1811 1812 1813 1814 1815 1816 1817 1818 1819 1820 1821 1822 1823 1824 1825 1826 1828 1846 1849 1850 1853 1854 1855 1856 1857 1858 1861 2027 2028 2029 2030 2031 2032 2033 2034 2035 2036 2037 2038 2039 2040 2044 2061 2062 2063 2064 2065 2066 2067 2068 2069 2070 2071 2072 2073 2074 2075 2076 2077 2078 2079 2080 2084 2094 2095 2097 2098 2099 2100 2101 2102 2103 2104 2105 2106 2107 2108 2109 2110 2111 2112 2113 2114 2115 2116 2117 2120 2130 2133 2134 2135 2136 2137 2138 2139 2140 2141 2142 2143 2144 2145 2146 2147 2148 2149 2150 2151 2152 2153 2170 2173 2174 2175 2176 2177 2178 2179 2180 2181 2182 2183 2184 2185 2186 2324 2351 2352 2353 2354 2355 2356 2357 2358 2359 2360 2361 2362 2363 2364 2368 2383 2385 2386 2387 2388 2389 2390 2391 2392 2393 2394 2395 2396 2397 2398 2399 2400 2401 2402 2403 2404 2408 2418 2419 2421 2422 2423 2424 2425 2426 2427 2428 2429 2430 2431 2432 2433 2434 2435 2436 2437 2438 2439 2440 2441 2444 2454 2457 2458 2459 2460 2461 2462 2463 2464 2465 2466 2467 2468 2469 2470 2471 2472 2473 2474 2475 2476 2477 2494 2497 2498 2499 2500 2501 2502 2503 2504 2505 2506 2507 2508 2509 2510 2538 2675 2676 2677 2678 2679 2680 2681 2682 2683 2684 2685 2686 2687 2688 2692 2707 2709 2710 2711 2712 2713 2714 2715 2716 2717 2718 2719 2720 2721 2722 2723 2724 2725 2726 2727 2728 2732 2742 2743 2745 2746 2747 2748 2749 2750 2751 2752 2753 2754 2755 2756 2757 2758 2759 2760 2761 2762 2763 2764 2765 2768 2778 2781 2782 2783 2784 2785 2786 2787 2788 2789 2790 2791 2792 2793 2794 2795 2796 2797 2798 2799 2800 2818 2821 2822 2823 2824 2825 2826 2827 2828 2829 2830 2831 2832 2833 2834 2999 3002 3003 3004 3005 3006 3007 3008 3009 3011 3012 3016 3034 3035 3036 3037 3038 3039 3040 3041 3042 3043 3044 3045 3046 3047 3048 3049 3050 3051 3052 3067 3069 3070 3071 3072 3073 3074 3075 3076 3077 3078 3079 3080 3081 3082 3083 3084 3085 3086 3087 3088 3105 3106 3107 3108 3109 3110 3111 3112 3113 3114 3115 3116 3117 3118 3119 3120 3121 3122 3123 3124 3142 3145 3146 3147 3149 3150 3151 3152 3153 3154 3155 3327 3328 3331 3332 3335 3336 3359 3361 3362 3363 3364 3365 3366 3367 3368 3369 3370 3371 3372 3375 3376 3394 3395 3396 3397 3398 3399 3400 3401 3402 3403 3404 3405 3406 3407 3408 3409 3410 3411 3412 3430 3431 3433 3434 3435 3436 3437 3438 3439 3440 3441 3442 3443 3444 3470 3474 3475 3478 3687 3688 3690 3691 3692 3695 3696 3719 3722 3723 3724 3725 3726 3727 3728 3729 3730 3731 3732 3758 3759 3762 3763 3764 3766 3767 4047 4051 4861
630 atoms in group mobile
group frozen subtract all mobile
4231 atoms in group frozen

# --- Region definitions ---
region reg_core sphere 24.14 25.07 22.58 5.0 side in
region reg_shell1_inner sphere 24.14 25.07 22.58 5.0 side out
region reg_shell1_outer sphere 24.14 25.07 22.58 7.5 side in
region reg_shell1 intersect 2 reg_shell1_inner reg_shell1_outer
region reg_shell2_inner sphere 24.14 25.07 22.58 7.5 side out
region reg_shell2_outer sphere 24.14 25.07 22.58 10.0 side in
region reg_shell2 intersect 2 reg_shell2_inner reg_shell2_outer
region reg_shell3_inner sphere 24.14 25.07 22.58 10.0 side out
region reg_shell3_outer sphere 24.14 25.07 22.58 12.5 side in
region reg_shell3 intersect 2 reg_shell3_inner reg_shell3_outer
region reg_shell4_inner sphere 24.14 25.07 22.58 12.5 side out
region reg_shell4_outer sphere 24.14 25.07 22.58 15.0 side in
region reg_shell4 intersect 2 reg_shell4_inner reg_shell4_outer

# --- Dynamic groups (re-evaluated every N steps) ---
group dyn_core dynamic mobile region reg_core every 100
dynamic group dyn_core defined
group dyn_shell1 dynamic mobile region reg_shell1 every 100
dynamic group dyn_shell1 defined
group dyn_shell2 dynamic mobile region reg_shell2 every 100
dynamic group dyn_shell2 defined
group dyn_shell3 dynamic mobile region reg_shell3 every 100
dynamic group dyn_shell3 defined
group dyn_shell4 dynamic mobile region reg_shell4 every 100
dynamic group dyn_shell4 defined

# --- Frozen atoms ---
velocity frozen set 0.0 0.0 0.0
fix freeze frozen setforce 0.0 0.0 0.0
# neigh_modify exclude omitted (crashes with pair_style pod)

# --- Time integration (must exist before run 0) ---
fix integ mobile nve
timestep 0.001

# --- Populate dynamic groups via run 0 ---
run 0

CITE-CITE-CITE-CITE-CITE-CITE-CITE-CITE-CITE-CITE-CITE-CITE-CITE

Your simulation uses code contributions which should be cited:

- Type Label Framework: https://doi.org/10.1021/acs.jpcb.3c08419

@Article{Gissinger24,
 author = {Jacob R. Gissinger, Ilia Nikiforov, Yaser Afshar, Brendon Waters, Moon-ki Choi, Daniel S. Karls, Alexander Stukowski, Wonpil Im, Hendrik Heinz, Axel Kohlmeyer, and Ellad B. Tadmor},
 title = {Type Label Framework for Bonded Force Fields in LAMMPS},
 journal = {J. Phys. Chem. B},
 year =    2024,
 volume =  128,
 number =  13,
 pages =   {3282–-3297}
}

CITE-CITE-CITE-CITE-CITE-CITE-CITE-CITE-CITE-CITE-CITE-CITE-CITE

Neighbor list info ...
  update: every = 1 steps, delay = 0 steps, check = yes
  max neighbors/atom: 2000, page size: 100000
  master list distance cutoff = 7.5
  ghost atom cutoff = 7.5
  binsize = 3.75, bins = 13 14 13
  1 neighbor lists, perpetual/occasional/extra = 1 0 0
  (1) pair pod, perpetual
      attributes: full, newton on
      pair build: full/bin/atomonly
      stencil: full/bin/3d
      bin: standard
Per MPI rank memory allocation (min/avg/max) = 3.143 | 3.143 | 3.143 Mbytes
   Step          Temp          E_pair         E_mol          TotEng         Press     
         0   0             -27092.719      0             -27092.719     -3400.771     
Loop time of 8.58463e-06 on 8 procs for 0 steps with 4861 atoms

88.8% CPU use with 8 MPI tasks x 1 OpenMP threads

MPI task timing breakdown:
Section |  min time  |  avg time  |  max time  |%varavg| %total
---------------------------------------------------------------
Pair    | 0          | 0          | 0          |   0.0 |  0.00
Neigh   | 0          | 0          | 0          |   0.0 |  0.00
Comm    | 0          | 0          | 0          |   0.0 |  0.00
Output  | 0          | 0          | 0          |   0.0 |  0.00
Modify  | 0          | 0          | 0          |   0.0 |  0.00
Other   |            | 8.585e-06  |            |       |100.00

Nlocal:        607.625 ave         609 max         607 min
Histogram: 4 0 0 0 0 3 0 0 0 1
Nghost:        2093.38 ave        2094 max        2092 min
Histogram: 1 0 0 0 0 3 0 0 0 4
Neighs:              0 ave           0 max           0 min
Histogram: 8 0 0 0 0 0 0 0 0 0
FullNghs:        41561 ave       41679 max       41509 min
Histogram: 2 2 0 2 0 1 0 0 0 1

Total # of neighbors = 332488
Ave neighs/atom = 68.399095
Neighbor list builds = 0
Dangerous builds = 0

# --- Per-zone velocity initialization ---
velocity dyn_core create 500.0 38500 dist gaussian
velocity dyn_shell1 create 450.0 38501 dist gaussian
velocity dyn_shell2 create 350.0 38502 dist gaussian
velocity dyn_shell3 create 250.0 38503 dist gaussian
velocity dyn_shell4 create 150.0 38504 dist gaussian

# --- Langevin thermostats ---
fix lang_core dyn_core langevin 500.0 500.0 0.1 38600
fix lang_dyn_shell1 dyn_shell1 langevin 450.0 450.0 0.1 38601
fix lang_dyn_shell2 dyn_shell2 langevin 350.0 350.0 0.1 38602
fix lang_dyn_shell3 dyn_shell3 langevin 250.0 250.0 0.1 38603
fix lang_dyn_shell4 dyn_shell4 langevin 150.0 150.0 0.1 38604

# --- Diagnostics ---
shell mkdir diagnostics
compute ke_per_atom all ke/atom
dump diag_traj mobile custom 500 diagnostics/ke_trajectory.lammpstrj id type x y z c_ke_per_atom
dump_modify diag_traj sort id format line "%d %d %14.8f %14.8f %14.8f %14.8e"

# --- Per-zone temperature computes ---
compute temp_core dyn_core temp
compute temp_dyn_shell1 dyn_shell1 temp
compute temp_dyn_shell2 dyn_shell2 temp
compute temp_dyn_shell3 dyn_shell3 temp
compute temp_dyn_shell4 dyn_shell4 temp

thermo 100
thermo_style custom step temp c_temp_core c_temp_dyn_shell1 c_temp_dyn_shell2 c_temp_dyn_shell3 c_temp_dyn_shell4 etotal pe ke press

run 5000
Per MPI rank memory allocation (min/avg/max) = 3.158 | 3.158 | 3.158 Mbytes
   Step          Temp       c_temp_core   c_temp_dyn_shell1 c_temp_dyn_shell2 c_temp_dyn_shell3 c_temp_dyn_shell4     TotEng         PotEng         KinEng         Press     
         0   32.067901      500            450            350            250            150           -27072.574     -27092.719      20.145194     -3204.1681    
       100   21.978542      385.62271      336.34228      237.89779      162.92323      98.904389     -27061.017     -27074.824      13.807015     -2687.1026    
       200   29.771742      459.23236      411.21959      301.87273      236.55634      146.1209      -27055.269     -27073.971      18.702736     -2613.1549    
       300   31.345446      523.264        506.48577      316.87387      226.81944      153.20045     -27053.17      -27072.862      19.691344     -2614.3706    
       400   29.700795      523.39802      442.40401      331.59611      204.87521      145.00938     -27054.081     -27072.739      18.658167     -2581.6446    
       500   32.058717      675.77103      410.20121      345.59522      241.89602      150.50109     -27053.114     -27073.253      20.139424     -2613.6208    
       600   31.383708      515.35745      393.79195      355.0357       237.98826      150.65264     -27052.101     -27071.816      19.71538      -2514.7949    
       700   32.230291      510.82216      414.74783      341.57682      253.13549      160.90421     -27051.482     -27071.729      20.247208     -2558.4199    
       800   34.220912      593.9172       405.4356       378.76733      280.70437      158.06785     -27050.949     -27072.446      21.497724     -2540.8717    
       900   31.91984       440.76435      453.2032       335.48553      231.70871      168.38809     -27051.334     -27071.386      20.052181     -2543.7093    
      1000   32.811916      396.01474      471.55378      330.44127      267.14089      160.46609     -27051.866     -27072.478      20.612587     -2539.8723    
      1100   28.960746      340.65322      443.94323      294.66979      221.30839      148.41572     -27054.794     -27072.987      18.193265     -2615.5258    
      1200   33.413145      464.89773      531.54816      372.72503      238.7547       157.82748     -27051.933     -27072.923      20.990281     -2583.2368    
      1300   32.311252      401.25028      499.36274      337.62448      239.76371      163.24405     -27051.975     -27072.273      20.298068     -2554.1189    
      1400   32.769013      419.34944      451.86317      385.96103      226.16216      169.10419     -27051.581     -27072.166      20.585635     -2567.6385    
      1500   31.54992       533.69433      455.8423       337.27857      239.10598      147.41119     -27052.826     -27072.646      19.819795     -2569.5881    
      1600   32.113281      364.08357      497.56917      349.58929      250.48835      152.0856      -27052.923     -27073.097      20.173702     -2609.6467    
      1700   31.263584      499.19176      423.72041      389.31476      233.82362      133.0753      -27051.823     -27071.463      19.639918     -2520.7364    
      1800   33.880969      650.72153      454.77676      373.55932      263.06133      152.47762     -27050.641     -27071.925      21.28417      -2542.9523    
      1900   32.394711      575.73348      371.68279      343.49253      265.47206      154.4489      -27051.077     -27071.427      20.350497     -2544.2369    
      2000   30.829537      409.49439      365.2692       322.68263      256.60585      155.76267     -27051.972     -27071.339      19.367248     -2544.9753    
      2100   32.904776      607.23719      359.88348      357.03291      266.22521      159.53304     -27051.288     -27071.959      20.670922     -2528.3593    
      2200   32.157937      505.93004      470.73076      312.70512      243.22588      163.71706     -27051.434     -27071.636      20.201754     -2520.0082    
      2300   31.476241      480.57792      357.25384      318.3233       256.976        167.44996     -27051.684     -27071.457      19.77351      -2521.0543    
      2400   32.161358      505.46687      503.07666      339.0626       226.9243       159.45342     -27051.938     -27072.142      20.203903     -2586.6949    
      2500   32.382837      529.21339      433.96628      341.84518      253.96771      156.46551     -27052.007     -27072.35       20.343038     -2509.2128    
      2600   32.658221      519.28202      423.14806      331.66495      280.38096      149.10967     -27053.126     -27073.642      20.516035     -2615.3166    
      2700   31.519794      599.87144      379.48614      324.82848      242.43511      160.45217     -27051.946     -27071.747      19.80087      -2535.9532    
      2800   33.240521      431.78796      501.3406       371.10016      248.1715       158.31534     -27052.539     -27073.42       20.881838     -2638.718     
      2900   31.538766      441.47719      466.98937      312.50172      226.3464       172.12422     -27053.062     -27072.875      19.812789     -2530.4771    
      3000   31.705172      433.80985      434.37124      357.85519      224.60566      162.09592     -27052.797     -27072.715      19.917326     -2576.0568    
      3100   32.856185      568.64869      422.33085      351.43957      247.78818      163.26894     -27051.112     -27071.753      20.640397     -2540.2649    
      3200   33.022423      439.12979      457.44907      377.39188      256.19375      151.62921     -27050.982     -27071.727      20.744828     -2526.2016    
      3300   31.738272      486.23607      451.42928      312.7433       258.42546      152.3729      -27051.543     -27071.481      19.938119     -2524.1859    
      3400   32.503101      454.71213      452.85835      357.17945      262.02195      148.06264     -27052.526     -27072.945      20.418588     -2573.6668    
      3500   33.407044      643.70926      532.39399      322.82781      264.21709      148.46135     -27051.272     -27072.258      20.986449     -2578.5634    
      3600   33.494506      583.82287      413.99056      357.2001       246.70429      169.99407     -27050.183     -27071.224      21.041393     -2495.1745    
      3700   33.761022      569.34589      506.98423      350.3609       241.08445      165.22579     -27050.994     -27072.203      21.208819     -2520.5787    
      3800   33.189014      570.60853      439.79689      341.10325      278.62876      149.41791     -27052.579     -27073.429      20.849482     -2615.449     
      3900   32.830334      511.46168      474.73675      323.81417      259.61817      161.45028     -27051.239     -27071.863      20.624157     -2530.6844    
      4000   33.66605       620.52129      412.24755      375.02305      270.22041      154.54351     -27050.413     -27071.563      21.149158     -2525.5273    
      4100   31.37815       445.00161      370.39719      349.39121      242.80016      162.7855      -27052.166     -27071.878      19.711889     -2573.6829    
      4200   33.476716      726.63715      383.19487      338.73438      283.27687      157.64463     -27052.055     -27073.085      21.030217     -2556.3393    
      4300   33.049891      511.20111      469.03897      380.86346      232.4803       162.31028     -27051.509     -27072.272      20.762084     -2550.7927    
      4400   34.574816      647.9102       429.86029      369.97634      278.44912      160.10075     -27050.597     -27072.317      21.720048     -2537.9674    
      4500   32.260008      421.1175       413.60862      353.4052       256.93802      160.94924     -27052.903     -27073.169      20.265876     -2591.426     
      4600   30.469905      432.34153      409.97272      319.95386      237.97789      153.56846     -27053.022     -27072.163      19.141326     -2571.2548    
      4700   33.464058      408.81965      476.71682      358.28212      251.1375       173.04114     -27051.588     -27072.61       21.022265     -2556.3583    
      4800   32.333747      485.34641      431.8351       319.56864      277.16526      151.94965     -27051.879     -27072.192      20.312199     -2582.145     
      4900   33.828868      532.80483      524.70805      356.55536      256.20015      157.83122     -27051.126     -27072.378      21.25144      -2498.0197    
      5000   32.59761       473.13251      504.0593       354.68093      244.99911      148.91095     -27051.244     -27071.722      20.477959     -2536.0719    
Loop time of 281.525 on 8 procs for 5000 steps with 4861 atoms

Performance: 1.535 ns/day, 15.640 hours/ns, 17.760 timesteps/s, 86.333 katom-step/s
99.9% CPU use with 8 MPI tasks x 1 OpenMP threads

MPI task timing breakdown:
Section |  min time  |  avg time  |  max time  |%varavg| %total
---------------------------------------------------------------
Pair    | 276.06     | 277.09     | 279.24     |   6.4 | 98.42
Neigh   | 0          | 0          | 0          |   0.0 |  0.00
Comm    | 2.07       | 4.2167     | 5.2364     |  51.6 |  1.50
Output  | 0.013371   | 0.016139   | 0.017009   |   0.9 |  0.01
Modify  | 0.087526   | 0.097045   | 0.1137     |   2.7 |  0.03
Other   |            | 0.108      |            |       |  0.04

Nlocal:        607.625 ave         609 max         607 min
Histogram: 4 0 0 0 0 3 0 0 0 1
Nghost:        2093.38 ave        2094 max        2092 min
Histogram: 1 0 0 0 0 3 0 0 0 4
Neighs:              0 ave           0 max           0 min
Histogram: 8 0 0 0 0 0 0 0 0 0
FullNghs:        41561 ave       41679 max       41509 min
Histogram: 2 2 0 2 0 1 0 0 0 1

Total # of neighbors = 332488
Ave neighs/atom = 68.399095
Neighbor list builds = 0
Dangerous builds = 0
Total wall time: 0:04:41
