108
 Atoms. Timestep: 0
1    1.9498426099999999    1.6123894800000000    2.2463115000000000
1    3.2310994800000001    7.2917578000000001   10.6101818899999998
1    5.0867491899999999    5.3743590899999996    2.2430686899999999
1    8.9265713699999996    5.1206595400000001    7.8247845199999997
1    0.2592721000000000    7.0133755899999999    5.3305418199999997
1   10.7365987599999997   10.8800927800000000   10.6153213300000004
1    7.1881782400000001    3.5480399000000000    5.1419050200000003
1    7.2680072800000000    7.1069656900000000    5.4505338700000001
1    1.6494264599999999    5.2833683000000002    2.6433772400000000
1   10.7283949100000005    3.2646578100000001    5.3122076399999996
1   10.8235741700000005    3.6351975099999998    0.1936622900000000
1    1.9354248400000000    5.1519876800000004    7.7933675300000003
1    8.9461627799999999    9.0473408899999992    8.0078490599999999
1    1.7098071600000000    1.6894044600000000    7.9303547200000004
1    7.3893707199999996    7.2870110099999996   10.4758578999999994
1    8.7307771299999999    9.0393448700000008    2.9513383800000002
1    5.0789946400000003    8.9861253300000001    2.4193840299999998
1    5.4426058800000003    9.3071524599999993    7.9839223300000004
1   10.9507573300000001   10.7516530699999997    5.3004673799999997
1    3.5276752199999999    3.4735595899999998    5.1816768299999998
1   10.9538038699999998    7.2940740100000001   10.3258917399999994
1    1.6456279000000000    9.0987234299999997    7.9318484199999997
1    7.2406413799999996    3.7825271200000001    0.0748470800000000
1    8.9499556299999998    5.4080370699999998    2.6872656600000000
1    3.8236803699999999    6.9904107199999999    4.8131646100000003
1    3.7737331799999998    0.0466739800000000    0.0220746300000000
1    7.1999626299999999    0.0728454600000000    5.2426781499999997
1    5.6696258100000003    1.6242438699999999    2.6256736900000002
1    5.3494679300000003    1.7250430200000000    7.5813982700000002
1    1.4256022800000001    8.9866387299999992    2.5796010100000002
1    3.3299887699999999   10.9341262399999994    5.2506655200000001
1    3.7357748000000002    3.6106027200000002   10.2165931000000008
1    7.1817182600000002   10.9535638199999994   10.5472857399999995
1    9.0363334999999996    1.7914524800000000    2.5222215200000000
1    5.4428051599999998    5.4758693899999997    7.8838400899999996
1    9.0497654500000007    1.7001676400000001    7.7713846300000000
2   10.5057749000000005    9.5845480799999994    1.6476423200000001
2    5.0698647899999996    7.1086391100000004    3.3652439699999999
2   10.8249983400000005    5.5721666000000001    4.0577155600000001
2   10.5201266100000002    1.7316611000000000    4.2294791399999996
2    1.7629813400000001   10.8695582599999998    3.8848047999999999
2    1.7024185500000000    0.0846790300000000    1.1687234900000001
2    2.1226030599999999    3.9810609000000001    0.6740873500000000
2    0.4495063800000000    1.9355864400000000    9.7257516200000005
2    1.7441040500000000   10.8285213500000008    8.9739178099999997
2    1.7574875700000001   10.4756398799999992    6.2722654799999997
2   10.9542293999999991    1.8100072300000001    6.7498245399999997
2    1.8843236500000000    3.3871044800000001    3.3237903400000000
2    1.4719650000000000    7.5332583900000003    0.9597057000000000
2    1.8063053099999999    7.1928590899999998    8.9430213199999997
2   10.7286291499999997    2.2867134199999999    1.6239633499999999
2    3.7478391100000001    5.1082562500000002    6.4553532999999996
2    3.5104206200000001    1.6528777100000001    6.7340960599999997
2    5.3909712299999999    3.5057395499999999    8.6978579099999997
2   10.8328709900000000    5.2844045199999998    1.4801322500000000
2    2.3622152700000001    7.5195828899999997    5.9504287099999997
2   10.8529835800000001    8.6150234799999996    6.8946615600000003
2    3.8762220599999999    1.6630748900000001    4.1044106700000000
2    5.8673867599999996   10.6716270499999997    3.3763120500000001
2    5.5116577099999997   10.6540145099999997    0.7522161400000000
2    3.9002888900000001    1.6740566400000001    1.6405635100000000
2    3.6148129999999998    1.6211643600000001    9.5406527899999993
2    5.7888704700000000    0.0107577000000000    8.8401978700000008
2   10.8968633500000003    9.1563911000000004    9.6441568300000000
2    3.4844188500000000    5.0834485799999998    3.7930377300000000
2    5.5925345699999998    3.3697822799999999    3.3712241600000001
2    5.3253816100000000    4.1550901700000002    0.5425526300000000
2    8.9840330700000006    7.0992439000000003    6.2406166699999996
2    3.5141731500000000    5.4887050000000004    9.1911944400000003
2    5.3005107200000001    3.7454195800000001    6.0235617599999998
2   10.9428808499999999    5.4587485600000001    9.1918897899999994
2    9.1598810299999993    0.0837115100000000    6.4382472000000002
2    1.7347139899999999    3.5966836700000000    6.2946254899999996
2    6.6201868800000003    1.9379128400000001    0.9569061200000000
2    9.0192770899999992    0.7570895100000000    0.8552598300000001
2    7.3258765400000003    8.7171040400000006    4.3839670799999997
2    7.5008020100000001    1.9078092600000001    3.9086825300000001
2    3.5114363499999999    9.5687969699999993    7.2567654399999997
2    8.9451281999999992    7.2605082200000002    9.0573037999999997
2    7.3484578400000000    1.7218183400000000    9.3133880799999993
2    7.7142563300000004    9.0940986899999992    9.6450297799999998
2    5.8448564000000003    7.2782907999999997    8.6964975100000004
2    9.0571913199999994    7.2096918800000003    3.6427283600000000
2    5.1491348400000003    7.4112087700000000    6.1715991800000003
2    7.3006592200000000    8.9426611299999994    1.4384127900000001
2    9.0891076799999997    7.3007725099999998    0.6677890300000000
2    7.6362253999999998    5.2474180500000003    9.4663071900000002
2    4.0345408599999999    8.9785132099999991    9.6397276099999996
2    9.3238728500000008   10.8999822999999996    9.0311523099999995
2    7.2296911899999996    5.1815925399999996    6.8325191099999998
2    5.4810941900000003    0.4163562700000000    5.9070828000000004
2    0.4158410100000000    5.6138053200000000    6.4924396900000003
2   10.8613636099999997    9.2070802399999998    4.0367162700000003
2    1.5810151100000001    7.3236430500000003    3.4513526899999998
2    3.9574907100000001    9.0638144399999998    4.2112619899999997
2    3.2360449099999999    5.9970761100000001    1.5488692500000001
2    5.2545450400000000    7.1741711099999996    0.8439352700000000
2    9.1459865199999992   10.8676504900000008    3.5999253800000002
2    9.1962395000000008    3.3834953600000000    9.0509243799999997
2    7.1961840099999996    5.9043847300000003    1.6130177100000000
2    8.7533348699999998    3.6848508700000000    1.3186781700000001
2    9.0494758799999993    3.5659999700000000    3.5588294199999999
2    7.1367621699999999    5.2613336000000004    4.5414043599999996
2    3.2418811700000001    9.3051311900000009    1.6329740900000000
2    9.1155543699999999    3.4867889600000002    6.2457008399999996
2    7.2934387799999998    1.7093592799999999    6.7606757899999996
2    2.1277929200000001    3.5278868900000000    8.7864617900000006
2    6.9259656700000001    9.2839186199999997    6.8249149100000004
108
 Atoms. Timestep: 50
1    1.8755919579932452    1.6602614310776429    2.3970139239853245
1    3.4948323677305715    7.2453385868143938   10.5291178727253811
1    5.0482921272993755    5.2604865400776424    2.3199709833936990
1    9.0862154212399151    5.3628077832227135    7.9453351968345265
1    0.1031302406324450    7.0704320363655739    5.4247285391217313
1   10.7190023816223476   10.9047398741608319    0.0513561311715278
1    7.2605451154984140    3.3842817035923169    5.0122251751480578
1    7.3521190243665533    7.1123106468531034    5.5005461598517771
1    1.6600609312180155    5.2558851612098936    2.7387889479544199
1   10.4990293682201550    3.4906054778303983    5.0596068574324313
1   10.8946485274201432    3.4534575325676626    0.1264885152223963
1    1.7995138323841799    5.2649948808754017    7.5398442964135652
1    9.0429801099843257    9.0483012788042902    8.2338059706048803
1    1.9280480473837407    1.8035596401419345    7.9851264295076012
1    7.1790564828740138    7.2474919143984762   10.5319111976344093
1    8.7146925553312879    8.8703956015675249    2.9358796205816788
1    5.2965069603109258    9.0059210224013118    2.5559635294993424
1    5.4690842027367195    9.1230052499744581    7.7602658261203539
1    0.0882723043582043   10.7171614657184389    5.0647531859386863
1    3.5866127430411980    3.5822405194586944    5.3015140785819765
1   10.6894407584991509    7.0137942838550362   10.2362565000904819
1    1.7703998238579206    9.0984854368688044    7.9252609163593375
1    7.3390632013910109    3.6466068756203374    0.0069660746742385
1    8.9795301240165450    5.4871733247341483    2.2544048312130225
1    3.7986718353965685    7.2585974591249860    4.8005961458323316
1    3.6937161311430038    0.0304317184111370   10.5767367461911004
1    7.2842629769474199   10.8116393565755029    5.1578917929578312
1    5.3986741839527221    1.5135921564646282    2.7527553989692963
1    5.4312173084696509    1.8870176838453723    7.8617551820990581
1    1.4670782556758828    9.1329635851957178    2.4200760869928790
1    3.5299434270314229   10.8000714846888837    5.1717930990216372
1    3.6346654650061327    3.7665497745885608   10.0514101451322073
1    7.2187087561568930   10.9288397305457892    0.1084319303217327
1    9.0604354357313550    1.8122122920485322    2.5246883058428518
1    5.3671858881511829    5.5630977870227811    7.8696879825260586
1    9.0956490551075095    1.7540948754937884    7.8719507874033212
2   10.4287056936082756    9.6831956114993840    1.8688088686735582
2    5.1503702512394387    7.2312519719188249    3.4382329714165905
2    0.2306341704562764    4.9820017158557883    4.2128569758233958
2   10.5761561265877226    1.5297868468771842    4.3891899776556711
2    1.7155771427595159   10.8427120400189541    3.6350455005472169
2    1.7204387300288813   10.8031033946546184    0.7283008132271466
2    1.8365294570484918    3.4889985531041461    0.9570804933978017
2    0.3193887439894385    1.7601577098428491    9.8696637816342729
2    1.8094366262454227   10.8718991328983279    8.9867503329272100
2    1.8260220916300860   11.0237727717834897    6.1432177947930269
2    0.0272746471781267    2.2933990505719195    7.3498728692796096
2    2.0337520786564252    3.3576158193627932    3.7053174044115837
2    1.3576393057477951    7.8355587156819277    0.6870188672311575
2    1.6486263288216445    7.0492467430001557    8.8707519575877942
2   10.7491645409459089    1.7166094742103912    1.7072900389527290
2    3.8906671741292342    5.3285135775704564    6.7520214589300664
2    3.6450749366693316    1.7506278131445150    6.7718247228736690
2    5.1612233102720078    3.7302361829153297    8.5195232476037042
2   11.0775892429558329    5.3388336073824769    1.5419955573062507
2    1.9532287862050239    7.0247093905369233    6.2844244780555032
2   10.7991737627014803    9.0964285083780112    7.0722294841265585
2    3.6916528994825120    1.5475303114376426    4.0368526828780542
2    5.5959681620361765   10.7349637552631396    3.8161892792354610
2    5.5256126559572261   11.0394305961245518    1.1888028726403570
2    3.5900021325568621    1.8754990921577457    1.3604516084793010
2    3.6145683442894212    1.8353988087066684    9.2839821341923194
2    5.4971738137703277    0.2132841965186143    9.4218806503255728
2   10.3703910769179863    9.0749283082148295    9.7740168135671883
2    3.4901151908717050    5.3491493843441997    4.2763584463082971
2    5.3352169288163571    3.4664771352373243    3.4884805339807521
2    5.1874702962129415    3.9449351432738622    0.7718962516867880
2    9.2025795935974557    6.8718914429304370    6.3525437690311382
2    3.7598606268825674    5.6802228947929230    9.2891132176160713
2    5.3193617561863205    3.1692943503980100    5.9619538807312997
2   10.8337418142109847    5.1959513319682671    9.5391809512158439
2    9.3803101585000146    0.1895108315466094    6.0395262125778855
2    1.7316655389830553    3.6377637249898669    6.2425063819499069
2    7.1998566816715428    2.0044903265597251    1.6524036920948844
2    8.9723944816138346    0.5124139665183266    1.0807462393054408
2    7.1371332266505965    8.7876886642870407    4.3999815441236372
2    7.0842288926216428    1.8032176550240195    3.9066200030723692
2    3.5052507783568232    8.8750375420107392    7.1511687025423445
2    9.0330151911548988    7.1964791536313868    9.0053587382488409
2    7.1422777611902779    2.4327161504311037    9.0097179519733199
2    7.0412374142041623    9.2850908872866427    9.4331300539369867
2    5.8333173583275642    7.4130595290534886    8.7648945724013725
2    8.8320073261169032    7.0019525285370525    3.6180810544186377
2    5.5113723950859805    7.4220119702724139    6.2383583098786328
2    7.2284795383502516    9.3227427059286523    1.5419791518324293
2    8.8115923717495139    7.2082199999290761    0.9649543412596411
2    7.1901518368405348    5.2317344580520313    9.5370823448057376
2    3.8104900597618050    9.0771760696632828    9.7741166402114281
2    9.0254832072536058    0.0392331571500795    9.0852923834089907
2    7.0562448903660977    5.7544107577827353    6.9444497142688011
2    5.3467928843937704   10.5363422772201130    6.4584220404755373
2   10.6327301226493134    4.8752688576360415    6.8944900368640036
2   10.6870988017208894    8.7607765556426678    4.5783902026151742
2    2.0300128207793549    7.3123712416419488    3.5509954740462892
2    3.5223256255716247    9.1263965440907722    4.2321438658451367
2    3.1122742782150157    5.5871202423757875    1.3089777626028303
2    5.4816440636467458    7.5808510188677110    0.7748303905999868
2    8.6772221573687371   10.7713812459070581    3.2911456757894664
2    9.4456409952758076    3.3976288166587389    8.9043128425269238
2    7.2419852754632572    5.2407833736478970    1.3204462354054547
2    9.1451951978075527    3.4377769984040936    1.2365329174608652
2    8.7051012254121183    3.9433586458496497    3.7855375729055480
2    6.9036804626295512    5.7297750179009945    4.2182712257590627
2    3.3652902583159667    9.3947069570396238    1.8909145262202005
2    8.5890766814167048    3.6078267123789645    6.3625426533323379
2    7.4260926469705941    1.5815159999095605    6.6500808133077003
2    1.8083150673168560    3.9341136974441255    9.0519391664838729
2    7.5789037225594873    9.4014751365335769    6.7966919489407758
108
 Atoms. Timestep: 100
1    1.9181208064476880    1.7921176584877709    2.5341864441036774
1    3.5755290940208391    7.3957858066993278   10.5400042011873190
1    5.2168703778173331    5.1637831238314478    2.5212562912251832
1    9.1519898302191987    5.3621811148309195    8.0556045392053406
1   10.7270101408669412    7.2009109550045167    5.3570491060026262
1   10.7688772354353830   10.8990076092217176    0.1596954773588320
1    7.0761082615777848    3.4703137828410022    5.0018848280603301
1    7.4985872484748102    6.9651486749637987    5.3426282703311907
1    1.7751034721275858    5.2549561456666130    2.7568235261872118
1   10.5777437990866101    3.6939210873212787    5.1948612722908720
1    0.1107434571195225    3.3546847797579571   10.5139290953579216
1    1.6978590323556577    5.5260181632716874    7.4655332304252244
1    9.1826692947225759    9.2697087847779418    8.3024270046773267
1    1.8852945013158848    1.8458289011355635    7.9486553036755723
1    6.8961881411483974    7.1907892751605269   10.4865317621562166
1    8.9759749639082926    8.7590921428963000    2.7156271720586416
1    5.5207956067849073    9.1303453839500328    2.6110314507764825
1    5.4727617363458840    8.9442117349911072    7.6424255718190279
1   -0.0025901828871818   10.7649157512796094    5.0099416268802637
1    3.6081817934231295    3.5311033142449531    5.2231488776633750
1   10.7184806248655082    6.9645174896930291   10.4504308919615578
1    1.8775431198345094    9.0223891945955881    7.9328963104868340
1    7.3188949518502904    3.4526100259366967   10.5559829094077813
1    9.0102983505878633    5.5180567490973962    2.1043889007835008
1    3.5807913023433451    7.3868286685154558    5.1043139150221064
1    3.5546959906317803   10.8824358577601625   10.4565140202130085
1    7.4554693482401948   10.6103846807411113    5.2698231443231380
1    5.0570115061417980    1.5031236718360113    2.7506377260369548
1    5.5551529967868181    1.8746574436344807    8.0166122467652805
1    1.6079160413171225    9.1197454308787140    2.1912943443768409
1    3.7748778409321075   10.8543770421082435    5.2847381380833269
1    3.4473965590855196    3.8595815358068486   10.2359386599101825
1    7.1026072227178769   10.8940602155811099    0.1743045899816839
1    8.9471023699634653    1.6626811418545484    2.6463533924382614
1    5.3864701298566064    5.6998004327746967    7.8030881172898408
1    9.0463151178252375    1.8504788688616292    7.8529644505550706
2   10.5930813677569962    9.3947218657245042    1.5026612190356166
2    5.0743459626157801    7.3262005548880218    3.5939522299622109
2    0.2152408745349241    5.0855660311386606    4.1271113339905847
2   10.6555677667083550    1.6774159987971882    4.0640637405744711
2    1.2095871886953962   11.0574889859814807    3.3635835430289598
2    1.8978641065657966   10.8560164600978108    0.8398018761507878
2    1.7959283224424012    3.5613160327665843    1.0206841381603149
2    0.1759507035736399    1.6065797447875476    9.5638608602392061
2    1.9944179384945062   10.9306261537026863    8.9054775660998295
2    1.5393376167244739   -0.0924011252080337    6.2921439350635335
2   10.7444036117396582    1.9439511758764394    6.7002690317407234
2    1.7033007326994261    3.3280115605600580    3.9558866771388135
2    1.6271197409816023    7.6139963070308534    0.6071039892325963
2    1.2069834298575370    7.1478567326374716    8.6544010010633912
2   -0.2443283808284242    1.8839772651801665    1.4938638929899661
2    3.6296326164693169    5.5656360774618072    6.6141236629558229
2    3.8805245159768678    1.6998532552743666    6.8178726770372506
2    4.7900994339580816    3.7525200140923203    8.5827926804777821
2   11.0961905505076412    5.6358894397633073    1.1962719226964824
2    1.8337834670318875    7.2136665869815504    6.1220927209663412
2   10.7756862431156968    9.0025484061476089    7.0538314419187254
2    3.4366205447308928    1.6962215360334361    4.3008390129616432
2    5.4038731561015512   10.7973103144873441    3.7480298447741371
2    5.4599753562050344   10.7596544804461161    1.1204978287661247
2    3.5723524528975790    1.6357822829370834    1.5718214284286085
2    3.2890741864935542    1.8067107951317409    9.8223726362931139
2    5.2314124376542797   -0.2556622385634734    8.7383212228998151
2   10.7019033803399886    9.1776676588516146    9.6082840215849235
2    3.5470969644497132    5.2604588229530282    3.9757623808281393
2    5.1972759143894391    3.2805457478354390    3.5227793194300796
2    5.2969435725768115    3.8223140831918014    0.4357270137053204
2    9.1460648540337850    7.1771413750516535    6.4869729695221610
2    3.7452103514618278    5.7656523576104686    9.2028140280807573
2    5.5163618991416392    3.5035388777055476    6.5062695444478855
2   10.6715136461743878    4.9799558669284387    9.5304070685270830
2    9.0845897695260405   -0.1181310943760105    6.2668622181455653
2    1.6141772316487126    3.0202608513667828    6.0762634883170783
2    7.0681755013852534    1.7555368381413901    1.5865284597935219
2    8.9240829763460958    0.4577685228079787    0.9077498780199933
2    7.0936328029472664    8.6740116716765936    4.2495868823694130
2    7.2188089943349318    1.6993380744213036    4.1154853225445800
2    3.5298309139358310    9.0499607625900342    6.5752186980145293
2    9.2220018869633655    7.0581845956487204    8.8097053297726333
2    6.9834676410213641    1.5021318595797275    9.8304320332853266
2    7.7529405578017263    9.2446522744455848    9.8892392490867067
2    5.4850576592734921    7.6946620549235831    9.0830520301649784
2    8.9974540077265388    6.8298880116032858    3.7385408413591530
2    5.5760678504774068    7.1096053241168784    6.1934764913682097
2    7.2925495284112163    9.1666501688080686    1.6033437092584455
2    9.1435120957377194    7.5390501223299191    1.0643374049181162
2    7.0315041405501182    5.4159455430582719    9.7320865186699415
2    3.6490509392811998    9.0193337615815317    9.2151786792139259
2    9.1484119321717881    0.0792807407443615    8.6364367889568836
2    7.0760197615703806    5.5977916330255679    7.0395814418174156
2    5.4611296637342575   10.5302005503275886    6.3209669447695127
2   10.7872746144651988    5.3380148647005754    6.7716869435665563
2   10.6876787753477913    8.8086982990075793    4.2345358668042756
2    1.7362272726461287    7.2735732653109375    3.1410945059955742
2    3.3607442364555369    9.3435620748367860    4.0321395789567491
2    3.4833542840510074    5.5258022382204208    1.2340013318336245
2    5.3807213864523602    7.1406632543603887    0.7448422581880507
2    8.9005433604215707   10.6215496041534934    3.6818944587809050
2    8.5715144482945487    3.4744984600183395    8.7013027247383565
2    7.1540635431081139    5.5486811867846892    1.8795927722446424
2    9.1916226287115883    3.7281219731222364    0.6801565812736958
2    9.2140296977106360    3.8712771573413804    3.4385240797603225
2    6.7145187202323973    5.4722766299373529    4.4922374563801180
2    3.6575134258293396    8.9849049537371535    1.0373868394222296
2    8.6011443930568312    3.5576038177136446    6.2768119389631991
2    7.3093305198283200    1.4211160246459531    7.1683341646541283
2    1.7234230786014624    3.7493656218612643    8.5962381964261301
2    7.5280280180958457    8.5546608577293295    7.1508965035536063
108
 Atoms. Timestep: 150
1    1.6804895064146170    1.7875184841203999    2.6246717192049798
1    3.5589294073233129    7.4135731646555287   10.6393655430358223
1    5.3348873946271835    5.3233753387326024    2.6208467433659304
1    9.0573464868796094    5.3506920204316151    7.9961948552449105
1   10.5985236466183661    7.4100820312654943    5.1704860889226714
1   10.7261020299582484   10.9270153949786089    0.1211604641588666
1    6.9937106888010208    3.5763558062902132    5.0632405897242236
1    7.3683749114055042    6.8599786505277756    5.2139904677347841
1    1.8465964132633776    5.4549406685937329    2.6626723816369524
1   10.8146951178943294    3.6345613605703528    5.2891765015535386
1    0.2521256301330649    3.4025226849828254   10.3876466161927166
1    1.7820221259702018    5.6438664327030139    7.6088465736974351
1    9.3051152871402500    9.2476924438041870    8.2153114792985491
1    1.7711568405448224    1.7827030276536688    7.7709810059310289
1    7.0077685405958130    7.1787931506539895   10.5376578650019503
1    9.3381497655080068    8.7237055142315594    2.5411115815833232
1    5.4741833289794801    9.0123391878625672    2.7114000972528096
1    5.4199177103704592    8.9911265089629318    7.5218184017304042
1   10.8358216390572881   10.8672828004106901    5.1039304465718800
1    3.5469425009517463    3.4448150726092863    5.1388910265019634
1   10.9274578434005640    7.1749848096516695   10.5388880422835918
1    1.7401643008502339    9.0438092061758883    7.7797481180754966
1    7.0819901853853127    3.4348086821598378   10.5869951561331987
1    9.1517356504646319    5.3196946020052787    2.2526477737811224
1    3.4303288159755962    7.3384595578437297    5.2078413767340388
1    3.4324372732952981   10.7496738873787443   10.2228730947730568
1    7.6109587072313856   10.6008390065550184    5.3744914018548187
1    5.1069162582256009    1.5156342082238587    2.5690657656848819
1    5.4513716170741056    1.7647125410673499    8.0444774349535191
1    1.9291513450479874    9.0325518082480105    2.1803369805921831
1    3.8113135193461241   10.8479775517810051    5.4820717612473118
1    3.4987500318307001    4.0170413687375088   10.5378150399769659
1    7.0697033501796955   10.7868509765427874    0.1674936511137872
1    8.8619380973278972    1.4893736666510424    2.7822926159268562
1    5.3107501808996798    5.5209608833894652    7.7711354497016254
1    8.9919682562934717    1.8951135641794605    7.6485146942952298
2   10.8846382645305990    8.8953677960170108    1.2588931721527932
2    4.7089511327629712    7.4494334877791308    3.7075110628022760
2    0.0305592563780844    5.6929887655600426    4.2272573262965381
2   10.4119016477926749    1.9934509852013447    4.0271149927137593
2    0.9813299230663755   11.0797985366871679    3.1519999396412430
2    1.6741332503935689   10.6295917081547309    0.5383579021747634
2    1.9068699582296949    3.2602477691849345    0.7660040595797074
2    0.0221832910426356    1.9374472525725741    9.0822741668711373
2    2.1048898206617510   10.9134939383817766    8.4205868072011256
2    1.5395525764479816   10.8982532121024125    5.7655910896557510
2   11.0266071153202230    1.7852103307651785    6.5721057703923096
2    1.9169372448252489    3.7601378841345001    3.5692883017099821
2    1.6705128166309231    7.7428662148342529    0.7117746085644737
2    1.2273300609881030    7.1937005586010638    8.7585195880196380
2   10.8216603245182021    1.7658350254761621    1.5079503557556060
2    3.5718941920341982    5.5249325557483209    6.7645719826461956
2    3.7047100857241730    1.3217777361129330    6.8869878586991726
2    5.3988312869594051    3.8333847008782178    8.8954202361161983
2   -0.0022342468273190    5.5147118460737143    1.4179487083163633
2    1.6173119388768524    7.1393408802636698    5.7436509827823139
2    0.0271217727874932    8.8376838262506361    6.8311090377719763
2    3.3418834811664233    1.5798294761903595    4.2404314758768002
2    5.5960258583630917   10.7712538162685725    3.5213369572305644
2    5.4475620260625028   10.7834159240364453    0.9540452895987362
2    3.3873455389626406    1.3349539117444718    1.6093861261018085
2    3.3930726152737245    1.8988479737891024    9.3034627177011604
2    5.1606757034795683   10.9093413445601648    9.0172183081181867
2    0.0886302194719345    9.3711588894601903    9.5518756057245700
2    3.5134493951914889    5.3708986895865367    4.1734308336595056
2    5.1878570036027858    3.2452897925532453    3.4778960694999896
2    5.1531247625384085    3.6893276412668614    1.1675375778824846
2    9.0996209433966726    6.9822679245051029    6.5532548257528171
2    2.9925751613211808    5.7159665181217356    9.5748528386380443
2    5.2202441666888415    3.5381888478165835    6.4051261974783245
2   10.5656462320300690    5.2465436911946570    9.5987673652469283
2    9.3857803923581891   10.5090105326370971    6.3558080980662863
2    2.0530655471984747    3.6950661232952178    6.4557878905093373
2    7.0297162310154944    1.9152676253910619    1.5957800444927848
2    8.8564663276563529    0.0648391718784884    1.1500769287309420
2    7.4347277118995736    8.7803498103854327    4.7121713070966518
2    7.9012382670535084    1.6870566209611901    4.7097867029997076
2    3.3526562318599957    8.9441098881612380    6.5996134479616133
2    9.0477822231961742    7.4208145078151997    8.9138649434968453
2    6.7478446413486113    1.5680466881953428    9.8640241046546802
2    7.3728542869683587    9.0543206309755444    9.9814251359394675
2    5.4320733005788053    7.3294104506487985    8.9515876991211485
2    8.9047211011453555    7.0857969947633510    3.8240117712599071
2    5.4433248408031929    7.3438257110444134    6.4041069003325255
2    7.2995342217740111    8.9550454849172407    1.8139211909516326
2    9.0492772932684513    6.9793389306373914    0.7994138665593314
2    7.3030396908975792    5.4843906702885530    9.4978115051680021
2    3.5042408473602200    8.8364954350123028    9.2229469433771296
2    9.1112641553263867    0.1334311211099933    9.3256293532399983
2    6.8379508578514301    5.5385249574072315    6.8213495161574640
2    5.4677762417439570   10.3838558869406707    6.1730736078130679
2   11.0649588487333990    5.2558249354798727    6.8457224028636787
2   10.6041886153625100    9.0229201844201423    4.0797953798949740
2    2.0871120998100370    7.3639551569671804    3.1669211428071926
2    3.3777402455895520    9.6061141056598771    3.9160142054081959
2    3.5140336889091479    5.4716468846045627    1.4956629236187702
2    5.2641572878068805    7.4665450834025267    0.9889619622849862
2    9.0190719470936429   10.6259093999699896    3.5568124843100866
2    8.6588382724591266    3.3018955329935022    8.7627081961829951
2    7.0605511037812079    5.6972122505273095    1.6299835506576650
2    8.9587484347902784    3.7176898595487993    0.9158212056816860
2    8.5338454782842543    3.8039330858958595    3.6875104264190104
2    6.6227833983893278    5.4102199662286559    4.3441029469636545
2    3.7515346310740725    9.1297371693391316    1.1246708045665024
2    9.0496549552616798    3.6455290597151584    6.4148793784263356
2    7.1728259607616387    1.4750767833212941    6.8880727494376970
2    1.7512600830180396    3.7849733706908135    9.1032198512355880
2    7.4401697306873169    9.2849284655552715    7.4136458027878183
108
 Atoms. Timestep: 200
1    1.3934748597071456    1.7642628261431923    2.5720019099976490
1    3.7664791020131085    7.3509249990092727    0.0146202706190213
1    5.3350173722121870    5.4976447509318795    2.6188532466973689
1    8.9716308167625716    5.4101464073049197    7.9986835612358140
1   10.6476959208677293    7.3046611514753126    5.1803230566345526
1   10.5294371254165409   10.9689202218746882   -0.0420566435959200
1    7.1230014171364235    3.5159208744528527    5.1436731567728406