ITEM: TIMESTEP
0
ITEM: NUMBER OF ATOMS
679
ITEM: BOX BOUNDS
-6.440307771703434 12.880619210125165
0.0 11.154943116692573
0.0 15.046356078130312
ITEM: ATOMS id type x y z 
1 1 -4.834553258614452 1.8616484567448237 2.529307503089784 
2 1 -4.826604629254128 4.652291731190921 2.5095967766274327 
3 1 0.00865055721829755 1.8616484567448237 2.529307503089784 
4 1 0.012746593738445 4.662610053573863 2.50809214101962 
5 1 4.834225959272825 4.652291731190921 2.5095967766274327 
6 2 -3.220146834423007 0.9295782212262772 1.2538625049656567 
7 1 4.834225959272825 1.8570637751238628 2.5095967766274327 
8 1 9.660458272844739 4.647896683602944 2.5059555584565256 
9 1 9.652845827613898 1.8570637751238628 2.5095967766274327 
10 1 -4.826604629254128 7.434323389550933 2.5095967766274327 
11 1 -4.834553258614452 10.220370827432953 2.529307503089784 
12 1 0.0008642236446201323 7.436877871524655 2.5104694652799644 
13 1 0.012746593738445 10.218005979492213 2.50809214101962 
14 1 4.829801466993988 7.436877871524655 2.5104694652799644 
15 1 3.220155719210865 8.36620733751943 0.0017671794750203271 
16 1 4.829801466993988 10.224866269508981 2.5104694652799644 
17 1 9.634973970155706 10.218005979492213 2.50809214101962 
18 1 9.652845827613898 7.434323389550933 2.5095967766274327 
19 1 -1.6060186315801008 2.793420855282154 5.017448175949802 
20 1 -0.0015895340820710757 4.646067272931807 7.520424555902858 
21 1 3.249581491004191 2.797235845828063 5.029319750895448 
22 1 3.226357736772032 0.0012350418370508517 5.019900731990538 
23 1 8.050174934471215 2.7884792154814595 5.01755350044235 
24 1 9.660458272844739 4.647896683602944 7.523057668216531 
25 1 12.86589666376501 2.797235845828063 5.029319750895448 
26 1 8.04631074907485 0.001235064146937085 5.019900731990538 
27 1 -6.439868520088966 5.57759426272057 5.01755350044235 
28 1 -1.6060186315801008 11.152600578638067 5.017448175949802 
29 1 -1.6122206491412676 5.579825251343908 5.019900731990538 
30 1 -1.6122206491412676 8.362626600778972 5.019900731990538 
31 1 -0.0015895340820710757 10.2262829472848 7.520424555902858 
32 1 3.226357736772032 5.579825251343908 5.019900731990538 
33 1 3.220155719210865 8.36620733751943 5.0197201757176 
34 1 8.04631074907485 8.362626600778972 5.019900731990538 
35 1 9.663626904869759 10.2262829472848 7.520424555902858 
36 1 12.872504420792797 11.152600578638067 5.017448175949802 
37 1 12.86589666376501 8.349218359152706 5.029319750895448 
38 1 8.050174934471215 5.57759426272057 5.01755350044235 
39 1 -4.831622273991309 1.859964060334203 7.527014859865079 
40 1 -4.829330812051264 4.648911783426564 7.527210462494096 
41 1 -6.438726179941629 2.7878210738375744 10.0336625507012 
42 1 0.002776995415821659 1.859964060334203 7.527014859865079 
43 1 -1.6086849195035926 2.7903420909819467 10.027057200382899 
44 1 4.831095969101769 4.648911783426564 7.527210462494096 
45 1 3.2169870871858457 2.7878210738375744 10.0336625507012 
46 1 4.831095969101769 1.8586366221033164 7.527210462494096 
47 1 3.221913923566211 0.0005195905574096701 10.026876644109961 
48 1 8.051585362140889 2.7901189921196132 10.029569941847948 
49 1 8.051585362140889 5.576779951873052 10.029569941847948 
50 1 12.878223415179416 5.576779951873052 10.029569941847948 
51 1 9.658700068489392 1.8586366221033164 7.527210462494096 
52 1 8.049518022953833 0.0005195972503755401 10.026876644109961 
53 1 -4.829330812051264 7.436130490335837 7.527210462494096 
54 1 -4.831622273991309 10.223761930140427 7.527014859865079 
55 1 -6.4387261412997745 8.368036748190567 10.0336625507012 
56 1 -1.6086849195035926 11.154139960788171 10.027057200382899 
57 1 0.002409897803166139 7.437324069249323 7.524502118400031 
58 1 -1.6109841098144306 5.5779735307865375 10.026876644109961 
59 1 -1.6109841098144306 8.365192237695812 10.026876644109961 
60 1 4.829028629914713 7.437324069249323 7.524502118400031 
61 1 3.221913923566211 5.5779735307865375 10.026876644109961 
62 1 4.829028629914713 10.223973874059643 7.524502118400031 
63 1 3.220155719210865 8.36620733751943 10.031029438387526 
64 1 8.049518022953833 8.365192237695812 10.026876644109961 
65 1 12.877836996639779 11.154139960788171 10.027057200382899 
66 1 9.658700068489392 7.436130490335837 7.527210462494096 
67 1 -4.834290494007499 1.8615034424843064 12.536623884298177 
68 1 -4.828090408539031 4.651477420343403 12.534186374613519 
69 1 0.008128892189787962 1.8615034424843064 12.536623884298177 
70 1 -1.6057481386023547 2.7937220387463046 15.024764557158196 
71 1 0.014717328290591247 4.6648856619696675 12.52476735570861 
72 1 3.245659342826878 2.7960980416301604 15.045994965584438 
73 1 4.834303242980752 4.651477420343403 12.534186374613519 
74 1 3.2277874853686885 0.0020935374142546288 15.044490329976623 
75 1 4.834303242980752 1.8579227057438483 12.534186374613519 
76 1 8.050812525061614 2.789226596670278 15.043602594968014 
77 1 9.660458272844739 4.647896683602944 12.534366930886456 
78 1 8.050812525061614 5.57722614959772 15.043602594968014 
79 1 12.86786739831716 2.7960980416301604 15.045994965584438 
80 1 12.879769089337962 5.57722614959772 15.043602594968014 
81 1 8.046388032782778 0.0020935485691977456 15.044490329976623 
82 1 9.65425625528357 1.8579227057438483 12.534186374613519 
83 1 -4.828090408539031 7.434278769778466 12.534186374613519 
84 1 -4.834290494007499 10.220672010897104 12.536623884298177 
85 1 -1.6057481386023547 11.152444409434434 15.024764557158196 
86 1 -1.613708360518868 5.579780631571442 15.044490329976623 
87 1 -0.0004302784631615708 7.436498603458688 12.536533606161708 
88 1 -1.613708360518868 8.361801134988337 15.044490329976623 
89 1 0.014717328290591247 10.21686817529431 12.52476735570861 
90 1 3.2277874853686885 5.579780631571442 15.044490329976623 
91 1 4.83045837851137 7.436498603458688 12.536533606161708 
92 1 4.83045837851137 10.225613650697799 12.536533606161708 
93 1 8.046388032782778 8.361801134988337 15.044490329976623 
94 1 9.631032501051415 10.21686817529431 12.52476735570861 
95 1 12.87198275576429 11.152444409434434 15.024764557158196 
96 1 12.86786739831716 8.351482812605395 15.045994965584438 
97 1 9.65425625528357 7.434278769778466 12.534186374613519 
98 1 -4.897402301993642 1.8755475158682227 2.5823007691969586 
99 1 -4.8662048011960835 4.650919673187568 2.5236350268483285 
100 1 -0.05074197232384403 1.8445144641175837 2.526629251707876 
101 1 -0.023827921038156674 4.6399989838763265 2.5189104710397956 
102 1 3.177456470581024 2.776409567029198 0.00014638945894602777 
103 1 4.806036726806338 4.635648556060816 2.5181731995919674 
104 2 -3.627992282082427 0.8118478360783922 1.3201176293200958 
105 1 4.806017405879357 1.857420733303597 2.5181731995919674 
106 1 8.018701144417816 2.7793656269551215 0.0010868645034900963 
107 1 9.638529020720362 4.641560675912663 2.511883822751309 
108 1 8.018701144417816 5.568536448909816 0.0010846903050368065 
109 1 9.635147858498541 1.859339383519668 2.524597993637329 
110 1 -4.866197072825291 7.412838969108182 2.5236350268483285 
111 1 -4.8973984378082465 10.17019589329407 2.5823007691969586 
112 1 -0.00636180304658307 7.434791897161834 2.511101412235246 
113 1 -0.023827921038156674 10.219500741869851 2.5189255173958736 
114 1 4.813224111643578 7.4290694113429705 2.5111916903717146 
115 1 4.813224111643578 10.223103788496541 2.5111916903717146 
116 1 9.566867702544762 10.198350969720602 2.5523735669575576 
117 1 9.635167179425522 7.421841008203353 2.524597993637329 
118 1 -1.635135268541716 5.572117185650274 5.017613685866663 
119 1 -1.6194273549054898 2.7945363495938236 5.027769976219401 
120 1 3.1985356019181985 2.7824890110277956 5.019043089694084 
121 1 3.199231155289544 5.5740804556388115 5.019253738679178 
122 1 8.01684633542756 2.782756729662596 5.024339407033587 
123 1 8.016865656354542 5.564096781549372 5.024339407033587 
124 1 12.833765962194231 2.797882832528831 5.048654318455845 
125 1 12.849956899005 5.568625688454749 5.035127644341606 
126 1 -1.6194273549054898 11.143732398860298 5.027769976219401 
127 1 -1.635135268541716 8.357093748993092 5.017613685866663 
128 1 3.199231155289544 11.14625341600467 5.019268785035257 
129 1 3.1975695555691086 8.35969285073928 5.013295381672239 
130 1 8.026661366334329 11.15333680488377 5.0314412871024645 
131 1 8.026661366334329 8.354115379180936 5.0314412871024645 
132 1 12.842518342117 11.143944342779514 5.013460891589099 
133 1 12.833765962194231 8.329998392162645 5.048654318455845 
134 1 -4.851634890159087 1.8521556001525181 7.545657295045883 
135 1 -4.845533341418225 4.645821864183239 7.541715149753413 
136 1 -1.6262283212030937 5.57469397751023 10.030412537788322 
137 1 -0.02038879603539101 1.8532710944641875 7.536087812580193 
138 1 -0.023673353622301718 4.64147143636773 7.5311827004987215 
139 1 -1.633125892135606 2.7838833789173822 10.032458842214949 
140 1 4.80563098733972 4.6413821968227955 7.53014450192933 
141 1 3.1974149881532536 2.782165517677411 10.029284061082462 
142 1 3.1968353603437976 5.568581068682283 10.026470392495852 
143 1 4.805611666412737 1.8514528387361666 7.530159548285409 
144 1 9.632732742625812 4.63988743444516 7.52860977360936 
145 1 8.029540184454621 2.7852108171482683 10.035152139952935 
146 1 8.029540184454621 5.56896033674825 10.035152139952935 
147 1 12.858574032438899 2.7774804415684002 10.034715795626667 
148 1 12.850497884960493 5.568781857658383 10.033346577223558 
149 1 9.629390222257957 1.8552232095096084 7.537727865392709 
150 1 -4.845533341418225 7.4298614123042555 7.541715149753413 
151 1 -4.8516406864371815 10.219991559366985 7.545657295045883 
152 1 -1.6331452130625879 11.146476514867004 10.032458842214949 
153 1 -0.019596638029136138 7.430976906615924 7.525450038832954 
154 1 -0.023673353622301718 10.218117528923381 7.5311827004987215 
155 1 -1.6262283212030937 8.359670540853049 10.030412537788322 
156 1 3.1968353603437976 11.150380744957847 10.026470392495852 
157 1 4.8017281600893895 7.43065341326554 7.5264882374023445 
158 1 4.8017281600893895 10.214893750362657 7.5264882374023445 
159 1 3.1979366531817632 8.359793245227332 10.031932219752214 
160 1 8.016343991326032 11.150447674616546 10.022513200847303 
161 1 9.648904358509604 10.222021759014224 7.540014911516583 
162 1 8.016343991326032 8.351058924766962 10.022513200847303 
163 1 12.869838132869305 11.151830887563015 10.02905836574129 
164 1 12.85859335336588 8.364734885028026 10.034715795626667 
165 1 9.629390222257957 7.422621854221521 7.5377429117487855 
166 1 -4.852276344934884 1.8624404577061087 12.563526768965872 
167 1 -4.850425400130025 4.6446840599853365 12.534171328257441 
168 1 -1.6271557256982208 5.569540393790318 15.041285456131982 
169 1 -0.0058594589450562395 1.8574653530760639 12.54342483724549 
170 1 -1.6525047818983802 2.77154601183032 15.044174356498985 
171 1 -0.01803164294360826 4.644884848961437 12.54133339375063 
172 1 4.811369302653324 4.642196507670315 12.540430612385943 
173 1 3.1895706917986306 5.570354704637836 15.04307597250528 
174 1 4.811349981726341 1.8539403910511891 12.540430612385943 
175 1 9.636538965241233 4.640980618870595 12.546960730923852 
176 1 12.842363774701145 2.800794272682288 15.037463681688138 
177 1 12.868562951688503 5.573991216093879 15.044776210742109 
178 1 9.632925951895633 1.8480728909718085 12.54118293018985 
179 1 -4.8504234680373255 7.428177015893635 12.534171328257441 
180 1 -4.8522724807494875 10.209360898576778 12.563526768965872 
181 1 -1.6525047818983802 11.14763662895114 15.044174356498985 
182 1 -0.023209651374738627 7.429928341962956 12.537978056345208 
183 1 -1.6271557256982208 8.364266377417126 15.041285456131982 
184 1 -0.01803164294360826 10.217961359719748 12.54133339375063 
185 1 3.1895706917986306 11.144401695447298 15.04307597250528 
186 1 4.793188310363423 7.4232019112635905 12.533494242233925 
187 1 3.1906913055635773 8.357696115921394 15.04355745589978 
188 1 4.793188310363423 10.217403612563913 12.533494242233925 
189 1 8.00774617881912 11.138299941562467 15.039434754334373 
190 1 8.00774617881912 8.358220398247877 15.039434754334373 
191 1 9.576547486962657 10.201139705499774 12.512700178133949 
192 1 12.73940255481498 11.114171799601062 14.980753965629663 
193 1 12.842363774701145 8.332073211582351 15.037463681688138 
194 1 9.632945272822614 7.431824682292794 12.54118293018985 
195 1 -4.883649666167977 1.919832640041492 2.6126643157626255 
196 1 -4.865547889678702 4.663078561184763 2.523800536765188 
197 2 -4.14596701353827 0.6623214010706866 1.415228655361173 
198 1 0.014002453992263852 1.863198993838044 2.5231535434538284 
199 1 -0.013645792518732769 4.641728000059413 2.5124405379261994 
200 1 4.819928473306273 4.6399989838763265 2.516548193135529 
201 1 4.819928473306273 1.8611018645321056 2.516548193135529 
202 1 9.643610424516584 4.643033128404067 2.5106951606211365 
203 1 9.647049549519348 1.8630205147481766 2.523815583121266 
204 1 -4.865540161307909 7.401059349176955 2.523800536765188 
205 1 -4.88364580198258 10.133853088619885 2.6126793621187034 
206 1 0.01096906845611656 7.439789311678112 2.5103641407874173 
207 1 -0.013645792518732769 10.22365038070926 2.5124405379261994 
208 1 4.832293866574643 7.439030775546176 2.5102287235827143 
209 1 4.832274545647662 10.224152353149512 2.5102287235827143 
210 1 9.559970131612246 10.196354234902714 2.5656294066623904 
211 1 9.647049549519348 7.4250313219347275 2.523815583121266 
212 1 -1.63496138019888 5.571157860542239 5.013310428028317 
213 1 -1.6092645473130478 2.795707618621076 5.035232968834153 
214 1 3.20551045655864 2.784508055731917 5.019509526732507 
215 1 3.203385154590638 5.576333754148384 5.016229421107474 
216 1 8.01819880031629 2.7816412353509268 5.0249412612767115 
217 1 8.01821812124327 5.56599312187921 5.024926214920634 
218 1 12.829244865280483 2.8037503326082116 5.061579138326959 
219 1 12.849473875830459 5.568480674194233 5.040168173627779 
220 1 -1.6092645473130478 11.148439784855542 5.035232968834153 
221 1 -1.6349420592718982 8.358153468589178 5.013310428028317 
222 1 3.203385154590638 11.146398430265187 5.016229421107474 
223 1 3.1936087655378333 8.358543891598263 5.014378719309864 
224 1 8.031878016619423 11.153983791584537 5.0309297109958075 
225 1 8.031878016619423 8.356480227121674 5.0309297109958075 
226 1 12.85542472134086 11.14767009378049 5.019930824702694 
227 1 12.829244865280483 8.321531790337076 5.061579138326959 
228 1 -4.848758004131493 1.853003375829387 7.550547360771275 
229 1 -4.8437558161358965 4.646770034348158 7.5438667786725855 
230 1 -1.6252043120730564 5.575117865348664 10.028546789634635 
231 1 -0.018418061483244763 1.8538399965631387 7.536840130384099 
232 1 -0.021065028479754666 4.643523945901201 7.528233614707408 
233 1 -1.6322564504214236 2.785333521522552 10.029374339218931 
234 1 4.806403824418993 4.642185352727198 7.529768343027378 
235 1 3.202612317511365 2.7836714349981646 10.028275955225228 
236 1 3.1986708484070725 5.568781857658383 10.024032882811195 
237 1 4.806384503492012 1.8510958805564324 7.529768343027378 
238 1 9.632037189254469 4.639686645469059 7.527797270381141 
239 1 8.03087332841637 2.7849207886272342 10.034971583679996 
240 1 8.03087332841637 5.570020056344336 10.034986630036075 
241 1 12.857665948870753 2.7772796525923 10.03551325249881 
242 1 12.851135475550894 5.56896033674825 10.032248193229854 
243 1 9.627612696975628 1.8544981382070236 7.53738179920291 
244 1 -4.843753884043199 7.429950651849189 7.5438667786725855 
245 1 -4.848763800409587 10.220805870214503 7.550547360771275 
246 1 -1.6322564504214236 11.145539499645201 10.029374339218931 
247 1 -0.020639968086155314 7.430675723151774 7.523764846952203 
248 1 -0.021065028479754666 10.217570936710663 7.528233614707408 
249 1 -1.6251849911460745 8.359837864999799 10.028561835990711 
250 1 3.1986708484070725 11.15123967557783 10.024032882811195 
251 1 4.803215871466991 7.431110765933325 7.525013694506687 
252 1 4.803215871466991 10.215295328314857 7.525013694506687 
253 1 3.199366401778418 8.360217133065765 10.030743557622042 
254 1 8.015339303122978 11.151741648018081 10.018330313857584 
255 1 9.652498050928223 10.223059168724076 7.542347096708694 
256 1 8.015339303122978 8.349173739380241 10.018330313857584 
257 1 12.876928913071634 11.153872242153371 10.027689147338181 
258 1 12.857665948870753 8.364411391677642 10.03551325249881 
259 1 9.62763201790261 7.422331825700488 7.53738179920291 
260 1 -4.835011164583921 1.8703158475464938 12.56226287505531 
261 1 -4.847703081518285 4.646234597078557 12.53159840136808 
262 1 -1.6205286477434537 5.570287774979136 15.041330595200218 
263 1 -1.5957012565718038 4.661383009831026e-05 15.030662728740822 
264 1 0.003008846539603205 1.8600198350497865 12.534336838174301 
265 1 -1.5957012565718038 2.796990437079496 15.030662728740822 
266 1 -0.01038055585880393 4.6504065458042 12.535961844630739 
267 1 3.190884514833394 2.7802803322906904 15.044821349810343 
268 1 4.816122250690853 4.644527890781703 12.54012968526438 
269 1 4.816122250690853 1.85437543383274 12.54012968526438 
270 1 8.025965812962983 2.7797672049073223 15.045453296765626 
271 1 9.635263784060434 4.640612505747744 12.54375585707921 
272 1 8.025965812962983 5.572340284512608 15.045453296765626 
273 1 12.850922945354093 2.8130647101106496 15.034710198525838 
274 1 12.876716382874836 5.5763449090915005 15.040803972737482 
275 1 9.635824090942904 1.8467119879115723 12.541709552652584 
276 1 -4.847699217332888 7.428199325779868 12.531613447724158 
277 1 -4.835007300398525 10.211446872939598 12.56226287505531 
278 1 -0.02407909308892009 7.429671778271272 12.535660917509176 
279 1 -1.6205286477434537 8.367367451603565 15.041330595200218 
280 1 -0.01038055585880393 10.21686817529431 12.53594679827466 
281 1 3.2017428757971835 11.143788173575881 15.043286621490374 
282 1 3.2017621967241645 5.577995840672771 15.043286621490374 
283 1 4.794502133398186 7.422978812401256 12.530048626692034 
284 1 3.189512729017686 8.357361467627893 15.039585217895155 
285 1 4.794482812471204 10.218385247558182 12.530048626692034 
286 1 8.009639629663338 11.13583469913368 15.037177800922652 
287 1 8.009639629663338 8.36178998004522 15.037177800922652 
288 1 9.558076680768028 10.195807642689996 12.495276497795473 
289 1 12.680976071621927 11.097305525608622 14.926210924846442 
290 1 12.850922945354093 8.324744413954685 15.034710198525838 
291 1 9.635824090942904 7.434847671877416 12.541709552652584 
292 1 -4.846093648300698 1.9724281968366975 2.614725666545329 
293 1 -4.86557107479108 4.671511698180982 2.524658179061641 
294 2 -4.665829399560238 0.512248373850263 1.5320199758752282 
295 1 0.07582942033411566 1.8810469028247518 2.522371132937766 
296 1 -0.0004495993901443285 4.646346146509725 2.5075203794886507 
297 1 4.830400415730425 4.644070538113919 2.514411610572435 
298 1 4.8303810948034425 1.8630762894637602 2.514411610572435 
299 1 9.645658442776657 4.643613185446134 2.509506498490964 
300 1 9.658236366241827 1.8662108284795509 2.521829464118953 
301 1 -4.865563346420287 7.392603902294502 2.524658179061641 
302 1 -4.846089784115302 10.102931586300414 2.614725666545329 
303 1 0.02043632267721307 7.4425222727417015 2.5090400614525423 
304 1 -0.0004495993901443285 10.22665106040765 2.5075203794886507 
305 1 4.846668636249124 7.448545942024715 2.5099729355293863 
306 1 4.846649315322143 10.222936464349791 2.5099729355293863 
307 1 9.59001417306899 10.2050327806475 2.560468506527591 
308 1 9.658236366241827 7.428288565324802 2.521814417762875 
309 1 -1.6358115009860805 5.569696562993951 5.011083567328753 
310 1 -1.606289124557847 2.7944805748782398 5.0375952467384195 
311 1 3.2107077859167514 2.7860028181095537 5.020818559711303 
312 1 3.206940205155295 5.577415783630704 5.0150106662651455 
313 1 8.020401385992217 2.780001458712773 5.025016493057103 
314 1 8.020401385992217 5.56889340708955 5.025016493057103 
315 1 12.82899369322972 2.804263459991579 5.066920594734695 
316 1 12.849647764173294 5.568525293966699 5.043252676623796 
317 1 -1.606289124557847 11.151373534895232 5.0375952467384195 
318 1 -0.02170261907015547 7.430363384744506 7.522922251011828 
319 1 -1.6358115009860805 8.359135103583446 5.011083567328753 
320 1 3.206940205155295 11.14736891031634 5.015025712621224 
321 1 3.1902082823890314 8.357562256603993 5.015055805333381 
322 1 8.035722881088807 11.151574323871332 5.026415804172369 
323 1 8.035742202015788 8.361120683458218 5.026415804172369 
324 1 12.86589666376501 11.150693083365114 5.043057073994781 
325 1 12.82899369322972 8.320862493750075 5.066920594734695 
326 1 -4.849335699848249 1.851653627712267 7.551435095779886 
327 1 -6.439482748800383 0.0002312865905815038 10.031541014494183 
328 1 -4.84351816873402 4.646770034348158 7.543731361467882 
329 1 -1.6248951772413465 5.574905921429448 10.027704193694259 
330 1 -0.0185919498260807 1.8537842218475553 7.536764898603708 
331 1 -0.01948071246724581 4.644672905042221 7.526473191046266 
332 1 -1.6324883015452052 2.785590085214236 10.027328034792307 
333 1 4.807331228914121 4.642508846077582 7.5297833893834545 
334 1 3.2052786054348577 2.784441126073217 10.027884749967196 
335 1 3.199694857537109 5.568915716975783 10.02391251196257 
336 1 4.807331228914121 1.8513189794187663 7.5297833893834545 
337 1 9.631766696276724 4.639608560867242 7.527481296903502 
338 1 8.031163142321097 2.7844857458456835 10.035122047240776 
339 1 8.031182463248076 5.570622423272638 10.035122047240776 
340 1 12.85646805139788 2.7771234833886664 10.036385941151341 
341 1 12.852275410242822 5.569283830098634 10.032218100517698 
342 1 9.626067022817082 1.8534049537815878 7.535847070882942 
343 1 -4.84351816873402 7.430084511166589 7.543731361467882 
344 1 -4.849339564033645 10.221820970038122 7.551435095779886 
345 1 -1.6324883015452052 11.145149076636116 10.027328034792307 
346 1 -0.01948071246724581 10.217325527962096 7.5264882374023445 
347 1 -1.6248951772413465 8.360228288008884 10.027704193694259 
348 1 3.199694857537109 11.1516858733025 10.02391251196257 
349 1 4.804877471187428 7.431378484568126 7.524065774073766 
350 1 4.804877471187428 10.215975779844976 7.524065774073766 
351 1 3.2008154713020556 8.360629865961084 10.030081517954603 
352 1 8.015397265903923 11.152634043467419 10.016509704772131 
353 1 9.656265631689681 10.224152353149512 7.542392235776928 
354 1 8.01537794497694 8.348314808760254 10.016524751128209 
355 1 12.85648737232486 8.36387595440804 10.036385941151341 
356 1 9.626086343744063 7.422532614676588 7.535862117239021 
357 1 -4.827423836558157 1.8737738799126682 12.557643643739326 
358 1 -4.846416307781295 4.646669639860108 12.53095140805672 
359 1 -1.6177657551850526 5.571994481275991 15.043888475733498 
360 1 -1.5356324945852986 0.0033442407914413166 15.011508717453363 
361 1 0.006641180812187564 1.861079554645872 12.529792838638706 
362 1 -1.5356324945852986 2.8283692920667516 15.011508717453363 
363 1 -0.004893412595964541 4.655013537311394 12.53215511654297 
364 1 3.204795582260312 2.784307266755816 15.041766939526482 
365 1 4.817977059681107 4.645721469695189 12.540325287893397 
366 1 4.817977059681107 1.8542415745153398 12.540325287893397 
367 1 8.029849319286331 2.779544106044989 15.044926674302891 
368 1 9.63586273279687 4.640790984837611 12.541047512985147 
369 1 8.029868640213312 5.5748166818845135 15.044926674302891 
370 1 12.85909569746741 2.8207950856905177 15.034303946911729 
371 1 9.636326435044435 1.8461096209832708 12.542025526130226 
372 1 -6.4401561136327645 5.577516178118754 15.038998410008107 
373 1 -4.846414375688597 7.428511664187135 12.53095140805672 
374 1 -4.827421904465459 10.212372733218285 12.557643643739326 
375 1 -0.025663409101430723 7.429225580546604 12.534066003764895 
376 1 -1.6177657551850526 8.367233592286166 15.043888475733498 
377 1 -0.004893412595964541 10.215418032689142 12.53215511654297 
378 1 3.211132846310351 11.142962707785244 15.044490329976623 
379 1 3.2111521672373318 5.584242608818119 15.044490329976623 
380 1 4.796994532978843 7.4235030947277405 12.528363434811283 
381 1 3.185841752891138 8.356301748031807 15.037253032703044 
382 1 4.79697521205186 10.219299952893751 12.528363434811283 
383 1 8.01218999202494 11.133893739031375 15.035522701754058 
384 1 8.01218999202494 8.365203392638927 15.035522701754058 
385 1 9.551778058571951 10.193989386961976 12.485932710670955 
386 1 12.64874876541624 11.088013457992417 14.897713126434464 
387 1 12.85909569746741 8.321732579313178 15.034303946911729 
388 1 9.636326435044435 7.435751222269869 12.542025526130226 
389 1 -4.782259237645435 2.030333506555449 2.5824060936895057 
390 1 -4.865940104496433 4.678115424506065 2.52659915899572 
391 1 -1.6172827320105068 5.574091610581929 0.001350977705636341 
392 2 -5.165528466183969 0.36799711144244135 1.6738168355555283 
393 1 0.10674290350504112 1.889970857318106 2.520114179526046 
394 1 0.018040527731465694 4.654277311065693 2.5050527770918376 
395 1 4.8388629817484645 4.647963613261645 2.51155280291759 
396 1 4.8388436608214835 1.864057924458029 2.51155280291759 
397 1 9.645928935754402 4.643691270047952 2.5073247768596354 
398 1 9.668978801643725 1.8698027201631258 2.518624590274311 
399 1 -4.86593237612564 7.38579938699332 2.52659915899572 
400 1 -4.782257305552736 10.081882208639215 2.5824060936895057 
401 1 0.025652972962306286 7.444028190062455 2.507294684147479 
402 1 -1.617263411083525 8.36542649150126 0.001348266352271062 
403 1 0.018040527731465694 10.229395176414357 2.5050527770918376 
404 1 4.854126514064111 7.454848484885646 2.510996087742699 
405 1 4.854126514064111 10.220939729531905 2.510996087742699 
406 1 9.648614544604875 10.221943674412406 2.538365409448818 
407 1 9.668978801643725 7.4308988220141075 2.518624590274311 
408 1 -1.6376276681223727 5.56787830726593 5.009849766130347 
409 1 -1.6076029475926106 2.7927180938658025 5.0370836706317625 
410 1 3.21482314336388 2.7871963970230396 5.022172731758336 
411 1 8.022584650741164 2.77876326002682 5.024595195086914 
412 1 8.022603971668145 5.571403269290806 5.024595195086914 
413 1 12.833379543654594 2.8000692013797033 5.066574528544899 
414 1 12.850497884960493 5.568781857658383 5.04596102071786 
415 1 -1.6075836266656287 11.15238863471885 5.0370836706317625 
416 1 -0.023171009520774888 7.429939496906072 7.522139840495766 
417 1 -1.6376276681223727 8.359893639715382 5.009849766130347 
418 1 3.2113453765071505 11.14891944740956 5.015206268894161 
419 1 3.2113453765071505 5.578408573568089 5.015191222538083 
420 1 3.1885080408146305 8.357071439106859 5.01546205694749 
421 1 8.039335894434409 11.146543444525703 5.019825500210147 
422 1 8.039335894434409 8.36822638222355 5.019825500210147 
423 1 12.873277257872068 11.152823677500402 5.083637096337498 
424 1 12.833379543654594 8.32758892444944 5.066574528544899 
425 1 -4.853582439598855 1.8480059613131086 7.548034619306227 
426 1 -6.436346382723423 0.0011366775486478565 10.039244748806185 
427 1 -4.8431510711213654 4.646379611339074 7.542422328489085 
428 1 -1.624354191285856 5.574649357737763 10.027508591065242 
429 1 -0.017722508111899238 1.8540296305961224 7.535651468253926 
430 1 -0.017413373280189326 4.646201132249208 7.525299575272172 
431 1 -1.6318507109548053 2.785835493962803 10.026154419018212 
432 1 4.808239312482268 4.642631550451865 7.529512554974049 
433 1 3.2072686609139858 2.785010028172168 10.02777942547465 
434 1 3.2000233132958 5.568882252146434 10.0246497834104 
435 1 4.808239312482268 1.8517094024278506 7.529512554974049 
436 1 9.631245031248213 4.639463546606724 7.527601667752127 
437 1 8.030911970270331 2.784139942609066 10.035392881650184 
438 1 8.030911970270331 5.5708232122487376 10.035392881650184 
439 1 12.855656572464643 2.7767999900382825 10.037710020486216 
440 1 12.853956330890242 5.569774647595769 10.03285004747298 
441 1 9.625236222956865 1.8527021923652363 7.533891044592786 
442 1 -4.8431510711213654 7.430686878094891 7.542422328489085 
443 1 -4.85358823587695 10.223025703894725 7.548034619306227 
444 1 -1.6318700318817871 11.145260626067284 10.026154419018212 
445 1 -0.017413373280189326 10.217002034611712 7.525299575272172 
446 1 -1.624354191285856 8.360786035164718 10.027508591065242 
447 1 3.2000233132958 11.15192012710795 10.0246497834104 
448 1 4.8066163546157945 7.43180237240656 7.523433827118485 
449 1 4.8066163546157945 10.216555836887045 7.523433827118485 
450 1 3.201839480432092 8.360919894482118 10.029344246506776 
451 1 8.015532512392795 11.153615678461687 10.015712247899991 
452 1 9.661289072704957 10.22560249575468 7.5401954677895215 
453 1 8.015532512392795 8.347411258367803 10.015727294256067 
454 1 12.855675893391624 8.363730940147523 10.037710020486216 
455 1 9.625236222956865 7.422744558595805 7.533891044592786 
456 1 -4.824597184940716 1.8737627249695514 12.55230218733159 
457 1 -4.844969170350356 4.646981978267376 12.530665527291237 
458 1 -1.4964110128121861 0.006148336927286146 14.999020241908514 
459 1 0.008940371123024704 1.861737696289757 12.527084494544642 
460 1 -1.4964110128121861 2.8482139358713483 14.999005195552437 
461 1 -0.0006428086599621352 4.6584827246206855 12.530033580335955 
462 1 3.2168711616239545 2.7877876090082245 15.039419707978293 
463 1 4.8183055154398 4.646413076168424 12.54070144679535 
464 1 4.8183055154398 1.8537507570182052 12.54070144679535 
465 1 8.03226443515906 2.779309852239538 15.044700978961718 
466 1 9.63860630442829 4.641582985798896 12.53933222839224 
467 1 8.03226443515906 5.576434148636434 15.044700978961718 
468 1 12.865529566152357 2.82601559906913 15.035056264715637 
469 1 9.636229830409526 1.8456522683154863 12.541604228160038 
470 1 -6.436481706496004 5.578575897714838 15.037629191604996 
471 1 -4.844965306164959 7.429035946513619 12.530665527291237 
472 1 -4.824593320755319 10.214012509856438 12.552317233687665 
473 1 -0.027344329748849816 7.428734763049469 12.533178268756284 
474 1 -0.0006428086599621352 10.214414087808638 12.530033580335955 
475 1 3.219131710080827 11.142828848467845 15.045347972273078 
476 1 3.2191510310078097 5.58899461458583 15.045347972273078 