ITEM: TIMESTEP
0
ITEM: NUMBER OF ATOMS
97
ITEM: BOX BOUNDS xy xz yz pp pp pp
-6.4403077717034343e+00 1.2880619210125165e+01 -6.4403077717034343e+00
0.0000000000000000e+00 1.1154943116692573e+01 0.0000000000000000e+00
0.0000000000000000e+00 1.5046356078130312e+01 0.0000000000000000e+00
ITEM: ATOMS id type xs ys zs
2 1 0.0825123 0.176821 0.173778
8 1 0.0815042 0.418784 0.167792
97 2 0.0918423 0.0459212 0.10182
26 1 0.337258 0.168629 0.16764
32 1 0.33331 0.416528 0.166653
56 1 0.583342 0.416324 0.167111
50 1 0.583341 0.167018 0.167111
80 1 0.832567 0.416283 0.166785
74 1 0.833218 0.167299 0.167604
14 1 0.0815046 0.66272 0.167792
20 1 0.0825125 0.905691 0.173778
38 1 0.334391 0.667195 0.166754
44 1 0.33331 0.916782 0.166653
62 1 0.584184 0.667735 0.166816
68 1 0.584183 0.916449 0.166816
92 1 0.829687 0.914844 0.170172
86 1 0.833218 0.665919 0.167603
39 1 0.248668 0.499303 0.333043
33 1 0.250196 0.250515 0.334805
57 1 0.499511 0.249755 0.33369
63 1 0.499316 0.499995 0.333304
81 1 0.748448 0.249217 0.333969
87 1 0.748448 0.499231 0.333969
9 1 0.997328 0.251392 0.336754
15 1 0.998397 0.499198 0.335181
27 1 0.250196 0.99968 0.334805
40 1 0.33221 0.666105 0.499983
45 1 0.248668 0.749366 0.333043
51 1 0.499316 0.999321 0.333305
69 1 0.49845 0.749225 0.333307
75 1 0.749241 0.999698 0.334062
93 1 0.749242 0.749544 0.334062
3 1 0.999238 0.999619 0.335168
21 1 0.997328 0.745935 0.336754
4 1 0.0823445 0.165994 0.501878
5 1 4.2701e-05 2.0734e-05 0.666709
10 1 0.0826456 0.416566 0.501366
41 1 0.249233 0.49977 0.666454
28 1 0.332371 0.166185 0.500903
34 1 0.332325 0.416378 0.500219
35 1 0.24884 0.249718 0.666429
58 1 0.582148 0.416184 0.500439
59 1 0.49923 0.249615 0.666466
65 1 0.498941 0.499233 0.666202
52 1 0.582148 0.165964 0.500439
82 1 0.831848 0.415924 0.500286
83 1 0.749005 0.249619 0.666947
89 1 0.749006 0.499386 0.666947
11 1 0.99875 0.248959 0.667031
17 1 0.998533 0.499266 0.666754
76 1 0.831553 0.166151 0.500842
16 1 0.0826456 0.66608 0.501366
22 1 0.0823443 0.916349 0.501878
29 1 0.24884 0.999122 0.666429
46 1 0.332325 0.915946 0.50022
47 1 0.249233 0.749464 0.666454
53 1 0.498941 0.999708 0.666202
64 1 0.582021 0.666196 0.500059
70 1 0.582021 0.915825 0.500059
71 1 0.498999 0.7495 0.666612
77 1 0.748189 0.999793 0.66571
94 1 0.833116 0.916558 0.501277
95 1 0.748188 0.748396 0.665711
23 1 0.998751 0.749791 0.667031
88 1 0.831554 0.665403 0.500843
6 1 0.0834786 0.167977 0.834597
12 1 0.0824956 0.416557 0.832823
37 1 0.249602 0.499509 0.999836
25 1 0.253853 0.000299799 0.997684
30 1 0.333677 0.166839 0.832746
31 1 0.253853 0.253553 0.997684
36 1 0.33308 0.417305 0.832903
55 1 0.499205 0.249603 0.999695
60 1 0.582699 0.416472 0.833446
54 1 0.582699 0.166226 0.833446
79 1 0.748937 0.249176 0.999905
84 1 0.83206 0.41603 0.833494
85 1 0.748938 0.499762 0.999905
7 1 0.998886 0.252874 0.999199
78 1 0.832084 0.165497 0.833559
13 1 7.84942e-06 0.500004 0.999511
18 1 0.0824957 0.665939 0.832823
24 1 0.0834787 0.915502 0.834597
42 1 0.332005 0.666003 0.83303
43 1 0.249602 0.750092 0.999836
48 1 0.33308 0.915775 0.832903
49 1 0.499533 0.998926 0.999876
61 1 0.499534 0.500607 0.999876
66 1 0.581613 0.66549 0.832651
67 1 0.498224 0.749112 0.999395
72 1 0.581612 0.916123 0.832651
73 1 0.748023 0.998113 0.99928
91 1 0.748023 0.74991 0.99928
96 1 0.827708 0.913854 0.829831
1 1 0.987999 0.994 0.990121
19 1 0.998886 0.746013 0.999199
90 1 0.832084 0.666588 0.833559
ITEM: TIMESTEP
10
ITEM: NUMBER OF ATOMS
97
ITEM: BOX BOUNDS xy xz yz pp pp pp
-6.4403077717034343e+00 1.2880619210125165e+01 -6.4403077717034343e+00
0.0000000000000000e+00 1.1154943116692573e+01 0.0000000000000000e+00
0.0000000000000000e+00 1.5046356078130312e+01 0.0000000000000000e+00
ITEM: ATOMS id type xs ys zs
2 1 0.0837736 0.183846 0.170125
8 1 0.0813658 0.421148 0.167771
97 2 0.0838485 0.0419243 0.111148
26 1 0.331804 0.165902 0.167798
32 1 0.336396 0.419045 0.166721
56 1 0.582558 0.415886 0.166893
50 1 0.582558 0.166672 0.166893
80 1 0.832 0.416 0.166967
74 1 0.832778 0.166617 0.167043
14 1 0.0813658 0.660218 0.167771
20 1 0.0837736 0.899928 0.170125
38 1 0.334676 0.667338 0.166876
44 1 0.336396 0.917351 0.166721
62 1 0.584517 0.66809 0.166895
68 1 0.584517 0.916427 0.166895
92 1 0.83359 0.916795 0.167245
86 1 0.832778 0.666161 0.167043
39 1 0.249 0.499633 0.333726
33 1 0.250435 0.251498 0.334912
57 1 0.499162 0.249581 0.333505
63 1 0.500345 0.500852 0.333741
81 1 0.748296 0.249279 0.333898
87 1 0.748296 0.499017 0.333898
9 1 0.997241 0.251176 0.337197
15 1 0.99806 0.49903 0.335544
27 1 0.250435 0.998938 0.334912
40 1 0.332507 0.666253 0.500043
45 1 0.249 0.749367 0.333726
51 1 0.500345 0.999493 0.333741
69 1 0.499136 0.749568 0.333436
75 1 0.750202 0.999446 0.333634
93 1 0.750202 0.750756 0.333634
3 1 0.0006952 0.000347589 0.33616
21 1 0.997241 0.746065 0.337197
4 1 0.0824305 0.16644 0.501409
5 1 0.999235 0.999618 0.666688
10 1 0.0829554 0.416865 0.501355
41 1 0.249289 0.499704 0.666847
28 1 0.332771 0.166386 0.500767
34 1 0.332669 0.416703 0.500169
35 1 0.249583 0.250003 0.666505
58 1 0.582044 0.415907 0.500237
59 1 0.499434 0.249717 0.666844
65 1 0.499019 0.499388 0.666394
52 1 0.582044 0.166136 0.500237
82 1 0.831876 0.415938 0.500665
83 1 0.748877 0.249646 0.666976
89 1 0.748877 0.49923 0.666976
11 1 0.998738 0.249527 0.666905
17 1 0.998645 0.499323 0.666929
76 1 0.831346 0.166091 0.500831
16 1 0.0829554 0.666091 0.501355
22 1 0.0824305 0.91599 0.501409
29 1 0.249583 0.99958 0.666505
46 1 0.332669 0.915966 0.500169
47 1 0.249289 0.749584 0.666847
53 1 0.499019 0.999631 0.666394
64 1 0.582262 0.666394 0.499789
70 1 0.582262 0.915868 0.499789
71 1 0.498975 0.749488 0.666496
77 1 0.748047 0.999828 0.665691
94 1 0.832852 0.916426 0.500372
95 1 0.748047 0.748219 0.665691
23 1 0.998738 0.749212 0.666905
88 1 0.831346 0.665255 0.500831
6 1 0.0836389 0.168605 0.832172
12 1 0.082496 0.416866 0.832771
37 1 0.248979 0.499267 0.000264263
25 1 0.251367 0.99833 0.99852
30 1 0.332765 0.166383 0.832929
31 1 0.251367 0.253037 0.99852
36 1 0.333205 0.417007 0.833038
55 1 0.49815 0.249075 0.0003843
60 1 0.582453 0.416209 0.833297
54 1 0.582453 0.166244 0.833297
79 1 0.748421 0.24953 0.999846
84 1 0.832103 0.416052 0.833231
85 1 0.748422 0.498892 0.999846
7 1 0.998118 0.252508 0.999214
78 1 0.832073 0.165786 0.832979
13 1 0.99857 0.499285 0.999031
18 1 0.082496 0.66563 0.832771
24 1 0.0836389 0.915034 0.832172
42 1 0.332182 0.666091 0.833446
43 1 0.248979 0.749712 0.000264272
48 1 0.333205 0.916199 0.833038
49 1 0.499767 0.999369 0.999629
61 1 0.499767 0.500399 0.999629
66 1 0.581677 0.66554 0.83287
67 1 0.498635 0.749318 0.999758
72 1 0.581677 0.916137 0.83287
73 1 0.749075 0.998774 0.999861
91 1 0.749075 0.750301 0.999861
96 1 0.827537 0.913768 0.828886
1 1 0.991594 0.995797 0.99198
19 1 0.998118 0.74561 0.999214
90 1 0.832073 0.666287 0.832979
ITEM: TIMESTEP
20
ITEM: NUMBER OF ATOMS
97
ITEM: BOX BOUNDS xy xz yz pp pp pp
-6.4403077717034343e+00 1.2880619210125165e+01 -6.4403077717034343e+00
0.0000000000000000e+00 1.1154943116692573e+01 0.0000000000000000e+00
0.0000000000000000e+00 1.5046356078130312e+01 0.0000000000000000e+00
ITEM: ATOMS id type xs ys zs
2 1 0.0840105 0.186967 0.1685
8 1 0.080933 0.421993 0.167791
97 2 0.0824113 0.0412057 0.118145
26 1 0.327569 0.163785 0.167352
32 1 0.336921 0.419542 0.166703
56 1 0.581377 0.415071 0.166876
50 1 0.581377 0.166306 0.166876
80 1 0.831276 0.415638 0.166908
74 1 0.83216 0.166799 0.166898
14 1 0.080933 0.65894 0.167791
20 1 0.0840105 0.897043 0.1685
38 1 0.335242 0.667621 0.166915
44 1 0.336921 0.917379 0.166703
62 1 0.585069 0.668396 0.166821
68 1 0.585069 0.916673 0.166821
92 1 0.834461 0.917231 0.16732
86 1 0.83216 0.665361 0.166898
39 1 0.249061 0.499874 0.333732
33 1 0.250487 0.252355 0.334869
57 1 0.498066 0.249033 0.333095
63 1 0.500677 0.501338 0.333812
81 1 0.747847 0.249176 0.333846
87 1 0.747847 0.498672 0.333846
9 1 0.997111 0.251027 0.336983
15 1 0.997589 0.498795 0.335766
27 1 0.250487 0.998131 0.334869
40 1 0.332808 0.666404 0.500086
45 1 0.249061 0.749187 0.333732
51 1 0.500677 0.999339 0.333812
69 1 0.499511 0.749756 0.33346
75 1 0.750729 0.999633 0.333533
93 1 0.750729 0.751096 0.333533
3 1 0.00220103 0.00110051 0.335245
21 1 0.997111 0.746084 0.336983
4 1 0.0823513 0.166406 0.501171
5 1 0.99936 0.99968 0.666556
10 1 0.0831353 0.416923 0.501308
41 1 0.249345 0.499829 0.666845
28 1 0.332539 0.166269 0.500611
34 1 0.332895 0.416948 0.500221
35 1 0.249511 0.250046 0.666403
58 1 0.581811 0.415616 0.500148
59 1 0.499177 0.249589 0.66679
65 1 0.49926 0.499624 0.666459
52 1 0.581811 0.166195 0.500148
82 1 0.831838 0.415919 0.500706
83 1 0.74861 0.249519 0.666911
89 1 0.74861 0.499091 0.666911
11 1 0.998695 0.249552 0.666805
17 1 0.998611 0.499305 0.666877
76 1 0.83126 0.166188 0.500799
16 1 0.0831353 0.666212 0.501308
22 1 0.0823513 0.915945 0.501171
29 1 0.249511 0.999465 0.666403
46 1 0.332895 0.915947 0.500221
47 1 0.249345 0.749516 0.666845
53 1 0.49926 0.999636 0.666459
64 1 0.58268 0.666667 0.49987
70 1 0.58268 0.916013 0.49987
71 1 0.499043 0.749521 0.666615
77 1 0.74846 0.99967 0.665827
94 1 0.833485 0.916742 0.500007
95 1 0.74846 0.74879 0.665827
23 1 0.998695 0.749143 0.666805
88 1 0.83126 0.665072 0.500799
6 1 0.0831445 0.168195 0.832192
12 1 0.0826089 0.416936 0.83267
37 1 0.248819 0.499485 0.000313578
25 1 0.252029 0.997409 0.99764
30 1 0.332294 0.166147 0.83261
31 1 0.252029 0.25462 0.99764
36 1 0.333286 0.417356 0.832828
55 1 0.496834 0.248417 0.000697109
60 1 0.581913 0.415706 0.833378
54 1 0.581913 0.166207 0.833378
79 1 0.747574 0.24922 0.999802
84 1 0.831875 0.415937 0.833114
85 1 0.747574 0.498354 0.999802
7 1 0.997748 0.252504 0.998791
78 1 0.831705 0.165929 0.832846
13 1 0.99785 0.498925 0.998774
18 1 0.0826089 0.665673 0.83267
24 1 0.0831445 0.91495 0.832192
42 1 0.332436 0.666218 0.833566
43 1 0.248819 0.749334 0.000313581
48 1 0.333286 0.91593 0.832828
49 1 0.500088 0.99907 0.999559
61 1 0.500088 0.501018 0.999559
66 1 0.582256 0.666021 0.832987
67 1 0.498994 0.749497 0.999818
72 1 0.582256 0.916235 0.832987
73 1 0.750225 0.999057 0.999909
91 1 0.750225 0.751168 0.999909
96 1 0.8293 0.91465 0.829794
1 1 0.995318 0.997659 0.994461
19 1 0.997748 0.745244 0.998791
90 1 0.831705 0.665777 0.832846
ITEM: TIMESTEP
30
ITEM: NUMBER OF ATOMS
97
ITEM: BOX BOUNDS xy xz yz pp pp pp
-6.4403077717034343e+00 1.2880619210125165e+01 -6.4403077717034343e+00
0.0000000000000000e+00 1.1154943116692573e+01 0.0000000000000000e+00
0.0000000000000000e+00 1.5046356078130312e+01 0.0000000000000000e+00
ITEM: ATOMS id type xs ys zs
2 1 0.0841277 0.189148 0.166981
8 1 0.0804389 0.422523 0.167739
97 2 0.0853367 0.0426685 0.124407
26 1 0.32292 0.16146 0.166839
32 1 0.337157 0.419742 0.166607
56 1 0.580274 0.414402 0.166818
50 1 0.580274 0.165873 0.166818
80 1 0.83054 0.41527 0.166831
74 1 0.831521 0.16682 0.166817
14 1 0.0804389 0.657916 0.167739
20 1 0.0841277 0.89498 0.166981
38 1 0.335593 0.667796 0.16688
44 1 0.337157 0.917415 0.166607
62 1 0.585318 0.668504 0.166797
68 1 0.585318 0.916815 0.166797
92 1 0.834394 0.917197 0.16762
86 1 0.831521 0.664701 0.166817
39 1 0.248956 0.499989 0.333647
33 1 0.250468 0.253097 0.334872
57 1 0.496836 0.248418 0.332598
63 1 0.500764 0.501659 0.333841
81 1 0.747327 0.249016 0.333766
87 1 0.747327 0.49831 0.333766
9 1 0.99697 0.250783 0.336703
15 1 0.997032 0.498516 0.335885
27 1 0.250468 0.997372 0.334872
40 1 0.333005 0.666502 0.500022
45 1 0.248956 0.748966 0.333647
51 1 0.500764 0.999105 0.333841
69 1 0.499713 0.749856 0.333499
75 1 0.750999 0.999763 0.333592
93 1 0.750999 0.751237 0.333592
3 1 0.00346032 0.00173015 0.334251
21 1 0.99697 0.746187 0.336703
4 1 0.0821557 0.166312 0.50099
5 1 0.999596 0.999798 0.666604
10 1 0.0831607 0.416899 0.501219
41 1 0.249355 0.499983 0.666733
28 1 0.332208 0.166104 0.500502
34 1 0.332989 0.417122 0.500229
35 1 0.24941 0.250127 0.666335
58 1 0.581509 0.41531 0.499984
59 1 0.499001 0.2495 0.666649
65 1 0.499497 0.499853 0.666455
52 1 0.581509 0.1662 0.499984
82 1 0.831658 0.415829 0.500717
83 1 0.748356 0.249369 0.666867
89 1 0.748356 0.498987 0.666867
11 1 0.998681 0.249548 0.666807
17 1 0.998472 0.499236 0.666808
76 1 0.831162 0.166305 0.500816
16 1 0.0831607 0.666261 0.501219
22 1 0.0821557 0.915844 0.50099
29 1 0.24941 0.999283 0.666335
46 1 0.332989 0.915867 0.500229
47 1 0.249355 0.749373 0.666733
53 1 0.499497 0.999644 0.666455
64 1 0.583004 0.666874 0.499979
70 1 0.583004 0.91613 0.499979
71 1 0.499107 0.749553 0.666677
77 1 0.748939 0.99956 0.666033
94 1 0.83406 0.91703 0.499772
95 1 0.748939 0.749379 0.666033
23 1 0.998681 0.749133 0.666807
88 1 0.831162 0.664857 0.500816
6 1 0.082771 0.167728 0.832425
12 1 0.0827659 0.41703 0.832552
37 1 0.248717 0.499703 0.000280318
25 1 0.252664 0.99678 0.996837
30 1 0.332063 0.166032 0.832262
31 1 0.252664 0.255884 0.996837
36 1 0.333452 0.417824 0.832551
55 1 0.495774 0.247887 0.000997539
60 1 0.581471 0.415308 0.833412
54 1 0.581471 0.166163 0.833412
79 1 0.746932 0.248949 0.999786
84 1 0.831648 0.415824 0.833022
85 1 0.746932 0.497983 0.999786
7 1 0.997504 0.252454 0.998407
78 1 0.831456 0.166067 0.832813
13 1 0.997267 0.498633 0.99852
18 1 0.0827659 0.665736 0.832552
24 1 0.082771 0.915043 0.832425
42 1 0.332746 0.666373 0.833582
43 1 0.248717 0.749014 0.000280321
48 1 0.333452 0.915627 0.832551
49 1 0.50047 0.9988 0.999446
61 1 0.50047 0.50167 0.999446
66 1 0.582936 0.666557 0.833065
67 1 0.499395 0.749698 0.999839
72 1 0.582936 0.91638 0.833065
73 1 0.751297 0.999369 7.85346e-05
91 1 0.751297 0.751928 7.85347e-05
96 1 0.831086 0.915543 0.830888
1 1 0.998817 0.999408 0.997152
19 1 0.997504 0.74505 0.998407
90 1 0.831456 0.66539 0.832813
ITEM: TIMESTEP
40
ITEM: NUMBER OF ATOMS
97
ITEM: BOX BOUNDS xy xz yz pp pp pp
-6.4403077717034343e+00 1.2880619210125165e+01 -6.4403077717034343e+00
0.0000000000000000e+00 1.1154943116692573e+01 0.0000000000000000e+00
0.0000000000000000e+00 1.5046356078130312e+01 0.0000000000000000e+00
ITEM: ATOMS id type xs ys zs
2 1 0.0842942 0.190132 0.166238
8 1 0.0801212 0.422707 0.167662
97 2 0.0878893 0.0439439 0.127888
26 1 0.320317 0.160159 0.166603
32 1 0.337244 0.419787 0.166546
56 1 0.579722 0.414101 0.16678
50 1 0.579722 0.165622 0.16678
80 1 0.83012 0.41506 0.166778
74 1 0.831169 0.16678 0.166776
14 1 0.0801212 0.657414 0.167662
20 1 0.0842942 0.894163 0.166238
38 1 0.335708 0.667854 0.16684
44 1 0.337243 0.917457 0.166546
62 1 0.585351 0.668476 0.166786
68 1 0.585351 0.916875 0.166786
92 1 0.833972 0.916986 0.167788
86 1 0.831169 0.664389 0.166776
39 1 0.248846 0.500022 0.333567
33 1 0.250502 0.253535 0.334938
57 1 0.496148 0.248074 0.332317
63 1 0.500761 0.501803 0.333857
81 1 0.747029 0.248916 0.333714
87 1 0.747029 0.498113 0.333714
9 1 0.996899 0.250622 0.336511
15 1 0.996697 0.498349 0.335906
27 1 0.250502 0.996966 0.334938
40 1 0.333071 0.666535 0.499959
45 1 0.248846 0.748824 0.333567
51 1 0.500761 0.998958 0.333857
69 1 0.499776 0.749888 0.333518
75 1 0.751063 0.99982 0.33366
93 1 0.751063 0.751243 0.33366
3 1 0.00410378 0.00205186 0.33362
21 1 0.996899 0.746276 0.336511
4 1 0.0820112 0.166229 0.500881
5 1 0.999735 0.999867 0.666649
10 1 0.0831276 0.416859 0.501143
41 1 0.249349 0.500072 0.666651
28 1 0.332013 0.166007 0.500466
34 1 0.333009 0.417223 0.50024
35 1 0.249349 0.250172 0.666305
58 1 0.58131 0.415127 0.499881
59 1 0.498914 0.249457 0.666569
65 1 0.499633 0.499982 0.666446
52 1 0.58131 0.166183 0.499881
82 1 0.831516 0.415758 0.50071
83 1 0.748211 0.249276 0.666837
89 1 0.748211 0.498935 0.666837
11 1 0.998685 0.249543 0.666809
17 1 0.99838 0.49919 0.666753
76 1 0.831098 0.166365 0.500824
16 1 0.0831276 0.666269 0.501143
22 1 0.0820112 0.915782 0.500881
29 1 0.249349 0.999177 0.666305
46 1 0.333009 0.915786 0.50024
47 1 0.249349 0.749277 0.666651
53 1 0.499633 0.999651 0.666446
64 1 0.583161 0.66698 0.500047
70 1 0.583161 0.916181 0.500047
71 1 0.499132 0.749566 0.6667
77 1 0.749227 0.999494 0.66616
94 1 0.834375 0.917187 0.49964
95 1 0.749227 0.749733 0.66616
23 1 0.998685 0.749142 0.666809
88 1 0.831098 0.664733 0.500824
6 1 0.0825928 0.167445 0.832586
12 1 0.0828732 0.417088 0.832476
37 1 0.248673 0.499822 0.000245893
25 1 0.253011 0.996476 0.996425
30 1 0.331971 0.165985 0.832085
31 1 0.253011 0.256535 0.996425
36 1 0.333563 0.418099 0.83239
55 1 0.495193 0.247596 0.00118681
60 1 0.581248 0.415099 0.833432
54 1 0.581248 0.166149 0.833432
79 1 0.746625 0.248817 0.999775
84 1 0.831537 0.415768 0.83296
85 1 0.746625 0.497808 0.999775
7 1 0.997402 0.252378 0.998184
78 1 0.831345 0.166152 0.832791
13 1 0.996965 0.498483 0.998365
18 1 0.0828732 0.665785 0.832476
24 1 0.0825928 0.915148 0.832586
42 1 0.332939 0.66647 0.833576
43 1 0.248673 0.748851 0.000245891
48 1 0.333563 0.915463 0.83239
49 1 0.500688 0.998667 0.999372
61 1 0.500688 0.502021 0.999372
66 1 0.583338 0.666871 0.833099
67 1 0.499634 0.749817 0.999844
72 1 0.583338 0.916467 0.833099
73 1 0.751844 0.999563 0.00016923
91 1 0.751844 0.75228 0.000169233
96 1 0.83212 0.91606 0.831552
1 1 0.000704227 0.00035208 0.998694
19 1 0.997402 0.745024 0.998184
90 1 0.831345 0.665192 0.832791
ITEM: TIMESTEP
50
ITEM: NUMBER OF ATOMS
97
ITEM: BOX BOUNDS xy xz yz pp pp pp
-6.4403077717034343e+00 1.2880619210125165e+01 -6.4403077717034343e+00
0.0000000000000000e+00 1.1154943116692573e+01 0.0000000000000000e+00
0.0000000000000000e+00 1.5046356078130312e+01 0.0000000000000000e+00
ITEM: ATOMS id type xs ys zs
2 1 0.0845162 0.190785 0.16578
8 1 0.0798575 0.422791 0.167575
97 2 0.0898936 0.044951 0.130483
26 1 0.31853 0.159265 0.16647
32 1 0.337301 0.419807 0.1665
56 1 0.579352 0.41392 0.166749
50 1 0.579352 0.165432 0.166749
80 1 0.829799 0.414899 0.166729
74 1 0.830926 0.166729 0.166747
14 1 0.0798576 0.657067 0.167575
20 1 0.0845162 0.893727 0.165781
38 1 0.335753 0.667876 0.1668
44 1 0.337301 0.917494 0.1665
62 1 0.585326 0.668413 0.166778
68 1 0.585326 0.916912 0.166778
92 1 0.833518 0.916759 0.167894
86 1 0.830926 0.664196 0.166747
39 1 0.248735 0.500029 0.333489
33 1 0.250562 0.253882 0.33503
57 1 0.495664 0.247832 0.332125
63 1 0.500733 0.501898 0.333874
81 1 0.746803 0.248832 0.33367
87 1 0.746803 0.497971 0.33367
9 1 0.996842 0.250494 0.336357
15 1 0.996433 0.498216 0.335894
27 1 0.250562 0.99668 0.33503
40 1 0.333103 0.666551 0.499898
45 1 0.248735 0.748706 0.333489
51 1 0.500733 0.998835 0.333874
69 1 0.499801 0.749901 0.333529
75 1 0.751068 0.999852 0.33372
93 1 0.751068 0.751215 0.33372
3 1 0.00454661 0.00227342 0.333124
21 1 0.996842 0.746348 0.336357
4 1 0.0818867 0.166156 0.500793
5 1 0.99985 0.999925 0.666686
10 1 0.0830822 0.41682 0.501069
41 1 0.249337 0.500144 0.666582
28 1 0.33186 0.16593 0.50046
34 1 0.333012 0.417312 0.500258
35 1 0.249298 0.250209 0.666288
58 1 0.581145 0.414987 0.499804
59 1 0.498848 0.249424 0.66651
65 1 0.499741 0.500085 0.666441
52 1 0.581145 0.166158 0.499804
82 1 0.831387 0.415694 0.500695
83 1 0.748096 0.2492 0.666809
89 1 0.748096 0.498896 0.666809
11 1 0.998693 0.249541 0.666807
17 1 0.998301 0.499151 0.666701
76 1 0.831044 0.166407 0.500829
16 1 0.0830822 0.666262 0.501069
22 1 0.0818867 0.91573 0.500793
29 1 0.249298 0.999089 0.666288
46 1 0.333012 0.9157 0.500258
47 1 0.249337 0.749193 0.666582
53 1 0.499741 0.999656 0.666441
64 1 0.583273 0.667059 0.500105
70 1 0.583273 0.916214 0.500105
71 1 0.499146 0.749573 0.666712
77 1 0.749461 0.999445 0.666258
94 1 0.834609 0.917304 0.499538
95 1 0.749461 0.750015 0.666258
23 1 0.998693 0.749153 0.666807
88 1 0.831044 0.664637 0.500829
6 1 0.082476 0.167235 0.832715
12 1 0.0829599 0.417132 0.832414
37 1 0.248641 0.499909 0.000211573
25 1 0.253286 0.996273 0.996138
30 1 0.331908 0.165954 0.831959
31 1 0.253286 0.257014 0.996138
36 1 0.333653 0.418315 0.832264
55 1 0.494782 0.247391 0.00132581
60 1 0.581084 0.414943 0.833445
54 1 0.581084 0.166141 0.833445
79 1 0.74642 0.248728 0.999761
84 1 0.831454 0.415727 0.832903
85 1 0.74642 0.497692 0.999761
7 1 0.997348 0.252294 0.998024
78 1 0.831275 0.166228 0.832769
13 1 0.99674 0.49837 0.998237
18 1 0.0829599 0.665828 0.832414
24 1 0.082476 0.91524 0.832715
42 1 0.333097 0.666548 0.833565
43 1 0.248641 0.748732 0.000211591
48 1 0.333653 0.915338 0.832264
49 1 0.500847 0.998571 0.999309
61 1 0.500847 0.502276 0.999309
66 1 0.583652 0.667114 0.833116
67 1 0.499818 0.749909 0.999845
72 1 0.583652 0.916537 0.833116
73 1 0.752208 0.999712 0.00022557
91 1 0.752208 0.752496 0.000225552
96 1 0.832905 0.916453 0.832057
1 1 0.00205323 0.00102676 0.999825
19 1 0.997348 0.745054 0.998024
90 1 0.831275 0.665047 0.832769
ITEM: TIMESTEP
60
ITEM: NUMBER OF ATOMS
97
ITEM: BOX BOUNDS xy xz yz pp pp pp
-6.4403077717034343e+00 1.2880619210125165e+01 -6.4403077717034343e+00
0.0000000000000000e+00 1.1154943116692573e+01 0.0000000000000000e+00
0.0000000000000000e+00 1.5046356078130312e+01 0.0000000000000000e+00
ITEM: ATOMS id type xs ys zs
2 1 0.0847859 0.191282 0.165485
8 1 0.0796165 0.422818 0.16748
97 2 0.0914144 0.0457115 0.132624
26 1 0.317302 0.158651 0.166402
32 1 0.337355 0.419832 0.166462
56 1 0.579085 0.41381 0.166723
50 1 0.579085 0.165276 0.166723
80 1 0.829524 0.414762 0.16668
74 1 0.830754 0.166671 0.166724
14 1 0.0796166 0.656799 0.16748
20 1 0.0847858 0.893499 0.165486
38 1 0.335754 0.667877 0.166757
44 1 0.337355 0.917523 0.166462
62 1 0.585272 0.668338 0.166772
68 1 0.585272 0.916934 0.166772
92 1 0.833083 0.916542 0.167962
86 1 0.830753 0.664083 0.166724
39 1 0.24861 0.500016 0.33341
33 1 0.250641 0.254178 0.335142
57 1 0.495313 0.247656 0.331997
63 1 0.500684 0.501966 0.333895
81 1 0.746612 0.24875 0.333629
87 1 0.746612 0.497862 0.333629
9 1 0.996784 0.250381 0.336227
15 1 0.996195 0.498097 0.335859
27 1 0.250641 0.996463 0.335142
40 1 0.333113 0.666557 0.499832
45 1 0.24861 0.748594 0.33341
51 1 0.500684 0.998718 0.333895
69 1 0.499795 0.749898 0.333535
75 1 0.75104 0.999865 0.333771
93 1 0.75104 0.751174 0.333771
3 1 0.00487741 0.00243883 0.332706
21 1 0.996784 0.746403 0.336227
4 1 0.0817698 0.16609 0.500717
5 1 0.999963 0.999982 0.666718
10 1 0.0830224 0.416782 0.500996
41 1 0.249316 0.500209 0.666519
28 1 0.331723 0.165862 0.500474
34 1 0.333001 0.417398 0.500283
35 1 0.249255 0.250247 0.666279
58 1 0.580989 0.414869 0.499744
59 1 0.498787 0.249394 0.666466
65 1 0.499832 0.500177 0.666436
52 1 0.580989 0.16612 0.499744
82 1 0.831253 0.415626 0.50067
83 1 0.747991 0.249129 0.666779
89 1 0.747991 0.498862 0.666779
11 1 0.998705 0.249543 0.6668
17 1 0.998218 0.499109 0.666645
76 1 0.830989 0.166436 0.500831
16 1 0.0830224 0.666241 0.500996
22 1 0.0817698 0.91568 0.500717
29 1 0.249255 0.999008 0.666279
46 1 0.333001 0.915603 0.500283
47 1 0.249316 0.749107 0.666519
53 1 0.499832 0.999655 0.666436
64 1 0.583362 0.667128 0.500157
70 1 0.583362 0.916235 0.500157
71 1 0.499154 0.749577 0.666716
77 1 0.749672 0.999409 0.666339
94 1 0.834798 0.917399 0.499452
95 1 0.749672 0.750263 0.666339
23 1 0.998705 0.749162 0.6668
88 1 0.830989 0.664553 0.500831
6 1 0.0824006 0.167079 0.832826
12 1 0.0830328 0.41717 0.832359
37 1 0.248614 0.499977 0.000174385
25 1 0.253537 0.996133 0.995923
30 1 0.331859 0.165929 0.831863
31 1 0.253537 0.257404 0.995924
36 1 0.333733 0.418501 0.832158
55 1 0.4945 0.24725 0.00142549
60 1 0.580954 0.414821 0.833451
54 1 0.580954 0.166133 0.833451
79 1 0.746277 0.248659 0.999744
84 1 0.831378 0.415689 0.832845
85 1 0.746277 0.497618 0.999744
7 1 0.997331 0.252205 0.997908
78 1 0.831236 0.166303 0.832748
13 1 0.99655 0.498275 0.998121
18 1 0.0830327 0.665863 0.832359
24 1 0.0824006 0.915322 0.832826
42 1 0.33324 0.66662 0.833551
43 1 0.248614 0.748637 0.000174403
48 1 0.333733 0.915231 0.832158
49 1 0.500973 0.998491 0.999249
61 1 0.500973 0.502482 0.999249
66 1 0.583924 0.667324 0.833121
67 1 0.499969 0.749984 0.999841
72 1 0.583924 0.9166 0.833121
73 1 0.75247 0.999832 0.000261106
91 1 0.75247 0.752638 0.00026109
96 1 0.833557 0.916779 0.83247
1 1 0.00311151 0.00155591 0.000723728
19 1 0.997331 0.745126 0.997908
90 1 0.831236 0.664932 0.832748
ITEM: TIMESTEP
70
ITEM: NUMBER OF ATOMS
97
ITEM: BOX BOUNDS xy xz yz pp pp pp
-6.4403077717034343e+00 1.2880619210125165e+01 -6.4403077717034343e+00
0.0000000000000000e+00 1.1154943116692573e+01 0.0000000000000000e+00
0.0000000000000000e+00 1.5046356078130312e+01 0.0000000000000000e+00
ITEM: ATOMS id type xs ys zs
2 1 0.0849081 0.191452 0.165397
8 1 0.0795234 0.422815 0.16744
97 2 0.0918727 0.045935 0.133407
26 1 0.31696 0.15848 0.16639
32 1 0.337378 0.419847 0.166448
56 1 0.579003 0.413782 0.166713
50 1 0.579003 0.165221 0.166713
80 1 0.829423 0.414711 0.16666
74 1 0.830703 0.166644 0.166716
14 1 0.0795233 0.656708 0.16744
20 1 0.0849081 0.893457 0.165397
38 1 0.335742 0.667871 0.166738
44 1 0.337378 0.917532 0.166448
62 1 0.585246 0.668307 0.166769
68 1 0.585246 0.916939 0.166769
92 1 0.832923 0.916461 0.167981
86 1 0.830703 0.664059 0.166716
39 1 0.248553 0.500003 0.333378
33 1 0.250677 0.254284 0.33519
57 1 0.495208 0.247604 0.331962
63 1 0.500658 0.501988 0.333904
81 1 0.746542 0.248714 0.333613
87 1 0.746542 0.497828 0.333613
9 1 0.996758 0.250335 0.33618
15 1 0.996101 0.49805 0.335839
27 1 0.250677 0.996393 0.33519
40 1 0.33311 0.666555 0.499805
45 1 0.248553 0.748549 0.333378
51 1 0.500658 0.99867 0.333904
69 1 0.499781 0.74989 0.333535
75 1 0.75102 0.999864 0.333788
93 1 0.75102 0.751157 0.333788
3 1 0.00498737 0.00249364 0.332554
21 1 0.996758 0.746423 0.33618
4 1 0.0817235 0.166064 0.50069
5 1 1.03011e-05 5.14141e-06 0.666731
10 1 0.082991 0.416765 0.500965
41 1 0.249304 0.500233 0.666495
28 1 0.33167 0.165835 0.500485
34 1 0.332991 0.417432 0.500294
35 1 0.24924 0.250263 0.666277
58 1 0.580926 0.414827 0.499725
59 1 0.498764 0.249382 0.666452
65 1 0.499864 0.500213 0.666434
52 1 0.580926 0.166099 0.499725
82 1 0.831192 0.415596 0.500657
83 1 0.747951 0.249101 0.666767
89 1 0.747951 0.49885 0.666767
11 1 0.99871 0.249544 0.666796
17 1 0.998181 0.49909 0.666622
76 1 0.830964 0.166444 0.50083
16 1 0.082991 0.666226 0.500965
22 1 0.0817235 0.915659 0.50069
29 1 0.24924 0.998977 0.666277
46 1 0.332991 0.915558 0.500294
47 1 0.249304 0.74907 0.666495
53 1 0.499864 0.999651 0.666434
64 1 0.583392 0.667153 0.500177
70 1 0.583392 0.916239 0.500177
71 1 0.499155 0.749578 0.666715
77 1 0.749751 0.999397 0.666368
94 1 0.834863 0.917431 0.499421
95 1 0.749751 0.750355 0.666368
23 1 0.99871 0.749165 0.666796
88 1 0.830964 0.66452 0.50083
6 1 0.0823825 0.16703 0.832867
12 1 0.0830578 0.417184 0.832338
37 1 0.248603 0.499999 0.000158162
25 1 0.253638 0.996097 0.995855
30 1 0.331843 0.165922 0.831833
31 1 0.253638 0.257542 0.995855
36 1 0.333762 0.41857 0.83212
55 1 0.494427 0.247214 0.00145404
60 1 0.58091 0.414782 0.833452
54 1 0.58091 0.166128 0.833452
79 1 0.746237 0.248636 0.999737
84 1 0.831347 0.415673 0.832821
85 1 0.746237 0.497601 0.999737
7 1 0.997334 0.252167 0.997872
78 1 0.831229 0.166334 0.83274
13 1 0.996481 0.498241 0.998076
18 1 0.0830578 0.665874 0.832338
24 1 0.0823825 0.915352 0.832867
42 1 0.333294 0.666647 0.833543
43 1 0.248603 0.748604 0.000158158
48 1 0.333762 0.915192 0.83212
49 1 0.501018 0.998463 0.999225
61 1 0.501018 0.502555 0.999225
66 1 0.584025 0.667402 0.833119
67 1 0.50002 0.75001 0.999837
72 1 0.584025 0.916623 0.833119
73 1 0.752554 0.999872 0.000270689
91 1 0.752554 0.752682 0.000270693
96 1 0.833792 0.916896 0.832614
1 1 0.00347598 0.00173793 0.00103271
19 1 0.997334 0.745168 0.997872
90 1 0.831229 0.664895 0.83274
ITEM: TIMESTEP
80
ITEM: NUMBER OF ATOMS
97
ITEM: BOX BOUNDS xy xz yz pp pp pp
-6.4403077717034343e+00 1.2880619210125165e+01 -6.4403077717034343e+00
0.0000000000000000e+00 1.1154943116692573e+01 0.0000000000000000e+00
0.0000000000000000e+00 1.5046356078130312e+01 0.0000000000000000e+00
ITEM: ATOMS id type xs ys zs
2 1 0.0850241 0.191581 0.165326
8 1 0.079443 0.422806 0.167403
97 2 0.0921822 0.0460931 0.134081
26 1 0.316742 0.158371 0.166387
32 1 0.337401 0.419865 0.166437
56 1 0.578943 0.413766 0.166705
50 1 0.578943 0.165177 0.166705
80 1 0.829339 0.414669 0.166642
74 1 0.83067 0.166618 0.166708
14 1 0.0794431 0.656637 0.167403
20 1 0.085024 0.893441 0.165326
38 1 0.335724 0.667862 0.166721
44 1 0.337401 0.917536 0.166437
62 1 0.585222 0.668282 0.166766
68 1 0.585222 0.916941 0.166766
92 1 0.832795 0.916398 0.167993
86 1 0.83067 0.664051 0.166708
39 1 0.248496 0.499988 0.33335
33 1 0.250711 0.254371 0.335233
57 1 0.495136 0.247568 0.331942
63 1 0.500631 0.502004 0.333913
81 1 0.746485 0.248681 0.333598
87 1 0.746485 0.497804 0.333598
9 1 0.996735 0.250293 0.336139
15 1 0.996017 0.498009 0.335817
27 1 0.250711 0.99634 0.335233
40 1 0.3331 0.66655 0.49978
45 1 0.248496 0.748508 0.33335
51 1 0.500631 0.998628 0.333913
69 1 0.49976 0.74988 0.333533
75 1 0.750999 0.999857 0.333801
93 1 0.750999 0.751142 0.333801
3 1 0.00507528 0.00253769 0.332427
21 1 0.996735 0.746443 0.33614
4 1 0.0816829 0.166042 0.500667
5 1 5.20685e-05 2.60273e-05 0.666742
10 1 0.0829563 0.416749 0.500938
41 1 0.249288 0.500252 0.666474
28 1 0.331623 0.165812 0.500498
34 1 0.332976 0.417461 0.500305
35 1 0.249228 0.250277 0.666278
58 1 0.580869 0.414794 0.499712
59 1 0.498744 0.249372 0.666443
65 1 0.499887 0.500243 0.666433
52 1 0.580869 0.166075 0.499712
82 1 0.831132 0.415566 0.500643
83 1 0.747915 0.249075 0.666755
89 1 0.747915 0.49884 0.666755
11 1 0.998714 0.249545 0.666793
17 1 0.998143 0.499071 0.666601
76 1 0.83094 0.166447 0.50083
16 1 0.0829563 0.666207 0.500938
22 1 0.0816829 0.915641 0.500667
29 1 0.249228 0.998951 0.666278
46 1 0.332976 0.915515 0.500305
47 1 0.249288 0.749036 0.666474
53 1 0.499887 0.999644 0.666433
64 1 0.583412 0.667173 0.500192
70 1 0.583412 0.916239 0.500192
71 1 0.499154 0.749577 0.666713
77 1 0.749818 0.999387 0.666391
94 1 0.834915 0.917457 0.499397
95 1 0.749818 0.75043 0.666391
23 1 0.998714 0.749168 0.666793
88 1 0.83094 0.664493 0.50083
6 1 0.0823741 0.166995 0.832901
12 1 0.0830769 0.417195 0.832321
37 1 0.248594 0.500016 0.000143129
25 1 0.253732 0.996078 0.995804
30 1 0.331835 0.165917 0.831811
31 1 0.253732 0.257654 0.995804
36 1 0.333787 0.418627 0.83209
55 1 0.494392 0.247196 0.00147293
60 1 0.580877 0.414755 0.83345
54 1 0.580877 0.166122 0.83345