ITEM: TIMESTEP
0
ITEM: NUMBER OF ATOMS
97
ITEM: BOX BOUNDS xy xz yz pp pp pp
-6.4403077717034343e+00 1.2880619210125165e+01 -6.4403077717034343e+00
0.0000000000000000e+00 1.1154943116692573e+01 0.0000000000000000e+00
0.0000000000000000e+00 1.5046356078130312e+01 0.0000000000000000e+00
ITEM: ATOMS id type xs ys zs
2 1 0.0858162 0.182012 0.17163
8 1 0.0814851 0.419376 0.167921
37 1 0.249627 0.499697 8.97877e-05
97 2 0.0659792 0.0329896 0.111244
26 1 0.338858 0.169429 0.16749
32 1 0.334267 0.417239 0.166489
56 1 0.58378 0.416673 0.166921
50 1 0.583779 0.167106 0.166921
80 1 0.832581 0.41629 0.16664
74 1 0.833774 0.167621 0.167391
14 1 0.0814855 0.66211 0.167921
20 1 0.0858163 0.903804 0.17163
38 1 0.334661 0.66733 0.166638
43 1 0.249628 0.74993 8.96075e-05
44 1 0.334267 0.917028 0.166489
62 1 0.58457 0.6683 0.166884
68 1 0.58457 0.91627 0.166884
92 1 0.83272 0.91636 0.168703
86 1 0.833774 0.666153 0.167391
39 1 0.248574 0.49914 0.332961
33 1 0.250128 0.250357 0.334771
57 1 0.499724 0.249862 0.33378
81 1 0.748561 0.249106 0.333941
87 1 0.748562 0.499456 0.333941
9 1 0.997555 0.251016 0.336731
15 1 0.998441 0.499221 0.335361
27 1 0.250129 0.999771 0.334771
40 1 0.332134 0.666067 0.499931
45 1 0.248574 0.749434 0.332961
51 1 0.499544 0.99946 0.333317
63 1 0.499544 0.500084 0.333316
69 1 0.498362 0.749181 0.333334
75 1 0.749428 0.999247 0.333624
93 1 0.749428 0.750181 0.333624
3 1 0.99962 0.99981 0.337865
21 1 0.997555 0.746538 0.336731
4 1 0.0821247 0.165667 0.501652
5 1 0.000205031 0.000101899 0.667221
10 1 0.0826646 0.416531 0.501279
41 1 0.249261 0.499747 0.666441
28 1 0.332416 0.166207 0.500829
34 1 0.332432 0.416515 0.500141
35 1 0.248873 0.24974 0.666351
58 1 0.582195 0.416195 0.500421
59 1 0.499333 0.249666 0.666459
65 1 0.498958 0.49923 0.666251
52 1 0.582195 0.165999 0.500421
82 1 0.831821 0.415911 0.500294
83 1 0.748992 0.249588 0.666965
89 1 0.748992 0.499404 0.666965
11 1 0.998708 0.24893 0.667119
17 1 0.99862 0.49931 0.666796
76 1 0.83151 0.166088 0.500712
16 1 0.0826646 0.666134 0.501279
22 1 0.0821244 0.916457 0.501652
29 1 0.248872 0.999132 0.666351
46 1 0.332432 0.915917 0.500141
47 1 0.249261 0.749514 0.666441
53 1 0.498958 0.999729 0.666251
64 1 0.582111 0.666234 0.500017
70 1 0.582111 0.915877 0.500017
71 1 0.499052 0.749526 0.666563
77 1 0.748196 0.999881 0.665657
94 1 0.833376 0.916688 0.501131
95 1 0.748196 0.748315 0.665658
23 1 0.998709 0.749778 0.667119
88 1 0.83151 0.665422 0.500712
6 1 0.0836249 0.167976 0.834242
12 1 0.0825705 0.416585 0.832804
25 1 0.255883 0.000551176 0.996854
30 1 0.333796 0.166898 0.832566
31 1 0.255883 0.255332 0.996853
36 1 0.3333 0.417616 0.832762
55 1 0.49983 0.249915 0.999539
60 1 0.582716 0.416534 0.833471
54 1 0.582716 0.166182 0.833471
79 1 0.749062 0.249155 0.99989
84 1 0.832202 0.416101 0.83338
85 1 0.749062 0.499907 0.99989
7 1 0.999219 0.253342 0.999249
78 1 0.832079 0.165456 0.833531
13 1 0.000198027 0.500099 0.99942
18 1 0.0825707 0.665986 0.832804
24 1 0.0836251 0.915649 0.834243
42 1 0.331918 0.665959 0.832971
48 1 0.3333 0.915685 0.832762
49 1 0.499947 0.998914 0.999933
61 1 0.499948 0.501033 0.999933
66 1 0.58175 0.66554 0.832587
67 1 0.498021 0.74901 0.999294
72 1 0.58175 0.916211 0.832587
73 1 0.748168 0.997921 0.999172
91 1 0.748168 0.750246 0.999173
96 1 0.827774 0.913887 0.829547
1 1 0.987124 0.993562 0.990044
19 1 0.999219 0.745877 0.999249
90 1 0.832079 0.666623 0.833531
ITEM: TIMESTEP
10
ITEM: NUMBER OF ATOMS
97
ITEM: BOX BOUNDS xy xz yz pp pp pp
-6.4403077717034343e+00 1.2880619210125165e+01 -6.4403077717034343e+00
0.0000000000000000e+00 1.1154943116692573e+01 0.0000000000000000e+00
0.0000000000000000e+00 1.5046356078130312e+01 0.0000000000000000e+00
ITEM: ATOMS id type xs ys zs
2 1 0.0855976 0.186874 0.168534
8 1 0.0813925 0.421648 0.167775
37 1 0.24908 0.499428 0.000221094
97 2 0.0537829 0.0268915 0.123809
26 1 0.334452 0.167226 0.167552
32 1 0.337273 0.41964 0.166659
56 1 0.582843 0.416077 0.166862
50 1 0.582843 0.166766 0.166862
80 1 0.83195 0.415975 0.166987
74 1 0.832839 0.167162 0.167102
14 1 0.0813926 0.659744 0.167775
20 1 0.0855977 0.898724 0.168534
38 1 0.334893 0.667446 0.166875
43 1 0.24908 0.749652 0.000221104
44 1 0.337273 0.917634 0.166659
62 1 0.584882 0.668486 0.166859
68 1 0.584882 0.916396 0.166859
92 1 0.837596 0.918798 0.166238
86 1 0.832839 0.665677 0.167102
39 1 0.249038 0.499611 0.333703
33 1 0.2506 0.251586 0.33476
57 1 0.499436 0.249718 0.333637
81 1 0.748361 0.249294 0.33396
87 1 0.748361 0.499067 0.33396
9 1 0.997372 0.250709 0.336871
15 1 0.997997 0.498999 0.335601
27 1 0.2506 0.999015 0.33476
40 1 0.332518 0.666259 0.500006
45 1 0.249038 0.749426 0.333703
51 1 0.500454 0.999542 0.333715
63 1 0.500454 0.500912 0.333715
69 1 0.499149 0.749575 0.333393
75 1 0.750867 0.999384 0.333174
93 1 0.750867 0.751483 0.333174
3 1 0.00171155 0.000855765 0.33579
21 1 0.997372 0.746662 0.336871
4 1 0.0824155 0.166359 0.501313
5 1 0.99925 0.999625 0.666687
10 1 0.0829234 0.416815 0.501278
41 1 0.249275 0.499727 0.666796
28 1 0.3328 0.1664 0.50073
34 1 0.332699 0.41674 0.500153
35 1 0.249597 0.25003 0.666445
58 1 0.582074 0.415939 0.500244
59 1 0.4995 0.24975 0.666784
65 1 0.499064 0.499433 0.666353
52 1 0.582074 0.166135 0.500244
82 1 0.831865 0.415932 0.500674
83 1 0.748897 0.249654 0.66698
89 1 0.748897 0.499244 0.66698
11 1 0.998717 0.249553 0.666828
17 1 0.998662 0.499331 0.666923
76 1 0.831331 0.166085 0.500781
16 1 0.0829234 0.666109 0.501278
22 1 0.0824155 0.916056 0.501313
29 1 0.249597 0.999568 0.666445
46 1 0.332699 0.915959 0.500153
47 1 0.249275 0.749547 0.666796
53 1 0.499064 0.999632 0.666353
64 1 0.582368 0.666458 0.499699
70 1 0.582368 0.915911 0.499699
71 1 0.498978 0.749489 0.666459
77 1 0.748061 0.999807 0.665682
94 1 0.832983 0.916491 0.500293
95 1 0.748061 0.748255 0.665682
23 1 0.998717 0.749164 0.666828
88 1 0.831331 0.665246 0.500781
6 1 0.0838528 0.168933 0.8319
12 1 0.0825424 0.416874 0.832763
25 1 0.253298 0.998471 0.997684
30 1 0.333004 0.166502 0.832567
31 1 0.253298 0.254827 0.997684
36 1 0.333371 0.417304 0.832817
55 1 0.499454 0.249727 3.26673e-05
60 1 0.582475 0.416235 0.833237
54 1 0.582475 0.166239 0.833237
79 1 0.748602 0.249591 0.999778
84 1 0.832095 0.416047 0.833228
85 1 0.748602 0.499011 0.999778
7 1 0.99857 0.252651 0.998936
78 1 0.832118 0.165805 0.832945
13 1 0.998583 0.499291 0.998969
18 1 0.0825424 0.665669 0.832763
24 1 0.0838528 0.914919 0.8319
42 1 0.332208 0.666104 0.833416
48 1 0.333371 0.916067 0.832818
49 1 0.500183 0.999373 0.999604
61 1 0.500183 0.50081 0.999604
66 1 0.581779 0.665651 0.832826
67 1 0.49861 0.749305 0.999738
72 1 0.581779 0.916128 0.832826
73 1 0.749154 0.99852 0.999662
91 1 0.749154 0.750633 0.999662
96 1 0.827937 0.913968 0.828971
1 1 0.99433 0.997165 0.992221
19 1 0.99857 0.745919 0.998936
90 1 0.832118 0.666313 0.832945
ITEM: TIMESTEP
20
ITEM: NUMBER OF ATOMS
97
ITEM: BOX BOUNDS xy xz yz pp pp pp
-6.4403077717034343e+00 1.2880619210125165e+01 -6.4403077717034343e+00
0.0000000000000000e+00 1.1154943116692573e+01 0.0000000000000000e+00
0.0000000000000000e+00 1.5046356078130312e+01 0.0000000000000000e+00
ITEM: ATOMS id type xs ys zs
2 1 0.0853298 0.189323 0.166853
8 1 0.0810732 0.422437 0.167715
37 1 0.248958 0.499677 0.000242862
97 2 0.0514068 0.0257031 0.132652
26 1 0.330754 0.165377 0.167079
32 1 0.337797 0.42017 0.166645
56 1 0.581705 0.415267 0.166833
50 1 0.581705 0.166437 0.166833
80 1 0.831248 0.415624 0.166923
74 1 0.832236 0.167475 0.166892
14 1 0.0810732 0.658636 0.167715
20 1 0.0853297 0.896007 0.166853
38 1 0.335464 0.667732 0.166897
43 1 0.248958 0.749281 0.000242865
44 1 0.337797 0.917627 0.166645
62 1 0.585301 0.66862 0.166764
68 1 0.585301 0.916681 0.166764
92 1 0.837473 0.918737 0.166323
86 1 0.832236 0.664761 0.166892
39 1 0.24914 0.499885 0.33369
33 1 0.25067 0.252482 0.334593
57 1 0.498444 0.249222 0.333261
81 1 0.747951 0.249202 0.33391
87 1 0.747951 0.498748 0.33391
9 1 0.997443 0.250624 0.336462
15 1 0.997551 0.498775 0.335777
27 1 0.25067 0.998188 0.334593
40 1 0.332836 0.666418 0.500039
45 1 0.24914 0.749255 0.33369
51 1 0.500813 0.999413 0.333789
63 1 0.500813 0.501399 0.333789
69 1 0.499563 0.749781 0.333413
75 1 0.7516 0.999628 0.333025
93 1 0.7516 0.751972 0.333025
3 1 0.00370402 0.00185199 0.333889
21 1 0.997443 0.746819 0.336462
4 1 0.0823105 0.166217 0.500918
5 1 0.999363 0.999681 0.666512
10 1 0.0831018 0.416851 0.501191
41 1 0.249339 0.499859 0.666778
28 1 0.332565 0.166282 0.500549
34 1 0.33292 0.416978 0.500193
35 1 0.249517 0.250062 0.666345
58 1 0.581857 0.415662 0.500166
59 1 0.499201 0.2496 0.666747
65 1 0.49931 0.49969 0.666414
52 1 0.581857 0.166195 0.500166
82 1 0.83183 0.415915 0.50071
83 1 0.748633 0.249522 0.6669
89 1 0.748633 0.499111 0.6669
11 1 0.998691 0.249577 0.666687
17 1 0.998642 0.499321 0.666851
76 1 0.831278 0.166195 0.500725
16 1 0.0831018 0.66625 0.501191
22 1 0.0823105 0.916093 0.500918
29 1 0.249517 0.999455 0.666345
46 1 0.33292 0.915942 0.500193
47 1 0.249339 0.74948 0.666778
53 1 0.49931 0.99962 0.666414
64 1 0.582854 0.666778 0.499755
70 1 0.582854 0.916076 0.499755
71 1 0.499044 0.749522 0.666563
77 1 0.748518 0.999618 0.665826
94 1 0.833802 0.916901 0.499786
95 1 0.748518 0.7489 0.665826
23 1 0.998691 0.749114 0.666687
88 1 0.831278 0.665083 0.500725
6 1 0.083208 0.168294 0.831925
12 1 0.0826902 0.416948 0.832641
25 1 0.253282 0.997615 0.997131
30 1 0.332394 0.166197 0.832408
31 1 0.253282 0.255667 0.997131
36 1 0.33341 0.417583 0.832651
55 1 0.498199 0.2491 0.000278354
60 1 0.581937 0.415745 0.833298
54 1 0.581937 0.166192 0.833298
79 1 0.747776 0.249288 0.999703
84 1 0.831875 0.415937 0.833099
85 1 0.747776 0.498488 0.999703
7 1 0.998218 0.252593 0.998395
78 1 0.831736 0.165955 0.832776
13 1 0.997879 0.49894 0.998694
18 1 0.0826902 0.665742 0.832641
24 1 0.083208 0.914914 0.831925
42 1 0.332492 0.666246 0.833527
48 1 0.33341 0.915826 0.832651
49 1 0.50051 0.999124 0.999521
61 1 0.50051 0.501386 0.999521
66 1 0.582407 0.66618 0.832952
67 1 0.499039 0.74952 0.999795
72 1 0.582407 0.916227 0.832952
73 1 0.750466 0.9989 0.999689
91 1 0.750466 0.751567 0.999689
96 1 0.830038 0.915019 0.830161
1 1 0.998903 0.999451 0.995459
19 1 0.998218 0.745625 0.998395
90 1 0.831736 0.665782 0.832776
ITEM: TIMESTEP
30
ITEM: NUMBER OF ATOMS
97
ITEM: BOX BOUNDS xy xz yz pp pp pp
-6.4403077717034343e+00 1.2880619210125165e+01 -6.4403077717034343e+00
0.0000000000000000e+00 1.1154943116692573e+01 0.0000000000000000e+00
0.0000000000000000e+00 1.5046356078130312e+01 0.0000000000000000e+00
ITEM: ATOMS id type xs ys zs
2 1 0.0847318 0.190768 0.165607
8 1 0.0806678 0.42293 0.167596
37 1 0.248883 0.499906 0.000194285
97 2 0.0537451 0.0268013 0.139777
26 1 0.326873 0.163435 0.166603
32 1 0.337962 0.420344 0.166543
56 1 0.580622 0.41458 0.166763
50 1 0.580622 0.166042 0.166763
80 1 0.830544 0.415272 0.166844
74 1 0.831626 0.167553 0.166776
14 1 0.0806666 0.657732 0.167596
20 1 0.0847179 0.894036 0.165596
38 1 0.335834 0.667917 0.166851
43 1 0.248883 0.748977 0.000194109
44 1 0.337961 0.917619 0.166543
62 1 0.585545 0.668716 0.166733
68 1 0.585546 0.91683 0.166733
92 1 0.837181 0.918589 0.166582
86 1 0.83163 0.664077 0.166776
39 1 0.249071 0.500034 0.333594
33 1 0.25073 0.253298 0.334574
57 1 0.497334 0.248667 0.332802
81 1 0.74745 0.249045 0.333834
87 1 0.74745 0.498405 0.333834
9 1 0.9974 0.250509 0.336145
15 1 0.997022 0.498511 0.335862
27 1 0.250729 0.997431 0.334573
40 1 0.333053 0.666526 0.499969
45 1 0.249071 0.749037 0.333594
51 1 0.50093 0.999181 0.333813
63 1 0.50093 0.501749 0.333813
69 1 0.499797 0.749898 0.333442
75 1 0.752026 0.999772 0.333034
93 1 0.752026 0.752254 0.333033
3 1 0.00539461 0.00269523 0.332114
21 1 0.997401 0.746892 0.336144
4 1 0.08211 0.166053 0.500616
5 1 0.999603 0.999801 0.666499
10 1 0.0831403 0.416831 0.50109
41 1 0.249356 0.500017 0.666665
28 1 0.332229 0.166114 0.50043
34 1 0.333023 0.417163 0.500202
35 1 0.249411 0.250138 0.666274
58 1 0.581568 0.415373 0.50001
59 1 0.499003 0.249501 0.666614
65 1 0.49955 0.499935 0.66641
52 1 0.581568 0.166194 0.50001
82 1 0.831654 0.415827 0.500715
83 1 0.748385 0.249372 0.666845
89 1 0.748385 0.499013 0.666845
11 1 0.998694 0.249569 0.666659
17 1 0.998512 0.499256 0.666775
76 1 0.831198 0.166309 0.500725
16 1 0.0831404 0.66631 0.50109
22 1 0.08211 0.916057 0.500616
29 1 0.249411 0.999273 0.666274
46 1 0.333023 0.91586 0.500202
47 1 0.249356 0.74934 0.666665
53 1 0.49955 0.999615 0.66641
64 1 0.58323 0.667026 0.499841
70 1 0.58323 0.916203 0.499841
71 1 0.499113 0.749557 0.666617
77 1 0.749018 0.999493 0.666015
94 1 0.834523 0.917262 0.499437
95 1 0.749018 0.749525 0.666015
23 1 0.998694 0.749124 0.666659
88 1 0.831198 0.664888 0.500725
6 1 0.0827767 0.167713 0.83214
12 1 0.0828575 0.417035 0.832513
25 1 0.253469 0.997034 0.996593
30 1 0.332097 0.166049 0.832149
31 1 0.253473 0.256438 0.99659
36 1 0.333544 0.417987 0.83242
55 1 0.497243 0.248621 0.000498638
60 1 0.581505 0.415369 0.833316
54 1 0.581505 0.166136 0.833316
79 1 0.747158 0.249022 0.999666
84 1 0.831653 0.415827 0.832996
85 1 0.747158 0.498136 0.999666
7 1 0.997926 0.252447 0.997969
78 1 0.831484 0.166092 0.832714
13 1 0.997297 0.498648 0.998426
18 1 0.0828576 0.665822 0.832513
24 1 0.0827767 0.915064 0.83214
42 1 0.332819 0.666409 0.833536
48 1 0.333544 0.915557 0.83242
49 1 0.500878 0.998878 0.999409
61 1 0.500878 0.501999 0.999409
66 1 0.583109 0.666733 0.833039
67 1 0.499467 0.749733 0.999812
72 1 0.583109 0.916376 0.833039
73 1 0.751661 0.999267 0.999904
91 1 0.751662 0.752395 0.999905
96 1 0.831901 0.91595 0.831278
1 1 0.00240469 0.00119978 0.998282
19 1 0.997927 0.745482 0.997971
90 1 0.831484 0.665392 0.832714
ITEM: TIMESTEP
40
ITEM: NUMBER OF ATOMS
97
ITEM: BOX BOUNDS xy xz yz pp pp pp
-6.4403077717034343e+00 1.2880619210125165e+01 -6.4403077717034343e+00
0.0000000000000000e+00 1.1154943116692573e+01 0.0000000000000000e+00
0.0000000000000000e+00 1.5046356078130312e+01 0.0000000000000000e+00
ITEM: ATOMS id type xs ys zs
2 1 0.0844101 0.19127 0.165086
8 1 0.0804007 0.423095 0.167483
37 1 0.248851 0.500028 0.000153533
97 2 0.0557309 0.0278233 0.143602
26 1 0.324655 0.162326 0.166378
32 1 0.337985 0.420353 0.166477
56 1 0.580052 0.414245 0.166718
50 1 0.580052 0.165807 0.166718
80 1 0.830141 0.41507 0.166791
74 1 0.831288 0.167541 0.166719
14 1 0.0804 0.657302 0.167483
20 1 0.0844025 0.893183 0.16508
38 1 0.33597 0.667985 0.166804
43 1 0.248851 0.748824 0.000153447
44 1 0.337984 0.917632 0.166477
62 1 0.585625 0.668742 0.166719
68 1 0.585626 0.916884 0.166719
92 1 0.83695 0.918474 0.166719
86 1 0.83129 0.663749 0.166719
39 1 0.248982 0.500086 0.333508
33 1 0.250821 0.253788 0.334638
57 1 0.496702 0.248351 0.332528
81 1 0.747154 0.248941 0.333784
87 1 0.747154 0.498213 0.333784
9 1 0.997359 0.25043 0.335963
15 1 0.996703 0.498351 0.335864
27 1 0.25082 0.997032 0.334637
40 1 0.333135 0.666567 0.499906
45 1 0.248982 0.748896 0.333508
51 1 0.500957 0.999028 0.33382
63 1 0.500957 0.50193 0.33382
69 1 0.499879 0.74994 0.333451
75 1 0.752212 0.999833 0.33305
93 1 0.752212 0.75238 0.33305
3 1 0.00631594 0.0031567 0.331151
21 1 0.99736 0.74693 0.335962
4 1 0.0819765 0.165954 0.500456
5 1 0.999748 0.999874 0.666509
10 1 0.0831179 0.416799 0.501012
41 1 0.249354 0.500107 0.666587
28 1 0.332026 0.166013 0.500389
34 1 0.333056 0.417279 0.500215
35 1 0.249353 0.250184 0.666242
58 1 0.581372 0.415198 0.49991
59 1 0.498908 0.249454 0.666535
65 1 0.499689 0.500076 0.666402
52 1 0.581372 0.166175 0.49991
82 1 0.831515 0.415758 0.500704
83 1 0.748246 0.24928 0.666808
89 1 0.748246 0.498966 0.666808
11 1 0.998705 0.249563 0.666645
17 1 0.998426 0.499213 0.666718
76 1 0.83114 0.166359 0.500721
16 1 0.0831179 0.666319 0.501012
22 1 0.0819765 0.916022 0.500456
29 1 0.249353 0.999169 0.666242
46 1 0.333056 0.915777 0.500215
47 1 0.249354 0.749248 0.666587
53 1 0.499689 0.999613 0.666402
64 1 0.583423 0.66716 0.499891
70 1 0.583422 0.916263 0.499891
71 1 0.499146 0.749573 0.666635
77 1 0.749313 0.999423 0.666128
94 1 0.834912 0.917456 0.49925
95 1 0.749313 0.74989 0.666128
23 1 0.998705 0.749142 0.666645
88 1 0.83114 0.664781 0.500721
6 1 0.0825913 0.167404 0.832279
12 1 0.0829658 0.417088 0.832435
25 1 0.2536 0.996751 0.996326
30 1 0.33198 0.16599 0.832013
31 1 0.253602 0.256851 0.996324
36 1 0.333643 0.418228 0.832287
55 1 0.49673 0.248365 0.000643773
60 1 0.581289 0.415174 0.833326
54 1 0.581289 0.166115 0.833326
79 1 0.746861 0.24889 0.999642
84 1 0.831544 0.415772 0.83293
85 1 0.74686 0.49797 0.999642
7 1 0.997783 0.252316 0.997738
78 1 0.831372 0.166173 0.83268
13 1 0.996991 0.498495 0.998266
18 1 0.0829658 0.665878 0.832434
24 1 0.0825913 0.915187 0.832279
42 1 0.333021 0.666511 0.833524
48 1 0.333643 0.915415 0.832287
49 1 0.501092 0.998753 0.999342
61 1 0.501091 0.502338 0.999342
66 1 0.583523 0.667054 0.833082
67 1 0.499711 0.749856 0.999816
72 1 0.583523 0.916469 0.833082
73 1 0.752295 0.99948 4.42224e-05
91 1 0.752296 0.752816 4.45639e-05
96 1 0.832934 0.916467 0.831915
1 1 0.00419201 0.0020945 0.999717
19 1 0.997783 0.745469 0.997739
90 1 0.831372 0.665199 0.83268
ITEM: TIMESTEP
50
ITEM: NUMBER OF ATOMS
97
ITEM: BOX BOUNDS xy xz yz pp pp pp
-6.4403077717034343e+00 1.2880619210125165e+01 -6.4403077717034343e+00
0.0000000000000000e+00 1.1154943116692573e+01 0.0000000000000000e+00
0.0000000000000000e+00 1.5046356078130312e+01 0.0000000000000000e+00
ITEM: ATOMS id type xs ys zs
2 1 0.0842288 0.191446 0.164821
8 1 0.0801775 0.423177 0.167369
37 1 0.24883 0.500118 0.000114293
97 2 0.0571017 0.0287378 0.146375
26 1 0.323092 0.161551 0.166244
32 1 0.337988 0.420339 0.166427
56 1 0.579653 0.414026 0.16668
50 1 0.579652 0.165627 0.16668
80 1 0.82983 0.414915 0.166742
74 1 0.831055 0.167518 0.166678
14 1 0.0801806 0.657015 0.167369
20 1 0.0842594 0.892591 0.164842
38 1 0.336041 0.668021 0.166759
43 1 0.24883 0.748712 0.000114616
44 1 0.337991 0.917649 0.166426
62 1 0.585657 0.668742 0.166708
68 1 0.585656 0.916915 0.166708
92 1 0.836745 0.918377 0.166804
86 1 0.831045 0.663527 0.166679
39 1 0.248889 0.500109 0.333425
33 1 0.250927 0.254174 0.334724
57 1 0.496246 0.248123 0.332329
81 1 0.746926 0.248854 0.33374
87 1 0.746926 0.498073 0.33374
9 1 0.99732 0.250369 0.335823
15 1 0.99645 0.498226 0.335837
27 1 0.250931 0.996756 0.334728
40 1 0.333183 0.666591 0.499844
45 1 0.248889 0.748779 0.333425
51 1 0.500962 0.9989 0.333826
63 1 0.500962 0.502062 0.333826
69 1 0.499923 0.749961 0.333454
75 1 0.752331 0.99987 0.333062
93 1 0.752331 0.75246 0.333062
3 1 0.00698476 0.00349825 0.330464
21 1 0.997318 0.746949 0.335827
4 1 0.0818713 0.165884 0.500337
5 1 0.999872 0.999936 0.666518
10 1 0.0830834 0.41677 0.500938
41 1 0.249345 0.500178 0.666521
28 1 0.331865 0.165933 0.500375
34 1 0.333076 0.417384 0.500234
35 1 0.24931 0.250225 0.666222
58 1 0.581208 0.415061 0.499831
59 1 0.498837 0.249418 0.666477
65 1 0.499801 0.500189 0.666395
52 1 0.581208 0.166147 0.499831
82 1 0.831391 0.415695 0.500684
83 1 0.748135 0.249204 0.666773
89 1 0.748135 0.498931 0.666773
11 1 0.998719 0.249562 0.666629
17 1 0.99835 0.499175 0.666664
76 1 0.831091 0.166391 0.500714
16 1 0.0830833 0.666313 0.500938
22 1 0.0818713 0.915986 0.500337
29 1 0.24931 0.999086 0.666222
46 1 0.333075 0.915691 0.500234
47 1 0.249345 0.749167 0.666521
53 1 0.499801 0.999612 0.666395
64 1 0.583569 0.667265 0.49993
70 1 0.583569 0.916305 0.499931
71 1 0.499169 0.749584 0.666643
77 1 0.749553 0.999373 0.666213
94 1 0.835203 0.917601 0.499112
95 1 0.749553 0.75018 0.666213
23 1 0.998719 0.749157 0.666629
88 1 0.831091 0.6647 0.500714
6 1 0.0824811 0.167194 0.832384
12 1 0.0830532 0.41713 0.83237
25 1 0.253711 0.996562 0.996153
30 1 0.3319 0.16595 0.831918
31 1 0.253703 0.257144 0.99616
36 1 0.333727 0.418418 0.832187
55 1 0.496363 0.248182 0.000754848
60 1 0.581131 0.415028 0.833332
54 1 0.581131 0.166102 0.833332
79 1 0.746659 0.248799 0.999619
84 1 0.831463 0.415731 0.832868
85 1 0.746659 0.49786 0.999619
7 1 0.997701 0.252195 0.997582
78 1 0.831302 0.166242 0.832651
13 1 0.996762 0.498382 0.998135
18 1 0.0830529 0.665923 0.832371
24 1 0.0824811 0.915286 0.832384
42 1 0.333188 0.666594 0.833509
48 1 0.333727 0.91531 0.832187
49 1 0.50125 0.998662 0.999286
61 1 0.501251 0.502589 0.999286
66 1 0.58385 0.667304 0.833108
67 1 0.4999 0.74995 0.999815
72 1 0.583849 0.916545 0.833108
73 1 0.752741 0.99964 0.000146437
91 1 0.752739 0.753098 0.000145036
96 1 0.833714 0.916857 0.832393
1 1 0.00546678 0.00273995 0.000724747
19 1 0.997698 0.745499 0.997576
90 1 0.831302 0.66506 0.832651
ITEM: TIMESTEP
60
ITEM: NUMBER OF ATOMS
97
ITEM: BOX BOUNDS xy xz yz pp pp pp
-6.4403077717034343e+00 1.2880619210125165e+01 -6.4403077717034343e+00
0.0000000000000000e+00 1.1154943116692573e+01 0.0000000000000000e+00
0.0000000000000000e+00 1.5046356078130312e+01 0.0000000000000000e+00
ITEM: ATOMS id type xs ys zs
2 1 0.0841825 0.191725 0.164729
8 1 0.0799759 0.423204 0.167252
37 1 0.248813 0.50019 7.32425e-05
97 2 0.0579812 0.0291233 0.148547
26 1 0.321978 0.160993 0.166168
32 1 0.337999 0.420338 0.166385
56 1 0.579353 0.413876 0.166646
50 1 0.579353 0.165477 0.166646
80 1 0.829562 0.414781 0.166691
74 1 0.830881 0.167492 0.166646
14 1 0.0799781 0.656782 0.167252
20 1 0.0842031 0.892321 0.164741
38 1 0.336072 0.668036 0.166711
43 1 0.248813 0.748623 7.34443e-05
44 1 0.338001 0.917661 0.166384
62 1 0.585661 0.668727 0.166698
68 1 0.58566 0.916933 0.166698
92 1 0.836562 0.918284 0.166862
86 1 0.830874 0.663382 0.166647
39 1 0.248782 0.500112 0.333341
33 1 0.251045 0.254498 0.334826
57 1 0.495907 0.247954 0.332184
81 1 0.746729 0.248768 0.333698
87 1 0.746729 0.497962 0.333698
9 1 0.997271 0.250318 0.335717
15 1 0.996221 0.498111 0.33579
27 1 0.251048 0.996549 0.334829
40 1 0.33321 0.666605 0.499778
45 1 0.248782 0.748669 0.333341
51 1 0.500948 0.998779 0.333835
63 1 0.500948 0.502169 0.333835
69 1 0.499936 0.749968 0.333451
75 1 0.752407 0.999889 0.33307
93 1 0.752407 0.752516 0.33307
3 1 0.00750137 0.00375505 0.32994
21 1 0.99727 0.74695 0.335719
4 1 0.0817808 0.165835 0.500244
5 1 0.999996 0.999998 0.666527
10 1 0.0830363 0.416746 0.500865
41 1 0.249329 0.500243 0.666461
28 1 0.331721 0.16586 0.50038
34 1 0.333084 0.417489 0.500257
35 1 0.24928 0.250269 0.66621
58 1 0.581052 0.414944 0.499768
59 1 0.498774 0.249387 0.666431
65 1 0.499899 0.500294 0.66639
52 1 0.581052 0.166108 0.499768
82 1 0.831262 0.415631 0.500655
83 1 0.748035 0.249134 0.666736
89 1 0.748035 0.498902 0.666736
11 1 0.998734 0.249566 0.66661
17 1 0.998272 0.499136 0.666606
76 1 0.83104 0.166412 0.500705
16 1 0.0830362 0.666291 0.500865
22 1 0.0817808 0.915946 0.500244
29 1 0.24928 0.99901 0.66621
46 1 0.333084 0.915595 0.500257
47 1 0.249329 0.749086 0.666461
53 1 0.499899 0.999605 0.66639
64 1 0.583693 0.667358 0.499965
70 1 0.583693 0.916335 0.499965
71 1 0.499187 0.749594 0.666642
77 1 0.74977 0.999336 0.666284
94 1 0.835439 0.91772 0.499001
95 1 0.74977 0.750434 0.666284
23 1 0.998734 0.749168 0.66661
88 1 0.83104 0.664629 0.500705
6 1 0.0824203 0.16705 0.832472
12 1 0.0831274 0.417167 0.832314
25 1 0.25381 0.99643 0.996048
30 1 0.331837 0.165918 0.831849
31 1 0.253804 0.257376 0.996053
36 1 0.333803 0.418581 0.832104
55 1 0.496099 0.24805 0.000837743
60 1 0.581005 0.414914 0.833333
54 1 0.581005 0.166091 0.833333
79 1 0.746516 0.248729 0.999594
84 1 0.831389 0.415695 0.832805
85 1 0.746516 0.497788 0.999594
7 1 0.997662 0.252087 0.997472
78 1 0.831265 0.166313 0.832625
13 1 0.996567 0.498284 0.998016
18 1 0.0831272 0.66596 0.832315
24 1 0.0824204 0.91537 0.832472
42 1 0.333341 0.666671 0.833489
48 1 0.333803 0.915223 0.832105
49 1 0.501379 0.998586 0.999233
61 1 0.501379 0.502792 0.999233
66 1 0.584136 0.667521 0.833121
67 1 0.500057 0.750028 0.999809
72 1 0.584136 0.916615 0.83312
73 1 0.753076 0.999767 0.000222194
91 1 0.753074 0.753307 0.000221248
96 1 0.834363 0.917182 0.832781
1 1 0.00647051 0.00323991 0.00151034
19 1 0.99766 0.74557 0.997468
90 1 0.831265 0.664953 0.832625
ITEM: TIMESTEP
70
ITEM: NUMBER OF ATOMS
97
ITEM: BOX BOUNDS xy xz yz pp pp pp
-6.4403077717034343e+00 1.2880619210125165e+01 -6.4403077717034343e+00
0.0000000000000000e+00 1.1154943116692573e+01 0.0000000000000000e+00
0.0000000000000000e+00 1.5046356078130312e+01 0.0000000000000000e+00
ITEM: ATOMS id type xs ys zs
2 1 0.0842049 0.191919 0.16473
8 1 0.079899 0.423203 0.167203
37 1 0.248807 0.500215 5.55946e-05
97 2 0.0581628 0.0290458 0.149302
26 1 0.321657 0.160827 0.166152
32 1 0.338011 0.420349 0.16637
56 1 0.579257 0.413833 0.166633
50 1 0.579257 0.165424 0.166633
80 1 0.829462 0.414731 0.16667
74 1 0.830826 0.167483 0.166635
14 1 0.0798984 0.656694 0.167203
20 1 0.0841995 0.892323 0.164727
38 1 0.336074 0.668037 0.166691
43 1 0.248807 0.748592 5.55411e-05
44 1 0.33801 0.917662 0.16637
62 1 0.585658 0.668719 0.166694
68 1 0.585658 0.916938 0.166694
92 1 0.836496 0.918247 0.166878
86 1 0.830827 0.663345 0.166635
39 1 0.248732 0.500107 0.333307
33 1 0.251096 0.254613 0.33487
57 1 0.495803 0.247902 0.332142
81 1 0.746656 0.248731 0.333682
87 1 0.746656 0.497925 0.333682
9 1 0.997248 0.2503 0.335682
15 1 0.99613 0.498065 0.335766
27 1 0.251095 0.996482 0.334869
40 1 0.333215 0.666607 0.49975
45 1 0.248732 0.748625 0.333307
51 1 0.500936 0.99873 0.333839
63 1 0.500936 0.502206 0.333839
69 1 0.49993 0.749965 0.333448
75 1 0.752426 0.999891 0.333072
93 1 0.752426 0.752535 0.333072
3 1 0.00767674 0.00383717 0.329759
21 1 0.997248 0.746949 0.335681
4 1 0.0817471 0.165819 0.500212
5 1 4.83931e-05 2.41711e-05 0.666532
10 1 0.0830107 0.416736 0.500835
41 1 0.249318 0.500267 0.666438
28 1 0.331665 0.165832 0.500387
34 1 0.333081 0.41753 0.500267
35 1 0.249271 0.250289 0.666208
58 1 0.580989 0.414902 0.499747
59 1 0.49875 0.249375 0.666417
65 1 0.499934 0.500335 0.666388
52 1 0.580989 0.166087 0.499747
82 1 0.831203 0.415602 0.50064
83 1 0.747996 0.249105 0.66672
89 1 0.747996 0.498891 0.66672
11 1 0.998741 0.249569 0.666602
17 1 0.998236 0.499118 0.666582
76 1 0.831018 0.166416 0.5007
16 1 0.0830107 0.666275 0.500835
22 1 0.0817471 0.915928 0.500212
29 1 0.249271 0.998982 0.666208
46 1 0.333081 0.915551 0.500267
47 1 0.249318 0.749052 0.666438
53 1 0.499934 0.999599 0.666388
64 1 0.583737 0.667393 0.499977
70 1 0.583737 0.916344 0.499977
71 1 0.499194 0.749597 0.666639
77 1 0.749853 0.999324 0.666308
94 1 0.835523 0.917762 0.498963
95 1 0.749853 0.750529 0.666308
23 1 0.998741 0.749172 0.666602
88 1 0.831018 0.664601 0.5007
6 1 0.08241 0.167009 0.832504
12 1 0.0831536 0.417181 0.832294
25 1 0.253848 0.996394 0.996026
30 1 0.331817 0.165908 0.831829
31 1 0.25385 0.257455 0.996024
36 1 0.333832 0.418641 0.832076
55 1 0.496028 0.248014 0.000861715
60 1 0.580963 0.414878 0.833331
54 1 0.580963 0.166085 0.833331
79 1 0.746476 0.248705 0.999582
84 1 0.83136 0.41568 0.832779
85 1 0.746476 0.497771 0.999582
7 1 0.99766 0.252048 0.997437
78 1 0.831261 0.166342 0.832615
13 1 0.996497 0.498248 0.997969
18 1 0.0831537 0.665972 0.832294
24 1 0.08241 0.915401 0.832504
42 1 0.333401 0.666701 0.83348
48 1 0.333832 0.915192 0.832076
49 1 0.501425 0.99856 0.999212
61 1 0.501425 0.502865 0.999212
66 1 0.584244 0.667602 0.833122
67 1 0.500112 0.750056 0.999805
72 1 0.584244 0.916641 0.833122
73 1 0.753187 0.99981 0.000245523
91 1 0.753187 0.753377 0.000245775
96 1 0.834599 0.917299 0.832916
1 1 0.00682211 0.00340981 0.00178556
19 1 0.99766 0.745613 0.997438
90 1 0.831261 0.664919 0.832615
ITEM: TIMESTEP
80
ITEM: NUMBER OF ATOMS
97
ITEM: BOX BOUNDS xy xz yz pp pp pp
-6.4403077717034343e+00 1.2880619210125165e+01 -6.4403077717034343e+00
0.0000000000000000e+00 1.1154943116692573e+01 0.0000000000000000e+00
0.0000000000000000e+00 1.5046356078130312e+01 0.0000000000000000e+00
ITEM: ATOMS id type xs ys zs
2 1 0.0842229 0.191951 0.164732
8 1 0.0798307 0.423204 0.16716
37 1 0.248803 0.500234 3.91084e-05
97 2 0.058223 0.0291599 0.149921
26 1 0.321449 0.160726 0.166144
32 1 0.338024 0.420363 0.166358
56 1 0.579187 0.413805 0.166623
50 1 0.579187 0.165382 0.166623
80 1 0.829378 0.414689 0.16665
74 1 0.830793 0.167475 0.166626
14 1 0.0798316 0.656631 0.16716
20 1 0.0842303 0.892222 0.164736
38 1 0.33607 0.668035 0.166671
43 1 0.248803 0.748568 3.91798e-05
44 1 0.338025 0.917661 0.166358
62 1 0.585653 0.668713 0.166689
68 1 0.585653 0.916941 0.166689
92 1 0.836442 0.918222 0.166889
86 1 0.830791 0.663316 0.166626
39 1 0.248681 0.500097 0.333277
33 1 0.251137 0.254703 0.334904
57 1 0.495732 0.247866 0.332114
81 1 0.746596 0.248697 0.333668
87 1 0.746596 0.497899 0.333668
9 1 0.997227 0.250281 0.335651
15 1 0.996049 0.498025 0.335742
27 1 0.251139 0.996435 0.334906
40 1 0.333212 0.666606 0.499724
45 1 0.248682 0.748585 0.333277
51 1 0.500922 0.998687 0.333844
63 1 0.500922 0.502235 0.333844
69 1 0.499917 0.749958 0.333444
75 1 0.752437 0.999887 0.333073
93 1 0.752437 0.752549 0.333073
3 1 0.0078157 0.00390949 0.329612
21 1 0.997227 0.746946 0.335652
4 1 0.0817182 0.165806 0.500186
5 1 9.5749e-05 4.78899e-05 0.666536
10 1 0.0829818 0.416725 0.500809
41 1 0.249305 0.500286 0.666419
28 1 0.331616 0.165808 0.500395
34 1 0.333074 0.417565 0.500277
35 1 0.249265 0.250307 0.666208
58 1 0.580931 0.414868 0.499732
59 1 0.49873 0.249365 0.666406
65 1 0.499961 0.500371 0.666386
52 1 0.580931 0.166063 0.499732
82 1 0.831146 0.415573 0.500625
83 1 0.747963 0.249079 0.666707
89 1 0.747963 0.498884 0.666707
11 1 0.998747 0.249571 0.666595
17 1 0.9982 0.4991 0.66656
76 1 0.830996 0.166417 0.500696
16 1 0.0829818 0.666256 0.500809
22 1 0.0817182 0.915912 0.500186
29 1 0.249265 0.998958 0.666208
46 1 0.333074 0.915509 0.500277
47 1 0.249305 0.74902 0.666419
53 1 0.499961 0.99959 0.666386
64 1 0.58377 0.667422 0.499986
70 1 0.58377 0.916348 0.499986
71 1 0.499197 0.749598 0.666636
77 1 0.749923 0.999315 0.666328
94 1 0.835591 0.917796 0.498933
95 1 0.749923 0.750608 0.666328
23 1 0.998746 0.749176 0.666595
88 1 0.830996 0.664579 0.500696
6 1 0.0824094 0.16698 0.832532
12 1 0.0831744 0.417193 0.832276
25 1 0.253891 0.996377 0.996011
30 1 0.331804 0.165902 0.831815
31 1 0.253889 0.257513 0.996013
36 1 0.333857 0.418691 0.832054
55 1 0.495989 0.247994 0.00087713
60 1 0.580932 0.414853 0.833327