ITEM: TIMESTEP
1
ITEM: NUMBER OF ATOMS
97
ITEM: BOX BOUNDS
-6.440307771703434 12.880619210125165
0.0 11.154943116692573
0.0 15.046356078130312
ITEM: ATOMS id type x y z 
2 1 -4.834551326521754 1.8616484567448237 2.529307503089784 
8 1 -4.826604629254128 4.652291731190921 2.5095967766274327 
26 1 0.00865055721829755 1.8616484567448237 2.529307503089784 
32 1 0.012746593738445 4.662610053573863 2.50809214101962 
56 1 4.834225959272825 4.652291731190921 2.5095967766274327 
97 2 -3.220146834423007 0.9295782212262772 1.2538625049656567 
50 1 4.834225959272825 1.8570637751238628 2.5095967766274327 
80 1 9.660458272844739 4.647896683602944 2.5059555584565256 
74 1 9.652845827613898 1.8570637751238628 2.5095967766274327 
14 1 -4.826604629254128 7.434323389550933 2.5095967766274327 
20 1 -4.834551326521754 10.220370827432953 2.529307503089784 
38 1 0.0008642236446201323 7.436877871524655 2.5104694652799644 
44 1 0.012746593738445 10.218005979492213 2.50809214101962 
62 1 4.829801466993988 7.436877871524655 2.5104694652799644 
67 1 3.220155719210865 8.36620733751943 0.0017671493823081708 
68 1 4.829801466993988 10.224866269508981 2.5104694652799644 
92 1 9.634973970155706 10.218005979492213 2.50809214101962 
86 1 9.652845827613898 7.434323389550933 2.5095967766274327 
33 1 -1.6060186315801008 2.793420855282154 5.017448175949802 
34 1 -0.0015895340820710757 4.646067272931807 7.520424555902858 
57 1 3.249581491004191 2.797235845828063 5.02930470453937 
51 1 3.226357736772032 0.0012346291041555341 5.019900731990538 
81 1 8.050174934471215 2.7884792154814595 5.01755350044235 
82 1 9.660458272844739 4.647896683602944 7.523057668216531 
9 1 12.86589666376501 2.797235845828063 5.02930470453937 
75 1 8.04631074907485 0.0012346291041555341 5.019900731990538 
15 1 -6.439867142506872 5.57759426272057 5.01755350044235 
27 1 -1.6060186315801008 11.152600578638067 5.017448175949802 
39 1 -1.6122206491412676 5.579825251343908 5.019900731990538 
45 1 -1.6122206491412676 8.362626600778972 5.019900731990538 
46 1 -0.0015895340820710757 10.2262829472848 7.520424555902858 
63 1 3.226357736772032 5.579825251343908 5.019900731990538 
69 1 3.220155719210865 8.36620733751943 5.0197201757176 
93 1 8.04631074907485 8.362626600778972 5.019900731990538 
94 1 9.663626904869759 10.2262829472848 7.520424555902858 
3 1 12.872504420792797 11.152600578638067 5.017448175949802 
21 1 12.86589666376501 8.349218359152706 5.02930470453937 
87 1 8.050174934471215 5.57759426272057 5.01755350044235 
4 1 -4.831622273991309 1.859964060334203 7.527014859865079 
10 1 -4.829330812051264 4.648911783426564 7.527210462494096 
11 1 -6.438726635915505 2.7878210738375744 10.0336625507012 
28 1 0.002776995415821659 1.859964060334203 7.527014859865079 
35 1 -1.6086849195035926 2.7903420909819467 10.027057200382899 
58 1 4.831095969101769 4.648911783426564 7.527210462494096 
59 1 3.2169870871858457 2.7878210738375744 10.0336625507012 
52 1 4.831095969101769 1.8586366221033164 7.527210462494096 
53 1 3.221913923566211 0.0005195994813641634 10.026876644109961 
83 1 8.051585362140889 2.7901189921196132 10.029569941847948 
89 1 8.051585362140889 5.576779951873052 10.029569941847948 
17 1 12.878223415179416 5.576779951873052 10.029569941847948 
76 1 9.658700068489392 1.8586366221033164 7.527210462494096 
77 1 8.049518022953833 0.0005195916729039817 10.026876644109961 
16 1 -4.829330812051264 7.436130490335837 7.527210462494096 
22 1 -4.831622273991309 10.223761930140427 7.527014859865079 
23 1 -6.438726632051321 8.368036748190567 10.0336625507012 
29 1 -1.6086849195035926 11.154139960788171 10.027057200382899 
40 1 0.002409897803166139 7.437324069249323 7.524502118400031 
41 1 -1.6109841098144306 5.5779735307865375 10.026876644109961 
47 1 -1.6109841098144306 8.365192237695812 10.026876644109961 
64 1 4.829028629914713 7.437324069249323 7.524502118400031 
65 1 3.221913923566211 5.5779735307865375 10.026876644109961 
70 1 4.829028629914713 10.223973874059643 7.524502118400031 
71 1 3.220155719210865 8.36620733751943 10.031029438387526 
95 1 8.049518022953833 8.365192237695812 10.026876644109961 
5 1 12.877836996639779 11.154139960788171 10.027057200382899 
88 1 9.658700068489392 7.436130490335837 7.527210462494096 
6 1 -4.834292426100197 1.8615034424843064 12.536623884298177 
12 1 -4.828092340631729 4.651477420343403 12.534186374613519 
30 1 0.008128892189787962 1.8615034424843064 12.536623884298177 
31 1 -1.6057481386023547 2.7937220387463046 15.024764557158196 
36 1 0.014717328290591247 4.6648856619696675 12.52476735570861 
55 1 3.245659342826878 2.7960980416301604 15.045994965584438 
60 1 4.834303242980752 4.651477420343403 12.534186374613519 
49 1 3.2277874853686885 0.002093715893344496 15.044490329976623 
54 1 4.834303242980752 1.8579227057438483 12.534186374613519 
79 1 8.050812525061614 2.789226596670278 15.043602594968014 
84 1 9.660458272844739 4.647896683602944 12.534366930886456 
85 1 8.050812525061614 5.57722614959772 15.043602594968014 
7 1 12.86786739831716 2.7960980416301604 15.045994965584438 
13 1 12.879769089337962 5.57722614959772 15.043602594968014 
73 1 8.046388032782778 0.002093704738401379 15.044490329976623 
78 1 9.65425625528357 1.8579227057438483 12.534186374613519 
18 1 -4.828092340631729 7.434278769778466 12.534186374613519 
24 1 -4.834292426100197 10.220672010897104 12.536623884298177 
25 1 -1.6057481386023547 11.152444409434434 15.024764557158196 
37 1 -1.613708360518868 5.579780631571442 15.044490329976623 
42 1 -0.0004302784631615708 7.436498603458688 12.536533606161708 
43 1 -1.613708360518868 8.361801134988337 15.044490329976623 
48 1 0.014717328290591247 10.21686817529431 12.52476735570861 
61 1 3.2277874853686885 5.579780631571442 15.044490329976623 
66 1 4.83045837851137 7.436498603458688 12.536533606161708 
72 1 4.83045837851137 10.225613650697799 12.536533606161708 
91 1 8.046388032782778 8.361801134988337 15.044490329976623 
96 1 9.631032501051415 10.21686817529431 12.52476735570861 
1 1 12.87198275576429 11.152444409434434 15.024764557158196 
19 1 12.86786739831716 8.351482812605395 15.045994965584438 
90 1 9.65425625528357 7.434278769778466 12.534186374613519 
ITEM: TIMESTEP
2
ITEM: NUMBER OF ATOMS
97
ITEM: BOX BOUNDS
-6.440307771703434 12.880619210125165
0.0 11.154943116692573
0.0 15.046356078130312
ITEM: ATOMS id type x y z 
2 1 -4.8872897288113535 1.9590534200397831 2.553968480701839 
8 1 -4.88587930114168 4.680034074722135 2.5160215706727946 
37 1 -1.6453946807690674 5.570923606736788 0.0033456776448209 
26 1 -0.21922045560538894 1.7958789121288041 2.5444290909483045 
32 1 0.022387736302377448 4.669704597396079 2.5107252533332924 
55 1 3.1080363799353137 2.7563752891916184 0.021565039385419486 
56 1 4.754720344742601 4.623233104371937 2.5095666839152764 
97 2 -3.592808874048517 0.8220021807975174 1.4299439916055847 
31 1 -1.6516933029651435 2.786683269639672 0.0008039824767719917 
50 1 4.754720344742601 1.840219811017657 2.5095666839152764 
80 1 9.59412953051612 4.628743646271583 2.5066025517678847 
74 1 9.604871965918015 1.8575769025072308 2.510604882484668 
73 1 8.064047360044167 0.0009328901238376232 0.0027525352418649248 
14 1 -4.88587930114168 7.3723576805377045 2.5160215706727946 
20 1 -4.8872897288113535 10.092524024372539 2.553968480701839 
25 1 -1.6516933029651435 11.13296787875269 0.0008039599072378745 
38 1 0.022407057229359317 7.443091174840653 2.5090400614525423 
44 1 0.022387736302377448 10.216477752285227 2.5107252533332924 
43 1 -1.6453946807690674 8.352364053111614 0.0033456776448209 
62 1 4.83743323315181 7.43875190196826 2.510755346045449 
68 1 4.83743323315181 10.227387286653352 2.510755346045449 
92 1 9.581145867584329 10.202467143730662 2.531203343955628 
67 1 3.2183781939285367 8.365694210136063 15.046356078130312 
91 1 8.064047360044167 8.373168022024245 0.0027525201955088466 
86 1 9.604871965918015 7.406112538408817 2.510604882484668 
1 1 12.845764257849947 11.144881358001317 0.014009993164180853 
39 1 -1.6442933879311026 5.576601472783184 5.01755350044235 
3 1 -6.409113555463462 0.009004928225438129 5.017899566632146 
33 1 -1.6218231498512363 2.8164558128181243 5.036827882578434 
57 1 3.1550828371360673 2.769950854964633 5.013205103535769 
58 1 4.7830448236979635 4.629234463768717 7.523027575504375 
81 1 7.983305206187106 2.773464662046391 5.019614851225054 
87 1 7.983305206187106 5.554012712971882 5.019614851225054 
52 1 4.7830448236979635 1.8505715982299478 7.523027575504375 
9 1 12.813904049256909 2.8031479656799103 5.057125416927832 
15 1 12.812976644761783 5.557950407892075 5.04161262381128 
75 1 8.053440171131143 0.0003194206806521802 5.027830161643712 
27 1 -1.6218231498512363 11.120440877632642 5.036827882578434 
45 1 -1.6442933879311026 8.34732201882287 5.01755350044235 
51 1 3.2175280731413363 11.139727774281404 5.0238880163512425 
40 1 -0.005511682259382589 7.4350373059104005 7.522004423291062 
63 1 3.2175280731413363 5.591169828493586 5.0238880163512425 
69 1 3.2137798133068625 8.364366771905177 5.02036716902896 
93 1 8.053440171131143 8.367646325181484 5.027830161643712 
94 1 9.677518651369692 10.230287571863693 7.520168767849531 
21 1 12.813904049256909 8.313277132430724 5.057125416927832 
4 1 -4.859763204140342 1.8559259709259601 7.536193137072739 
10 1 -4.839634662410673 4.649190657004481 7.53843504412838 
5 1 -6.43899087664128 0.00038006452890607936 10.035001676392152 
28 1 -0.03897552779191038 1.8479055668250584 7.531664183893222 
34 1 -0.012467215972841394 4.652838323403639 7.527059998933313 
35 1 -1.6254941259777835 2.7910336974551817 10.030909067538902 
59 1 3.1870782922179757 2.7791871478652546 10.033135928238465 
82 1 9.619266056519479 4.635994359297434 7.531107468718331 
83 1 8.01060567601243 2.778395146903969 10.032172961449463 
89 1 8.01060567601243 5.56484416273819 10.032172961449463 
11 1 12.858245576680208 2.7825670956296125 10.03758964963759 
17 1 12.844044695348561 5.566918982157896 10.030668325841651 
76 1 9.618396614805295 1.8561713796745274 7.536102858936271 
16 1 -4.839634662410673 7.429906032076722 7.53843504412838 
22 1 -4.859763204140342 10.211536112484533 7.536193137072739 
29 1 -1.6254941259777835 11.143732398860298 10.030909067538902 
41 1 -1.6238518471843282 5.5787097570322395 10.031059531099682 
46 1 -0.012467215972841394 10.213220508895153 7.527059998933313 
47 1 -1.6238518471843282 8.357015664391275 10.031059531099682 
53 1 3.212021608951515 11.149443729736044 10.029900961681665 
65 1 3.212021608951515 5.578274714250688 10.029900961681665 
64 1 4.827096537216532 7.439845086393695 7.527541482327814 
70 1 4.827096537216532 10.220326207660486 7.527541482327814 
71 1 3.204756940406348 8.36175651521587 10.03268453755612 
77 1 8.045711800338413 11.149176011101243 10.02841137242993 
95 1 8.045711800338413 8.369274946876521 10.02841137242993 
23 1 12.858245576680208 8.35945859693383 10.03758964963759 
88 1 9.618396614805295 7.415337676366321 7.536102858936271 
6 1 -4.8530858917754225 1.858145804606182 12.548645922804603 
12 1 -4.838347888673683 4.652771393744938 12.527611117007377 
30 1 -0.044675201251549446 1.8462657901869044 12.542085711554538 
36 1 -0.004313784786509345 4.6577464983749834 12.533178268756284 
60 1 4.787082897437164 4.6299483801281855 12.539858850854975 
79 1 7.978146518682957 2.773420042273924 15.043316714202529 
85 1 7.978146518682957 5.551078962932192 15.043316714202529 
54 1 4.787082897437164 1.8521890649818682 12.539858850854975 
84 1 9.6243474603157 4.637466811788837 12.531297474246518 
7 1 12.825709135642807 2.808000365935671 15.037207893634807 
13 1 12.81865699729444 5.5595901845302285 15.02721711319893 
78 1 9.62340073489359 1.8559371258690769 12.533118083331972 
18 1 -4.838347888673683 7.427061521581965 12.527611117007377 
24 1 -4.8530858917754225 10.213175889122686 12.548645922804603 
42 1 -0.0020918781835996825 7.4360189409046695 12.543048678343538 
48 1 -0.004313784786509345 10.213019719919053 12.533178268756284 
49 1 3.211384018361114 11.139683154508937 15.039148873568887 
61 1 3.211384018361114 5.587667176354944 15.039148873568887 
66 1 4.834728303374355 7.439778156734995 12.5367442551468 
72 1 4.834728303374355 10.224810494793397 12.5367442551468 
96 1 9.645117456821165 10.220939729531905 12.528137739470111 
19 1 12.825709135642807 8.315251557362378 15.037207893634807 
90 1 9.62340073489359 7.418449905495879 12.533118083331972 
ITEM: TIMESTEP
3
ITEM: NUMBER OF ATOMS
97
ITEM: BOX BOUNDS
-6.440307771703434 12.880619210125165
0.0 11.154943116692573
0.0 15.046356078130312
ITEM: ATOMS id type x y z 
2 1 -4.84678340539395 2.0745405461269013 2.5363491977343484 
8 1 -4.901662566393135 4.7048984429292435 2.51734565000767 
97 2 -4.073648783845286 0.683196761619265 1.7020437995581008 
37 1 -1.6398688956522642 5.574548963249713 0.0024620653377766194 
1 1 -6.425840590035199 0.004176221068856715 0.021559923624352925 
26 1 -0.3137577513274765 1.7685827663222573 2.519647742487624 
32 1 0.056972195599851005 4.679643651713052 2.5075203794886507 
56 1 4.746721480972125 4.617990281107092 2.5085886707701985 
55 1 3.0978928932698544 2.753441539151928 0.023866229084008737 
50 1 4.746721480972125 1.840844487832192 2.5085886707701985 
80 1 9.584179253120478 4.625865670947476 2.5065273199874945 
74 1 9.605239063530671 1.857532282734764 2.508468299921573 
73 1 8.089647588295092 0.0010119842480065318 0.003697506588995821 
14 1 -4.901662566393135 7.338390878747377 2.51734565000767 
20 1 -4.84678340539395 10.000417659058009 2.5363491977343484 
38 1 0.03917762184958651 7.447943575096414 2.5083930681411823 
44 1 0.056972195599851005 10.226506046147133 2.5075203794886507 
43 1 -1.6398688956522642 8.351917855386947 0.0024620653377766194 
62 1 4.854319723333928 7.447073489533311 2.5095666839152764 
68 1 4.854319723333928 10.228826274315406 2.5095666839152764 
92 1 9.58800479666288 10.204452723605433 2.534423264156348 
91 1 8.089647588295092 8.387870237052047 0.003697491542639743 
86 1 9.605239063530671 7.406380257043617 2.508468299921573 
39 1 -1.6424578998678294 5.576791106816168 5.0157930767812084 
3 1 -6.378870701668076 0.017735244061229522 5.015356732454943 
33 1 -1.6065982593895551 2.829451321549071 5.041823272796374 
57 1 3.13292173388791 2.7635479176156514 5.000069634679562 
58 1 4.781247977488652 4.627148489405896 7.5196872844550295 
81 1 7.980291141577942 2.7732973378996406 5.019133367830553 
87 1 7.980291141577942 5.552439865992429 5.019133367830553 
52 1 4.781247977488652 1.851620162882917 7.5196872844550295 
9 1 12.812493621587237 2.799489144337635 5.062692568676741 
15 1 12.804301548546942 5.555440545690819 5.049827934229939 
27 1 -1.6065982593895551 11.11623546407765 5.041823272796374 
45 1 -1.6424578998678294 8.348203259329088 5.0157930767812084 
51 1 3.226995327362431 11.139158872182453 5.024219036184961 
40 1 -0.004777487034073324 7.435249249829618 7.519912979796201 
63 1 3.226995327362431 5.597204652719716 5.024219036184961 
69 1 3.2150356735606795 8.36472373008491 5.0192988777474135 
75 1 8.061400393047656 11.154396524479855 5.026460943240603 
93 1 8.061400393047656 8.373112247308663 5.026460943240603 
94 1 9.686618807978132 10.232920138439232 7.516828476800185 
21 1 12.812493621587237 8.316110487982364 5.062692568676741 
4 1 -4.86073311467483 1.8542415745153398 7.535485958337066 
10 1 -4.837957605948651 4.649369136094347 7.538164209718974 
5 1 -6.437065063244366 0.0009360001219785571 10.033542179852574 
28 1 -0.03580689576689 1.848820272160627 7.5309118660893155 
34 1 -0.008892844481203532 4.655839003102029 7.527285694274485 
35 1 -1.624334870358874 2.791970712676984 10.027042154026821 
59 1 3.19295185402045 2.7808826992189917 10.029208829302071 
82 1 9.616966866208642 4.635336217653548 7.532296130848503 
83 1 8.00977487615221 2.778082808496702 10.031841941615745 
89 1 8.00977487615221 5.56467683859144 10.031841941615745 
11 1 12.85722156755017 2.7831806175010305 10.034730841982746 
17 1 12.843658276808924 5.566796277783612 10.029720405408728 
76 1 9.614802922386676 1.8564279433662112 7.536223229784895 
16 1 -4.837957605948651 7.430686878094891 7.538164209718974 
22 1 -4.86073311467483 10.212662761739319 7.535485958337066 
29 1 -1.624334870358874 11.143475835168612 10.027042154026821 
41 1 -1.6236586379145104 5.580037195263126 10.028817624044041 
46 1 -0.008892844481203532 10.21228349367335 7.527285694274485 
47 1 -1.6236586379145104 8.355810930534671 10.028817624044041 
53 1 3.2168904825509372 11.150414209787195 10.028005120815822 
65 1 3.2168904825509372 5.580115279864943 10.028005120815822 
64 1 4.83045837851137 7.441763736609767 7.526804210879987 
70 1 4.83045837851137 10.220359672489836 7.526804210879987 
71 1 3.204273917231802 8.361622655898469 10.031811848903589 
77 1 8.048049632503213 11.148462094741774 10.027463451997008 
95 1 8.048049632503213 8.371338611353108 10.027463451997008 
23 1 12.85722156755017 8.358253863077229 10.034730841982746 
88 1 9.614802922386676 7.412995138311817 7.536223229784895 
6 1 -4.847135046265019 1.8615480622567733 12.541363486462787 
12 1 -4.835476798924184 4.654109986918942 12.523939806124313 
30 1 -0.036927509531836655 1.8484967788102429 12.528017368621486 
31 1 -1.590735778337475 2.835541920490785 15.014472849600754 
36 1 0.004593162552113839 4.665153380604467 12.525369209951734 
60 1 4.784397288586689 4.627639306903031 12.539783619074583 
54 1 4.784397288586689 1.85295875605692 12.539783619074583 
79 1 7.976098500422884 2.7730184643217237 15.042308608345296 
84 1 9.622009628150899 4.6367975152018355 12.530048626692034 
85 1 7.976098500422884 5.550286961970906 15.042308608345296 
7 1 12.82686839126172 2.813354738631684 15.024132610202914 
13 1 12.812628868076107 5.557850013404024 15.018971710068115 
78 1 9.622067590931845 1.8564056334799781 12.530575249154769 
25 1 -1.590735778337475 11.119291918491625 15.014472849600754 
18 1 -4.835476798924184 7.42738501493235 12.523939806124313 
24 1 -4.847135046265019 10.213209353952037 12.541363486462787 
42 1 0.0010381119874569578 7.436922491297121 12.54207066519846 
48 1 0.004593162552113839 10.210755266466364 12.525369209951734 
49 1 3.228212545762288 11.138099152586367 15.035071311071714 
61 1 3.228212545762288 5.598967133732153 15.035071311071714 
66 1 4.844040990179595 7.44448554273024 12.535615778440942 
67 1 3.2225708350835944 8.366910098935781 15.044324820059765 
72 1 4.844040990179595 10.225479791380398 12.535615778440942 
96 1 9.66546239293303 10.226807229611286 12.529085659903032 
19 1 12.82686839126172 8.31055532631025 15.024132610202914 
90 1 9.622067590931845 7.417211706809926 12.530575249154769 
ITEM: TIMESTEP
4
ITEM: NUMBER OF ATOMS
97
ITEM: BOX BOUNDS
-6.440307771703434 12.880619210125165
0.0 11.154943116692573
0.0 15.046356078130312
ITEM: ATOMS id type x y z 
2 1 -4.799588177055437 2.137688679110498 2.494851347670865 
8 1 -4.907667510499088 4.716466118941254 2.518413941289217 
97 2 -4.5914573553290845 0.5337171773726496 1.9874129889359207 
1 1 -6.368410545009384 0.020754887162918203 0.02397907675459472 
26 1 -0.3333878131410142 1.7629160552189778 2.503608326908337 
32 1 0.07745237820058826 4.683770980666228 2.504300459287931 
56 1 4.743591490801068 4.6153130947590855 2.5079416774588386 
55 1 3.108867179795533 2.7566095429970687 0.022480459689212938 
50 1 4.743591490801068 1.841714573395294 2.5079416774588386 
80 1 9.580624202555821 4.624850571123858 2.5068733861772916 
74 1 9.60777010496529 1.8583354386391657 2.5084382072094167 
14 1 -4.907667510499088 7.323342860482957 2.518413941289217 
20 1 -4.799588177055437 9.964532207051608 2.494851347670865 
38 1 0.04595926722020849 7.449895690141835 2.508242604580401 
44 1 0.07745237820058826 10.23421411184077 2.504300459287931 
37 1 -1.6370480403129175 5.577962375843422 0.001898097819256139 
43 1 -1.6370480403129175 8.350144219431392 0.001898097819256139 
62 1 4.864926912246952 7.453286792849309 2.5091152932329326 
68 1 4.864926912246952 10.228737034770473 2.5091152932329326 
92 1 9.635534277038179 10.218162148695848 2.529608430211346 
73 1 8.10178113043968 11.154641933228422 0.004110243182575014 
91 1 8.10178113043968 8.396180669673983 0.004110243182575014 
86 1 9.60777010496529 7.407027243744385 2.5084382072094167 
39 1 -1.6410281512711737 5.5769807408491525 5.015236361606317 
3 1 -6.347816755357992 0.02669980254752834 5.004147197176735 
33 1 -1.597053721460532 2.837304401503223 5.044546663246515 
57 1 3.1239181819143766 2.760948815869462 4.9939307213996855 
58 1 4.780977484510906 4.626523812591361 7.518513668680936 
81 1 7.980155895089068 2.773397732387691 5.0191935532548655 
87 1 7.980155895089068 5.552261386902561 5.0191935532548655 
52 1 4.780977484510906 1.8520886704938178 7.518513668680936 
9 1 12.815295155999603 2.7926846290364526 5.059096489574067 
15 1 12.801055632813995 5.554503530469017 5.052807112733409 
27 1 -1.597053721460532 11.113892926023144 5.044546663246515 
40 1 -0.004680882399163977 7.435271559715852 7.519265986484842 
45 1 -1.6410281512711737 8.348827936143623 5.015236361606317 
51 1 3.2309947592476718 11.138946928263236 5.0242641752531965 
63 1 3.2309947592476718 5.599725669864088 5.0242641752531965 
69 1 3.214958389852752 8.364701420198676 5.0184111427388025 
75 1 8.066578401478788 11.153281030168186 5.023872969995164 
93 1 8.066578401478788 8.377217266375604 5.023872969995164 
94 1 9.691603607139445 10.234347971158169 7.514390967115529 
21 1 12.815295155999603 8.324543624978583 5.059096489574067 
4 1 -4.862348344170511 1.8523563891286188 7.533454700266519 
5 1 -6.437225736073147 0.0008896189839936611 10.032473888571026 
10 1 -4.838133426384185 4.64888947354033 7.537261428354287 
28 1 -0.03404869141154343 1.8493222446008781 7.530776448884612 
34 1 -0.0074630958845478546 4.657088356731099 7.527722038600752 
35 1 -1.6244314749937834 2.792305360970485 10.025056035024509 
59 1 3.19600456048358 2.7817639397252107 10.027207663943681 
82 1 9.616136066348421 4.635101963848098 7.532672289750457 
83 1 8.009600987809375 2.7780270337811186 10.031902127040057 
89 1 8.009600987809375 5.564632218818973 10.031902127040057 
11 1 12.856448730470898 2.7836714349981646 10.032955371965528 
17 1 12.843793523297801 5.566840897556078 10.029554895491868 
76 1 9.613508420278894 1.8566733521147787 7.535967441731567 
16 1 -4.838133426384185 7.431066146160858 7.537261428354287 
22 1 -4.862348344170511 10.213610931904237 7.533454700266519 
29 1 -1.6244314749937834 11.143085412159529 10.025056035024509 
41 1 -1.6239098099652738 5.58059494241896 10.027704193694259 
46 1 -0.0074630958845478546 10.211859605834917 7.527722038600752 
47 1 -1.6239098099652738 8.355097014175204 10.027704193694259 
53 1 3.2186873287602467 11.150782322910047 10.027252803011915 
65 1 3.2186873287602467 5.580795731395061 10.027252803011915 
64 1 4.831984731742935 7.4425222727417015 7.526397959265877 
70 1 4.831984731742935 10.220482376864119 7.526397959265877 
71 1 3.204022745181039 8.36155572623977 10.031450736357714 
77 1 8.048803148655505 11.148082826675807 10.027192617587604 
95 1 8.048803148655505 8.372152922200627 10.027192617587604 
23 1 12.856448730470898 8.357328002798543 10.032955371965528 
88 1 9.613508420278894 7.412002348374431 7.535967441731567 
6 1 -4.84710220068915 1.8630093598050599 12.533704891219019 
12 1 -4.834288561914801 4.654154606691409 12.523067117471781 
30 1 -0.02860019000266778 1.8508950915803317 12.51573954206173 
31 1 -1.5398251357403563 2.8732010084527397 14.984831528126838 
36 1 0.009655245421352099 4.670329274210613 12.519832150914983 
60 1 4.7829288981360705 4.626613052136295 12.540039407127912 
54 1 4.7829288981360705 1.8531260802036704 12.540039407127912 
79 1 7.976987263064048 2.7731634785822403 15.041962542155499 
84 1 9.621120865509734 4.636540951510152 12.52991320948733 
85 1 7.976987263064048 5.550655075093758 15.041962542155499 
7 1 12.830442762753357 2.8130647101106496 15.015134889268191 
78 1 9.621217470144643 1.856472563138678 12.529582189653611 
13 1 12.810406961473198 5.557203026703256 15.01594739249641 
25 1 -1.5398251357403563 11.11103726058527 14.984831528126838 
18 1 -4.834288561914801 7.428020846690001 12.523067117471781 
24 1 -4.84710220068915 10.211770366289983 12.533704891219019 
42 1 0.0019848374095667864 7.4372013648750395 12.541453764599256 
48 1 0.009655245421352099 10.208501967956792 12.519832150914983 
49 1 3.24071318551953 11.13741870105625 15.033792370805074 
61 1 3.24071318551953 5.606875988401888 15.033792370805074 
66 1 4.847885854648979 7.446604981922411 12.535164387758599 
67 1 3.223111821039085 8.367066268139416 15.043617641324092 
72 1 4.847885854648979 10.225591340811565 12.535164387758599 
96 1 9.677460688588745 10.230276416920576 12.530996547124955 
19 1 12.830442762753357 8.312909019307874 15.015134889268191 
90 1 9.621217470144643 7.4166539596540915 12.529582189653611 
ITEM: TIMESTEP
5
ITEM: NUMBER OF ATOMS
97
ITEM: BOX BOUNDS
-6.440307771703434 12.880619210125165
0.0 11.154943116692573
0.0 15.046356078130312
ITEM: ATOMS id type x y z 
2 1 -4.814469155016841 2.1408566829556386 2.4799855478656725 
8 1 -4.900076318287928 4.72049305340638 2.5148479548987006 
97 2 -5.27449076599069 0.33662048744380846 2.248587637740106 
1 1 -6.302094554492574 0.0399013430778405 0.03157914167321912 
26 1 -0.23979724284103732 1.7899333274476068 2.5000573868738982 
32 1 0.08912221809761345 4.6885899160926385 2.502946287240899 
56 1 4.747784131956125 4.615446954076486 2.5067680616847445 
55 1 3.1409012767314035 2.765856990840807 0.01364585630073402 
50 1 4.747784131956125 1.844001336734216 2.5067680616847445 
80 1 9.581628890758878 4.625140599644892 2.507053942450229 
74 1 9.610107937130092 1.867471337051737 2.5072194523670883 
14 1 -4.900072454102531 7.323710973605809 2.5148479548987006 
20 1 -4.814451766182557 9.952674502518565 2.4799855478656725 
37 1 -1.6331838549165516 5.58036068861351 0.00038701484786362884 
38 1 0.052489740540067054 7.451780875528556 2.5074902867764948 
43 1 -1.6331838549165516 8.349965740341526 0.00038716982533123356 
44 1 0.08912221809761345 10.236121607113722 2.502946287240899 
62 1 4.874587375737866 7.459165447871807 2.507986816527073 
68 1 4.874587375737866 10.228435851306322 2.507986816527073 
92 1 9.717300440025276 10.241777163273886 2.512395398857965 
73 1 8.115247816546015 11.153783002608437 0.0043448911056134555 
91 1 8.115247816546015 8.404814595646304 0.004344183926877784 
86 1 9.610107937130092 7.399229938505817 2.5072194523670883 
3 1 -6.2910785347646145 0.04308128271211605 4.9611447115054395 
33 1 -1.5880501694870004 2.8418221534654835 5.039987617354842 
57 1 3.134989073074964 2.7641502845439527 4.996247860235717 
58 1 4.782078777348872 4.627293503666413 7.51879954944642 
81 1 7.982319838911032 2.7735204367619746 5.0202016591121 
87 1 7.982319838911032 5.553388036157347 5.0202016591121 
52 1 4.782078777348872 1.8519659661195345 7.51879954944642 
9 1 12.82489765670957 2.7918256984164675 5.051136967208736 
15 1 12.801712544331377 5.554693164502001 5.051498079754611 
27 1 -1.5880501694870004 11.114573377553262 5.04000266371092 
39 1 -1.637434458852554 5.578207784591989 5.01416807032477 
40 1 -0.0025362595041817926 7.435896236530386 7.518543761393093 
45 1 -1.637434458852554 8.349675711820492 5.01416807032477 
51 1 3.236810358269201 11.13950467541907 5.023150744903414 
63 1 3.236810358269201 5.602525560586378 5.023150744903414 
69 1 3.217856528900027 8.365549195875545 5.016966692555303 
75 1 8.09588824771022 11.15357105868922 5.01207662682991 
93 1 8.09588824771022 8.393849286562594 5.01207662682991 
64 1 4.838940265456392 7.445288698634641 7.5232231781333905 
70 1 4.838940265456392 10.22173173049319 7.5232231781333905 
94 1 9.704567949144252 10.238096032045377 7.507304133402729 
21 1 12.82489765670957 8.330946562327565 5.051136967208736 
4 1 -4.861929080055005 1.8496680478374956 7.526187310280782 
5 1 -6.436579431744677 0.001076226680909876 10.029344246506776 
10 1 -4.837793378069305 4.6485771351330625 7.535275309351974 
28 1 -0.034222579754380256 1.8492776248284115 7.529331998701111 
34 1 -0.005492361332401607 4.658304245530819 7.5274060651231105 
35 1 -1.6237552425494188 2.7926065444346353 10.024078021879431 
59 1 3.1956181419439424 2.7816523902940435 10.026771319617415 
82 1 9.61642588025315 4.635180048449914 7.532341269916737 
83 1 8.010431787669594 2.778082808496702 10.03124008737262 
89 1 8.010431787669594 5.565067261600524 10.03124008737262 
11 1 12.856893111791479 2.7839837734054322 10.029961147105979 
17 1 12.84483685335482 5.567142081020229 10.028998180316979 
76 1 9.614397182920058 1.8562829291056944 7.533875998236707 
16 1 -4.837793378069305 7.431579273544226 7.535275309351974 
22 1 -4.861929080055005 10.216555836887045 7.526187310280782 
29 1 -1.6237552425494188 11.143174651704463 10.024078021879431 
41 1 -1.6236586379145104 5.580929590712461 10.026921783178198 
46 1 -0.005492361332401607 10.2117815212331 7.5274060651231105 
47 1 -1.6236586379145104 8.35490738014222 10.026921783178198 
53 1 3.220039793648974 11.150191110924862 10.026590763344478 
65 1 3.220039793648974 5.5821566344552975 10.026590763344478 
71 1 3.2048921868952203 8.361801134988337 10.030322259651854 
77 1 8.050619315791797 11.147324290543873 10.026199558086446 
95 1 8.050619315791797 8.373960022985532 10.026199558086446 
23 1 12.856893111791479 8.357261073139842 10.029961147105979 
88 1 9.614397182920058 7.412894743823766 7.533875998236707 
6 1 -4.846839436082197 1.8630093598050599 12.527445607090517 
12 1 -4.83256706732072 4.654087677032709 12.522480309584735 
30 1 -0.029257101520050455 1.8507166124904648 12.51573954206173 
31 1 -1.5336617600331524 2.873680671006757 14.986140561105636 
36 1 0.011046352164044038 4.671154740001248 12.519170111247545 
60 1 4.783740377069307 4.627594687130564 12.538369261603238 
54 1 4.783740377069307 1.8526129528203026 12.538369261603238 
79 1 7.98135379256194 2.7738550850554753 15.039705588743779 
84 1 9.621372037560498 4.636607881168851 12.529386587024595 
85 1 7.98135379256194 5.552495640708012 15.039705588743779 
7 1 12.836045831578087 2.811246454382629 15.008017962843237 
78 1 9.621565246830315 1.8564167884230949 12.527761580568157 