ITEM: TIMESTEP
0
ITEM: NUMBER OF ATOMS
97
ITEM: BOX BOUNDS xy xz yz pp pp pp
-6.4403077717034343e+00 1.2880619210125165e+01 -6.4403077717034343e+00
0.0000000000000000e+00 1.1154943116692573e+01 0.0000000000000000e+00
0.0000000000000000e+00 1.5046356078130312e+01 0.0000000000000000e+00
ITEM: ATOMS id type xs ys zs
2 1 0.0798567 0.168136 0.171623
8 1 0.0814714 0.416938 0.167724
26 1 0.330707 0.165354 0.167923
32 1 0.3321 0.415959 0.16741
55 1 0.49779 0.248895 9.72923e-06
56 1 0.582081 0.415569 0.167361
97 2 0.145558 0.0727792 0.0877367
50 1 0.58208 0.166511 0.167361
79 1 0.74836 0.24916 7.22344e-05
80 1 0.832198 0.416099 0.166943
85 1 0.74836 0.499199 7.20899e-05
74 1 0.832023 0.166683 0.167788
14 1 0.0814718 0.664534 0.167724
20 1 0.0798569 0.911721 0.171623
38 1 0.333004 0.666502 0.166891
44 1 0.3321 0.916141 0.167411
62 1 0.582453 0.665989 0.166897
68 1 0.582453 0.916464 0.166897
92 1 0.828489 0.914245 0.169634
86 1 0.832024 0.665341 0.167788
39 1 0.248703 0.49952 0.333477
33 1 0.249516 0.25052 0.334152
57 1 0.498881 0.24944 0.333572
63 1 0.498917 0.499696 0.333586
81 1 0.748264 0.249464 0.333924
87 1 0.748265 0.498801 0.333924
9 1 0.997575 0.25082 0.33554
15 1 0.998413 0.499207 0.334641
27 1 0.249516 0.998995 0.334152
45 1 0.248703 0.749183 0.333477
51 1 0.498917 0.999221 0.333587
69 1 0.498831 0.749416 0.33319
75 1 0.748772 0.999856 0.334396
93 1 0.748772 0.748916 0.334396
3 1 0.998028 0.999014 0.333201
21 1 0.997575 0.746754 0.33554
4 1 0.0822255 0.166039 0.501494
10 1 0.0825413 0.416481 0.501232
41 1 0.249164 0.499751 0.666634
28 1 0.332278 0.166139 0.500858
34 1 0.332108 0.416091 0.500532
35 1 0.248807 0.249565 0.66677
58 1 0.58206 0.416083 0.500463
59 1 0.498823 0.249411 0.666559
65 1 0.498793 0.499203 0.666372
52 1 0.582059 0.165976 0.500464
82 1 0.831898 0.415949 0.500361
83 1 0.748921 0.249684 0.666949
89 1 0.748921 0.499237 0.666949
11 1 0.998859 0.248991 0.66692
17 1 0.998441 0.499221 0.666829
76 1 0.831725 0.166314 0.500967
16 1 0.0825413 0.66606 0.501232
22 1 0.0822252 0.916185 0.501494
29 1 0.248806 0.999241 0.66677
40 1 0.332319 0.66616 0.500151
46 1 0.332108 0.916017 0.500532
47 1 0.249164 0.749414 0.666634
53 1 0.498793 0.999591 0.666372
64 1 0.581858 0.666131 0.50022
70 1 0.581858 0.915728 0.50022
71 1 0.49885 0.749425 0.666735
77 1 0.748238 0.999597 0.666109
94 1 0.832735 0.916367 0.501119
95 1 0.748238 0.748642 0.666109
5 1 0.999442 0.999721 0.666544
23 1 0.99886 0.749868 0.66692
88 1 0.831725 0.665411 0.500968
6 1 0.0821923 0.166961 0.834988
12 1 0.0822881 0.416379 0.833037
37 1 0.249116 0.499289 0.999663
30 1 0.33303 0.166515 0.833652
31 1 0.247804 0.248459 0.999855
36 1 0.3324 0.416397 0.833513
60 1 0.582357 0.416156 0.833453
61 1 0.498417 0.499362 0.999782
54 1 0.582356 0.166199 0.833453
84 1 0.832095 0.416047 0.833887
7 1 0.99802 0.251081 0.999409
13 1 0.999376 0.499688 0.999895
78 1 0.831908 0.165673 0.833503
18 1 0.0822882 0.665909 0.833037
24 1 0.0821925 0.915232 0.834988
25 1 0.247804 0.999345 0.999855
42 1 0.332132 0.666066 0.83329
43 1 0.249116 0.749826 0.999663
48 1 0.3324 0.916003 0.833513
49 1 0.498417 0.999055 0.999782
66 1 0.581416 0.665463 0.832992
67 1 0.498475 0.749237 0.999814
72 1 0.581416 0.915953 0.832992
73 1 0.747793 0.998508 0.99954
91 1 0.747793 0.749284 0.99954
96 1 0.82899 0.914495 0.83161
1 1 0.992691 0.996345 0.99564
19 1 0.99802 0.74694 0.999409
90 1 0.831909 0.666236 0.833503
ITEM: TIMESTEP
10
ITEM: NUMBER OF ATOMS
97
ITEM: BOX BOUNDS xy xz yz pp pp pp
-6.4403077717034343e+00 1.2880619210125165e+01 -6.4403077717034343e+00
0.0000000000000000e+00 1.1154943116692573e+01 0.0000000000000000e+00
0.0000000000000000e+00 1.5046356078130312e+01 0.0000000000000000e+00
ITEM: ATOMS id type xs ys zs
2 1 0.0797565 0.170932 0.17055
8 1 0.0818691 0.418576 0.167548
26 1 0.327248 0.163624 0.168086
32 1 0.333833 0.417352 0.166933
55 1 0.496591 0.248295 0.000842417
56 1 0.581966 0.415721 0.166924
97 2 0.142611 0.0713056 0.0900666
50 1 0.581966 0.166245 0.166924
79 1 0.748049 0.249404 0.999994
80 1 0.832204 0.416102 0.166892
85 1 0.748049 0.498645 0.999994
74 1 0.831897 0.16621 0.167074
14 1 0.0818692 0.663293 0.167548
20 1 0.0797565 0.908824 0.17055
38 1 0.333624 0.666812 0.166888
44 1 0.333833 0.916481 0.166933
62 1 0.582904 0.666459 0.166933
68 1 0.582904 0.916446 0.166933
92 1 0.828905 0.914453 0.1678
86 1 0.831898 0.665687 0.167074
39 1 0.248878 0.499691 0.333761
33 1 0.249535 0.250723 0.33447
57 1 0.498863 0.249432 0.333578
63 1 0.4998 0.500321 0.333771
81 1 0.748202 0.249287 0.333794
87 1 0.748202 0.498915 0.333794
9 1 0.997445 0.251498 0.336488
15 1 0.998389 0.499194 0.334956
27 1 0.249535 0.998813 0.33447
45 1 0.248878 0.749187 0.333761
51 1 0.4998 0.99948 0.333771
69 1 0.499154 0.749577 0.333593
75 1 0.749473 0.999748 0.334096
93 1 0.749473 0.749725 0.334096
3 1 0.999218 0.999609 0.335028
21 1 0.997445 0.745947 0.336488
4 1 0.0823342 0.166405 0.501293
10 1 0.082852 0.416757 0.501309
41 1 0.249293 0.499642 0.666943
28 1 0.332568 0.166284 0.500777
34 1 0.332441 0.416409 0.500164
35 1 0.249332 0.249811 0.666793
58 1 0.581985 0.41586 0.500272
59 1 0.499017 0.249509 0.667114
65 1 0.498839 0.499226 0.666545
52 1 0.581985 0.166125 0.500272
82 1 0.831954 0.415977 0.500566
83 1 0.748809 0.249611 0.666961
89 1 0.748809 0.499199 0.666961
11 1 0.998823 0.249384 0.667144
17 1 0.998657 0.499328 0.666958
76 1 0.831558 0.166168 0.50085
16 1 0.082852 0.666095 0.501309
22 1 0.0823342 0.915929 0.501293
29 1 0.249332 0.999521 0.666793
40 1 0.332447 0.666223 0.500156
46 1 0.332441 0.916032 0.500164
47 1 0.249293 0.749652 0.666943
53 1 0.498839 0.999613 0.666545
64 1 0.582088 0.666224 0.49999
70 1 0.582088 0.915864 0.49999
71 1 0.498962 0.749481 0.666615
77 1 0.748175 0.99973 0.665979
94 1 0.832653 0.916327 0.500411
95 1 0.748175 0.748444 0.665979
5 1 0.998982 0.999491 0.666826
23 1 0.998823 0.749438 0.667145
88 1 0.831558 0.66539 0.50085
6 1 0.0823535 0.16695 0.833265
12 1 0.0824813 0.416706 0.832954
37 1 0.248629 0.499114 0.000305351
30 1 0.332026 0.166013 0.834067
31 1 0.245874 0.247335 0.000634128
36 1 0.332659 0.416395 0.833449
60 1 0.582383 0.41615 0.833396
61 1 0.498844 0.499345 0.999869
54 1 0.582383 0.166233 0.833396
84 1 0.832216 0.416108 0.833275
7 1 0.997572 0.251647 0.999877
13 1 0.998683 0.499341 0.999493
78 1 0.831853 0.165753 0.833125
18 1 0.0824812 0.665776 0.832954
24 1 0.0823535 0.915403 0.833265
25 1 0.245874 0.998539 0.000634157
42 1 0.332119 0.66606 0.833518
43 1 0.248629 0.749515 0.000305361
48 1 0.332659 0.916264 0.833449
49 1 0.498844 0.999498 0.999869
66 1 0.581466 0.665351 0.833051
67 1 0.498816 0.749408 0.999967
72 1 0.581466 0.916115 0.833051
73 1 0.748345 0.999312 0.999883
91 1 0.748345 0.749033 0.999883
96 1 0.827967 0.913984 0.830364
1 1 0.9926 0.9963 0.996768
19 1 0.997572 0.745926 0.999877
90 1 0.831853 0.6661 0.833125
ITEM: TIMESTEP
20
ITEM: NUMBER OF ATOMS
97
ITEM: BOX BOUNDS xy xz yz pp pp pp
-6.4403077717034343e+00 1.2880619210125165e+01 -6.4403077717034343e+00
0.0000000000000000e+00 1.1154943116692573e+01 0.0000000000000000e+00
0.0000000000000000e+00 1.5046356078130312e+01 0.0000000000000000e+00
ITEM: ATOMS id type xs ys zs
2 1 0.0798328 0.172716 0.17022
8 1 0.0815828 0.419104 0.167539
26 1 0.325064 0.162532 0.168207
32 1 0.33422 0.417844 0.166966
55 1 0.495497 0.247748 0.00107839
56 1 0.581151 0.415206 0.166929
97 2 0.142494 0.0712468 0.0919766
50 1 0.581151 0.165945 0.166929
79 1 0.747335 0.249138 0.999937
80 1 0.831613 0.415807 0.166855
85 1 0.747335 0.498196 0.999937
74 1 0.831485 0.166446 0.166942
14 1 0.0815828 0.662479 0.167539
20 1 0.0798328 0.907116 0.17022
38 1 0.33411 0.667055 0.166934
44 1 0.33422 0.916376 0.166966
62 1 0.583431 0.666769 0.166878
68 1 0.583431 0.916662 0.166878
92 1 0.829396 0.914698 0.167782
86 1 0.831485 0.665039 0.166942
39 1 0.248917 0.499889 0.333771
33 1 0.249609 0.251358 0.334496
57 1 0.498175 0.249088 0.333412
63 1 0.500111 0.500758 0.333817
81 1 0.747817 0.249184 0.333771
87 1 0.747817 0.498633 0.333771
9 1 0.997283 0.251593 0.33646
15 1 0.998014 0.499007 0.335116
27 1 0.249609 0.998251 0.334496
45 1 0.248917 0.749028 0.333771
51 1 0.500111 0.999353 0.333817
69 1 0.49951 0.749755 0.333606
75 1 0.74999 0.999917 0.333999
93 1 0.74999 0.750072 0.333999
3 1 0.000246601 0.000123294 0.334609
21 1 0.997283 0.74569 0.33646
4 1 0.0823111 0.166466 0.50111
10 1 0.0830376 0.416855 0.501291
41 1 0.249349 0.499737 0.666976
28 1 0.332334 0.166167 0.50065
34 1 0.33267 0.416658 0.50021
35 1 0.249313 0.24988 0.666736
58 1 0.581785 0.415622 0.500236
59 1 0.498757 0.249379 0.667093
65 1 0.499037 0.49944 0.666608
52 1 0.581785 0.166162 0.500236
82 1 0.831947 0.415973 0.500608
83 1 0.748577 0.249501 0.666902
89 1 0.748577 0.499076 0.666902
11 1 0.998784 0.24942 0.667072
17 1 0.99862 0.49931 0.666925
76 1 0.831487 0.16623 0.500798
16 1 0.0830376 0.666182 0.501291
22 1 0.082311 0.915845 0.50111
29 1 0.249313 0.999434 0.666736
40 1 0.332747 0.666373 0.50021
46 1 0.33267 0.916012 0.50021
47 1 0.249349 0.749612 0.666976
53 1 0.499037 0.999597 0.666608
64 1 0.582494 0.666485 0.500028
70 1 0.582494 0.916009 0.500028
71 1 0.499032 0.749516 0.666714
77 1 0.748497 0.999633 0.666046
94 1 0.833158 0.916579 0.500104
95 1 0.748497 0.748863 0.666046
5 1 0.999163 0.999582 0.666716
23 1 0.998784 0.749364 0.667072
88 1 0.831487 0.665257 0.500798
6 1 0.0821352 0.166824 0.833282
12 1 0.0825381 0.416782 0.832874
37 1 0.248438 0.499163 0.000377608
30 1 0.33151 0.165755 0.833961
31 1 0.246163 0.248007 0.000479682
36 1 0.332686 0.416574 0.833392
60 1 0.581924 0.415748 0.833457
61 1 0.49898 0.499743 0.999825
54 1 0.581924 0.166176 0.833457
84 1 0.832001 0.416001 0.833174
7 1 0.997271 0.251726 0.999664
13 1 0.998056 0.499028 0.99931
78 1 0.831583 0.165877 0.832994
18 1 0.0825381 0.665756 0.832874
24 1 0.0821352 0.915311 0.833282
25 1 0.246163 0.998155 0.000479687
42 1 0.332319 0.666159 0.833652
43 1 0.248438 0.749276 0.000377611
48 1 0.332686 0.916112 0.833392
49 1 0.49898 0.999237 0.999825
66 1 0.581899 0.665698 0.833131
67 1 0.499063 0.749531 9.73484e-06
72 1 0.581899 0.916201 0.833131
73 1 0.749103 0.999516 0.999881
91 1 0.749103 0.749587 0.999881
96 1 0.829075 0.914537 0.830788
1 1 0.994124 0.997062 0.997699
19 1 0.997271 0.745545 0.999664
90 1 0.831583 0.665706 0.832994
ITEM: TIMESTEP
30
ITEM: NUMBER OF ATOMS
97
ITEM: BOX BOUNDS xy xz yz pp pp pp
-6.4403077717034343e+00 1.2880619210125165e+01 -6.4403077717034343e+00
0.0000000000000000e+00 1.1154943116692573e+01 0.0000000000000000e+00
0.0000000000000000e+00 1.5046356078130312e+01 0.0000000000000000e+00
ITEM: ATOMS id type xs ys zs
2 1 0.0798785 0.174058 0.169954
8 1 0.0812468 0.41941 0.167485
26 1 0.323377 0.161688 0.168408
32 1 0.334383 0.418158 0.16693
55 1 0.494805 0.247402 0.00123127
56 1 0.580414 0.414817 0.166886
97 2 0.143914 0.0719572 0.0933981
50 1 0.580414 0.165598 0.166886
79 1 0.746816 0.248916 0.999901
80 1 0.831021 0.41551 0.166787
85 1 0.746816 0.4979 0.999901
74 1 0.831058 0.166554 0.166903
14 1 0.0812468 0.661836 0.167485
20 1 0.0798785 0.90582 0.169954
38 1 0.334401 0.6672 0.166908
44 1 0.334383 0.916226 0.16693
62 1 0.583683 0.666903 0.166872
68 1 0.583683 0.91678 0.166872
92 1 0.829559 0.91478 0.167949
86 1 0.831058 0.664504 0.166903
39 1 0.248798 0.499978 0.333707
33 1 0.249521 0.251809 0.334509
57 1 0.497477 0.248739 0.333248
63 1 0.500151 0.501003 0.333836
81 1 0.747372 0.249032 0.333726
87 1 0.747372 0.49834 0.333726
9 1 0.997068 0.251539 0.33634
15 1 0.997546 0.498773 0.335179
27 1 0.249521 0.997713 0.334509
45 1 0.248798 0.748821 0.333707
51 1 0.500151 0.999149 0.333836
69 1 0.499701 0.749851 0.333638
75 1 0.750223 2.31515e-05 0.334028
93 1 0.750223 0.7502 0.334028
3 1 0.000950219 0.000475103 0.334178
21 1 0.997068 0.745529 0.33634
4 1 0.0821827 0.166466 0.50101
10 1 0.0830765 0.416873 0.501234
41 1 0.249359 0.499866 0.666895
28 1 0.331996 0.165998 0.500566
34 1 0.33276 0.416819 0.500216
35 1 0.24926 0.24998 0.666689
58 1 0.581528 0.415394 0.50014
59 1 0.498565 0.249282 0.666986
65 1 0.499235 0.499653 0.66661
52 1 0.581528 0.166135 0.50014
82 1 0.831792 0.415896 0.500614
83 1 0.74835 0.249368 0.666861
89 1 0.74835 0.498982 0.666861
11 1 0.998777 0.249429 0.66708
17 1 0.998483 0.499241 0.66686
76 1 0.831405 0.16632 0.50082
16 1 0.0830765 0.666204 0.501234
22 1 0.0821827 0.915716 0.50101
29 1 0.24926 0.99928 0.666689
40 1 0.332948 0.666474 0.500155
46 1 0.33276 0.915941 0.500216
47 1 0.249359 0.749493 0.666895
53 1 0.499235 0.999582 0.66661
64 1 0.582796 0.666673 0.500112
70 1 0.582796 0.916122 0.500112
71 1 0.499109 0.749555 0.666763
77 1 0.74891 0.999574 0.666191
94 1 0.833591 0.916796 0.49997
95 1 0.74891 0.749336 0.666191
5 1 0.999444 0.999722 0.666754
23 1 0.998777 0.749348 0.66708
88 1 0.831405 0.665085 0.50082
6 1 0.0820291 0.166689 0.833499
12 1 0.0826464 0.416885 0.832789
37 1 0.248319 0.499254 0.000358711
30 1 0.331232 0.165616 0.833791
31 1 0.246711 0.248732 0.000227655
36 1 0.332797 0.416894 0.83325
60 1 0.581558 0.41544 0.833458
61 1 0.499181 0.500186 0.999735
54 1 0.581558 0.166117 0.833458
84 1 0.831791 0.415896 0.833086
7 1 0.99713 0.251782 0.999526
13 1 0.99756 0.49878 0.999126
78 1 0.831427 0.166023 0.832982
18 1 0.0826464 0.665761 0.832789
24 1 0.0820291 0.91534 0.833499
25 1 0.246711 0.997979 0.000227639
42 1 0.332594 0.666297 0.833674
43 1 0.248319 0.749065 0.000358715
48 1 0.332797 0.915903 0.83325
49 1 0.499181 0.998995 0.999735
66 1 0.582446 0.666116 0.833182
67 1 0.499361 0.74968 2.2737e-05
72 1 0.582446 0.91633 0.833182
73 1 0.749778 0.999722 0.999993
91 1 0.749778 0.750056 0.999993
96 1 0.830292 0.915146 0.831433
1 1 0.995622 0.997811 0.998787
19 1 0.99713 0.745348 0.999526
90 1 0.831427 0.665404 0.832982
ITEM: TIMESTEP
40
ITEM: NUMBER OF ATOMS
97
ITEM: BOX BOUNDS xy xz yz pp pp pp
-6.4403077717034343e+00 1.2880619210125165e+01 -6.4403077717034343e+00
0.0000000000000000e+00 1.1154943116692573e+01 0.0000000000000000e+00
0.0000000000000000e+00 1.5046356078130312e+01 0.0000000000000000e+00
ITEM: ATOMS id type xs ys zs
2 1 0.0799631 0.174683 0.169803
8 1 0.0810269 0.419522 0.167427
26 1 0.322632 0.161316 0.168578
32 1 0.334441 0.41831 0.166906
55 1 0.494502 0.247251 0.00131383
56 1 0.580047 0.414648 0.166858
97 2 0.144874 0.0724368 0.094109
50 1 0.580047 0.165399 0.166858
79 1 0.746579 0.24881 0.999878
80 1 0.830679 0.41534 0.166742
85 1 0.746579 0.497769 0.999878
74 1 0.830823 0.166581 0.166886
14 1 0.0810269 0.661505 0.167427
20 1 0.0799632 0.90528 0.169803
38 1 0.334497 0.667249 0.166876
44 1 0.334441 0.916131 0.166906
62 1 0.583751 0.666931 0.166872
68 1 0.583751 0.91682 0.166872
92 1 0.829546 0.914773 0.168045
86 1 0.830823 0.664242 0.166886
39 1 0.248683 0.499999 0.333651
33 1 0.249464 0.252048 0.334548
57 1 0.497127 0.248564 0.333183
63 1 0.500117 0.501104 0.333847
81 1 0.747114 0.248931 0.333697
87 1 0.747114 0.498183 0.333697
9 1 0.996929 0.251477 0.336263
15 1 0.997254 0.498627 0.335183
27 1 0.249464 0.997416 0.334548
45 1 0.248683 0.748684 0.333651
51 1 0.500117 0.999013 0.333847
69 1 0.499755 0.749877 0.333654
75 1 0.750281 5.70358e-05 0.334061
93 1 0.750281 0.750224 0.334061
3 1 0.00126742 0.000633704 0.333933
21 1 0.996929 0.745452 0.336263
4 1 0.0820805 0.166445 0.500957
10 1 0.0830514 0.416857 0.501179
41 1 0.249354 0.49994 0.666834
28 1 0.331791 0.165895 0.500534
34 1 0.332773 0.416903 0.50022
35 1 0.249231 0.250037 0.666671
58 1 0.581359 0.415263 0.500083
59 1 0.49847 0.249235 0.666924
65 1 0.499346 0.499774 0.666607
52 1 0.581359 0.166095 0.500083
82 1 0.831663 0.415831 0.500606
83 1 0.748226 0.249287 0.666836
89 1 0.748226 0.498939 0.666836
11 1 0.998783 0.249431 0.667092
17 1 0.998393 0.499196 0.666811
76 1 0.831348 0.16636 0.500832
16 1 0.0830514 0.666195 0.501179
22 1 0.0820805 0.915636 0.500957
29 1 0.249231 0.999194 0.666671
40 1 0.333019 0.666509 0.500103
46 1 0.332773 0.915871 0.50022
47 1 0.249354 0.749414 0.666834
53 1 0.499346 0.999571 0.666607
64 1 0.582937 0.666766 0.500163
70 1 0.582937 0.916171 0.500163
71 1 0.499145 0.749573 0.666781
77 1 0.749156 0.999538 0.666288
94 1 0.833813 0.916907 0.499904
95 1 0.749156 0.749618 0.666288
5 1 0.999608 0.999804 0.6668
23 1 0.998783 0.749352 0.667092
88 1 0.831348 0.664987 0.500832
6 1 0.082013 0.166621 0.83364
12 1 0.0827227 0.416949 0.832734
37 1 0.248267 0.499307 0.000330618
30 1 0.331129 0.165565 0.833699
31 1 0.247053 0.249116 0.000121303
36 1 0.332882 0.417093 0.833158
60 1 0.581382 0.415289 0.833453
61 1 0.499302 0.500431 0.999677
54 1 0.581382 0.166093 0.833453
84 1 0.831689 0.415844 0.83303
7 1 0.997089 0.251788 0.999456
13 1 0.997307 0.498654 0.999016
78 1 0.831372 0.166114 0.832979
18 1 0.0827227 0.665774 0.832734
24 1 0.082013 0.915392 0.83364
25 1 0.247053 0.997937 0.000121317
42 1 0.332768 0.666384 0.833672
43 1 0.248267 0.748959 0.000330618
48 1 0.332882 0.915789 0.833158
49 1 0.499302 0.998871 0.999677
66 1 0.582777 0.666366 0.833205
67 1 0.499535 0.749767 2.4669e-05
72 1 0.582777 0.91641 0.833205
73 1 0.750125 0.999841 6.357e-05
91 1 0.750125 0.750284 6.35692e-05
96 1 0.830995 0.915497 0.831821
1 1 0.996523 0.998261 0.999484
19 1 0.997089 0.745302 0.999456
90 1 0.831372 0.665259 0.832979
ITEM: TIMESTEP
50
ITEM: NUMBER OF ATOMS
97
ITEM: BOX BOUNDS xy xz yz pp pp pp
-6.4403077717034343e+00 1.2880619210125165e+01 -6.4403077717034343e+00
0.0000000000000000e+00 1.1154943116692573e+01 0.0000000000000000e+00
0.0000000000000000e+00 1.5046356078130312e+01 0.0000000000000000e+00
ITEM: ATOMS id type xs ys zs
2 1 0.0800692 0.175137 0.169723
8 1 0.08084 0.419579 0.167366
26 1 0.322205 0.161103 0.168743
32 1 0.334479 0.418425 0.166889
55 1 0.494307 0.247154 0.00137451
56 1 0.579791 0.414544 0.166837
97 2 0.145615 0.0728076 0.0946267
50 1 0.579791 0.165247 0.166837
79 1 0.74642 0.248736 0.999856
80 1 0.83041 0.415205 0.166699
85 1 0.74642 0.497684 0.999856
74 1 0.830659 0.166584 0.166873
14 1 0.08084 0.661261 0.167366
20 1 0.0800691 0.904932 0.169723
38 1 0.334541 0.66727 0.166843
44 1 0.334479 0.916053 0.166889
62 1 0.583771 0.66693 0.166872
68 1 0.583771 0.916841 0.166872
92 1 0.829482 0.914741 0.168113
86 1 0.830659 0.664075 0.166873
39 1 0.24857 0.500001 0.333597
33 1 0.249432 0.252232 0.334602
57 1 0.496896 0.248448 0.333155
63 1 0.500068 0.501169 0.333859
81 1 0.746916 0.248846 0.333672
87 1 0.746916 0.49807 0.333672
9 1 0.996815 0.251421 0.336199
15 1 0.997016 0.498508 0.335166
27 1 0.249432 0.9972 0.334602
45 1 0.24857 0.748569 0.333597
51 1 0.500068 0.998898 0.333859
69 1 0.499771 0.749886 0.333663
75 1 0.750294 7.09715e-05 0.334089
93 1 0.750294 0.750223 0.334089
3 1 0.00147316 0.000736576 0.333748
21 1 0.996815 0.745394 0.336199
4 1 0.0819901 0.166421 0.500917
10 1 0.0830129 0.416837 0.501127
41 1 0.249343 0.499999 0.666781
28 1 0.331628 0.165814 0.500525
34 1 0.33277 0.416973 0.500228
35 1 0.249208 0.250085 0.666661
58 1 0.581216 0.415164 0.500043
59 1 0.498398 0.249199 0.666878
65 1 0.499433 0.499872 0.666605
52 1 0.581216 0.166052 0.500043
82 1 0.831542 0.415771 0.500591
83 1 0.748126 0.24922 0.666812
89 1 0.748126 0.498907 0.666812
11 1 0.998793 0.249434 0.667098
17 1 0.998315 0.499157 0.666764
76 1 0.831296 0.166387 0.50084
16 1 0.0830129 0.666176 0.501127
22 1 0.0819901 0.915569 0.500917
29 1 0.249208 0.999123 0.666661
40 1 0.333057 0.666529 0.500052
46 1 0.33277 0.915798 0.500228
47 1 0.249343 0.749344 0.666781
53 1 0.499433 0.999561 0.666605
64 1 0.583039 0.666837 0.500206
70 1 0.583039 0.916202 0.500206
71 1 0.49917 0.749585 0.666791
77 1 0.749358 0.999512 0.666365
94 1 0.833977 0.916988 0.499854
95 1 0.749358 0.749846 0.666365
5 1 0.999745 0.999872 0.666841
23 1 0.998793 0.749359 0.667098
88 1 0.831296 0.664909 0.50084
6 1 0.0820215 0.166579 0.833756
12 1 0.0827865 0.417 0.832688
37 1 0.248229 0.499345 0.000300809
30 1 0.331063 0.165531 0.833634
31 1 0.247333 0.249404 6.01155e-05
36 1 0.332954 0.417251 0.833087
60 1 0.581256 0.41518 0.833448
61 1 0.499393 0.500614 0.999628
54 1 0.581256 0.166076 0.833448
84 1 0.831612 0.415806 0.832977
7 1 0.997076 0.251778 0.999408
13 1 0.997116 0.498558 0.99892
78 1 0.831346 0.166191 0.832974
18 1 0.0827865 0.665787 0.832688
24 1 0.0820215 0.915443 0.833756
25 1 0.247334 0.99793 6.00777e-05
42 1 0.332913 0.666456 0.833664
43 1 0.248229 0.748884 0.000300814
48 1 0.332954 0.915703 0.833087
49 1 0.499393 0.998779 0.999628
66 1 0.583042 0.666566 0.833217
67 1 0.49967 0.749835 2.26799e-05
72 1 0.583042 0.916476 0.833217
73 1 0.750369 0.999932 0.000114732
91 1 0.750369 0.750437 0.000114733
96 1 0.831543 0.915772 0.832125
1 1 0.997184 0.998592 1.75243e-05
19 1 0.997076 0.745298 0.999408
90 1 0.831346 0.665155 0.832974
ITEM: TIMESTEP
60
ITEM: NUMBER OF ATOMS
97
ITEM: BOX BOUNDS xy xz yz pp pp pp
-6.4403077717034343e+00 1.2880619210125165e+01 -6.4403077717034343e+00
0.0000000000000000e+00 1.1154943116692573e+01 0.0000000000000000e+00
0.0000000000000000e+00 1.5046356078130312e+01 0.0000000000000000e+00
ITEM: ATOMS id type xs ys zs
2 1 0.0802096 0.175532 0.169691
8 1 0.0806605 0.419611 0.167299
26 1 0.321962 0.160981 0.168901
32 1 0.334514 0.418531 0.166877
55 1 0.494185 0.247093 0.00142007
56 1 0.579597 0.414478 0.166819
97 2 0.146171 0.0730855 0.0950901
50 1 0.579597 0.165118 0.166819
79 1 0.746308 0.248677 0.999831
80 1 0.830171 0.415085 0.166654
85 1 0.746308 0.497631 0.999831
74 1 0.83054 0.166569 0.166859
14 1 0.0806605 0.66105 0.167299
20 1 0.0802095 0.904677 0.169691
38 1 0.334551 0.667276 0.166805
44 1 0.334514 0.915983 0.166877
62 1 0.583768 0.666919 0.166872
68 1 0.583768 0.91685 0.166872
92 1 0.829394 0.914697 0.168167
86 1 0.83054 0.663971 0.166859
39 1 0.248445 0.499986 0.333541
33 1 0.249425 0.252391 0.33467
57 1 0.496736 0.248368 0.333151
63 1 0.500007 0.501219 0.333875
81 1 0.746743 0.24876 0.333645
87 1 0.746743 0.497983 0.333645
9 1 0.996706 0.251365 0.336147
15 1 0.996792 0.498396 0.335135
27 1 0.249425 0.997034 0.33467
45 1 0.248445 0.74846 0.333541
51 1 0.500007 0.998787 0.333875
69 1 0.49976 0.74988 0.333667
75 1 0.750277 6.86681e-05 0.334112
93 1 0.750277 0.750209 0.334112
3 1 0.00161927 0.000809635 0.333599
21 1 0.996706 0.74534 0.336147
4 1 0.0819037 0.166397 0.500883
10 1 0.0829605 0.416815 0.501072
41 1 0.249325 0.500053 0.666731
28 1 0.331482 0.165741 0.500533
34 1 0.332755 0.417042 0.500242
35 1 0.24919 0.250132 0.666656
58 1 0.581079 0.41508 0.500012
59 1 0.498336 0.249168 0.666843
65 1 0.499509 0.499963 0.666603
52 1 0.581079 0.165999 0.500012
82 1 0.831413 0.415707 0.500568
83 1 0.748036 0.249156 0.666786
89 1 0.748036 0.49888 0.666786
11 1 0.998806 0.24944 0.6671
17 1 0.998233 0.499116 0.666713
76 1 0.831242 0.166403 0.500845
16 1 0.0829605 0.666145 0.501072
22 1 0.0819037 0.915506 0.500883
29 1 0.24919 0.999058 0.666656
40 1 0.333075 0.666538 0.499997
46 1 0.332755 0.915713 0.500242
47 1 0.249325 0.749272 0.666731
53 1 0.499509 0.999547 0.666603
64 1 0.583121 0.6669 0.500245
70 1 0.583121 0.916222 0.500245
71 1 0.499188 0.749594 0.666793
77 1 0.749543 0.999493 0.666429
94 1 0.834112 0.917056 0.499812
95 1 0.749543 0.75005 0.666429
5 1 0.999877 0.999938 0.666879
23 1 0.998806 0.749366 0.6671
88 1 0.831242 0.664839 0.500845
6 1 0.0820511 0.166557 0.83386
12 1 0.0828425 0.417046 0.832643
37 1 0.248197 0.499374 0.000267232
30 1 0.331015 0.165508 0.833586
31 1 0.247595 0.249648 2.64179e-05
36 1 0.33302 0.41739 0.833025
60 1 0.581156 0.415095 0.83344
61 1 0.49947 0.500769 0.99958
54 1 0.581156 0.16606 0.83344
84 1 0.83154 0.41577 0.832921
7 1 0.997083 0.251757 0.999372
13 1 0.996951 0.498475 0.998827
78 1 0.831341 0.166267 0.832967
18 1 0.0828425 0.665797 0.832643
24 1 0.0820511 0.915494 0.83386
25 1 0.247595 0.997946 2.63801e-05
42 1 0.333048 0.666524 0.833652
43 1 0.248197 0.748823 0.000267238
48 1 0.33302 0.91563 0.833025
49 1 0.49947 0.998701 0.99958
66 1 0.583281 0.666744 0.83322
67 1 0.499782 0.749891 1.60086e-05
72 1 0.583281 0.916537 0.83322
73 1 0.750559 5.79673e-06 0.00015315
91 1 0.750559 0.750554 0.000153152
96 1 0.832021 0.916011 0.832381
1 1 0.997726 0.998863 0.000470351
19 1 0.997083 0.745325 0.999372
90 1 0.831341 0.665074 0.832967
ITEM: TIMESTEP
70
ITEM: NUMBER OF ATOMS
97
ITEM: BOX BOUNDS xy xz yz pp pp pp
-6.4403077717034343e+00 1.2880619210125165e+01 -6.4403077717034343e+00
0.0000000000000000e+00 1.1154943116692573e+01 0.0000000000000000e+00
0.0000000000000000e+00 1.5046356078130312e+01 0.0000000000000000e+00
ITEM: ATOMS id type xs ys zs
2 1 0.0802793 0.175691 0.169691
8 1 0.0805868 0.419619 0.16727
26 1 0.321904 0.160952 0.168962
32 1 0.334532 0.418576 0.166872
55 1 0.494158 0.247079 0.00143425
56 1 0.579532 0.414461 0.166812
97 2 0.146336 0.0731678 0.0952822
50 1 0.579532 0.165071 0.166812
79 1 0.746276 0.248656 0.999821
80 1 0.830079 0.415039 0.166634
85 1 0.746276 0.49762 0.999821
74 1 0.830504 0.166558 0.166852
14 1 0.0805867 0.660968 0.16727
20 1 0.0802793 0.904588 0.169691
38 1 0.334547 0.667274 0.166788
44 1 0.334532 0.915956 0.166872
62 1 0.583764 0.666914 0.166871
68 1 0.583764 0.916851 0.166871
92 1 0.829356 0.914678 0.168186
86 1 0.830504 0.663946 0.166852
39 1 0.248388 0.499974 0.333518
33 1 0.24943 0.252451 0.334701
57 1 0.496689 0.248344 0.333155
63 1 0.499979 0.501237 0.333882
81 1 0.746678 0.248723 0.333634
87 1 0.746678 0.497955 0.333634
9 1 0.996661 0.251341 0.33613
15 1 0.996701 0.498351 0.335119
27 1 0.24943 0.996979 0.334701
45 1 0.248388 0.748415 0.333518
51 1 0.499979 0.998742 0.333882
69 1 0.499744 0.749872 0.333666
75 1 0.750263 6.18559e-05 0.33412
93 1 0.750263 0.750201 0.33412
3 1 0.00166591 0.000832945 0.333548
21 1 0.996661 0.74532 0.33613
4 1 0.0818692 0.166388 0.500872
10 1 0.0829326 0.416805 0.501049
41 1 0.249314 0.500074 0.666711
28 1 0.331427 0.165713 0.500542
34 1 0.332744 0.41707 0.500249
35 1 0.249185 0.250153 0.666656
58 1 0.581022 0.415049 0.500003
59 1 0.498313 0.249156 0.666832
65 1 0.499536 0.499999 0.666603
52 1 0.581022 0.165973 0.500003
82 1 0.831354 0.415677 0.500556
83 1 0.748 0.24913 0.666775
89 1 0.748 0.49887 0.666775
11 1 0.998812 0.249443 0.6671
17 1 0.998196 0.499098 0.66669
76 1 0.831217 0.166406 0.500847
16 1 0.0829326 0.666127 0.501049
22 1 0.0818692 0.915481 0.500872
29 1 0.249185 0.999033 0.666656
40 1 0.333076 0.666538 0.499973
46 1 0.332744 0.915674 0.500249
47 1 0.249314 0.74924 0.666711
53 1 0.499536 0.999537 0.666603
64 1 0.583149 0.666924 0.500259
70 1 0.583149 0.916226 0.500259
71 1 0.499193 0.749597 0.666792
77 1 0.749615 0.999487 0.666452
94 1 0.834161 0.91708 0.499797
95 1 0.749615 0.750128 0.666452
5 1 0.999932 0.999966 0.666895
23 1 0.998812 0.749369 0.6671
88 1 0.831217 0.664811 0.500847
6 1 0.082071 0.166555 0.833901
12 1 0.0828629 0.417064 0.832625
37 1 0.248186 0.499384 0.000252261
30 1 0.331003 0.165501 0.833571
31 1 0.247701 0.249741 1.93402e-05
36 1 0.333047 0.417444 0.833003
60 1 0.581122 0.415068 0.833435
61 1 0.4995 0.500828 0.99956
54 1 0.581122 0.166053 0.833435
84 1 0.83151 0.415755 0.832898
7 1 0.997093 0.251747 0.999361
13 1 0.996889 0.498445 0.998788
78 1 0.831347 0.166299 0.832963
18 1 0.0828629 0.665799 0.832625
24 1 0.082071 0.915516 0.833901
25 1 0.247701 0.99796 1.935e-05
42 1 0.333101 0.66655 0.833646
43 1 0.248186 0.748802 0.000252261
48 1 0.333047 0.915603 0.833003
49 1 0.4995 0.998672 0.99956
66 1 0.583373 0.666813 0.833219
67 1 0.499822 0.749911 1.14078e-05
72 1 0.583373 0.91656 0.833219
73 1 0.750627 3.12126e-05 0.000165215
91 1 0.750627 0.750595 0.000165214
96 1 0.832202 0.916101 0.832473
1 1 0.997922 0.998961 0.000636818
19 1 0.997093 0.745346 0.999361
90 1 0.831347 0.665048 0.832963
ITEM: TIMESTEP
80
ITEM: NUMBER OF ATOMS
97
ITEM: BOX BOUNDS xy xz yz pp pp pp
-6.4403077717034343e+00 1.2880619210125165e+01 -6.4403077717034343e+00
0.0000000000000000e+00 1.1154943116692573e+01 0.0000000000000000e+00
0.0000000000000000e+00 1.5046356078130312e+01 0.0000000000000000e+00
ITEM: ATOMS id type xs ys zs
2 1 0.0803499 0.175838 0.169695
8 1 0.0805198 0.419626 0.167244
26 1 0.321872 0.160936 0.169013
32 1 0.334551 0.418618 0.166869
55 1 0.494149 0.247075 0.00144472
56 1 0.579483 0.414452 0.166806
97 2 0.146443 0.0732214 0.0954654
50 1 0.579483 0.165032 0.166806
79 1 0.746257 0.248639 0.999811
80 1 0.829999 0.414999 0.166616
85 1 0.746257 0.497617 0.999811
74 1 0.83048 0.166545 0.166846
14 1 0.0805198 0.660894 0.167244
20 1 0.0803499 0.904512 0.169695
38 1 0.334539 0.667269 0.166772
44 1 0.334551 0.915933 0.166869
62 1 0.583761 0.666911 0.166869
68 1 0.583761 0.91685 0.166869
92 1 0.829322 0.914661 0.168201
86 1 0.83048 0.663935 0.166846
39 1 0.248332 0.499958 0.333496
33 1 0.24944 0.252502 0.334731
57 1 0.496657 0.248328 0.33316
63 1 0.499951 0.501251 0.333889
81 1 0.746622 0.248689 0.333623
87 1 0.746622 0.497934 0.333623
9 1 0.996621 0.251318 0.336117
15 1 0.996618 0.498309 0.335103
27 1 0.24944 0.996938 0.334731
45 1 0.248332 0.748374 0.333496
51 1 0.499951 0.9987 0.333889
69 1 0.499722 0.749861 0.333664
75 1 0.750246 5.14453e-05 0.334127
93 1 0.750246 0.750195 0.334127
3 1 0.0017021 0.000851047 0.333507
21 1 0.996621 0.745303 0.336117
4 1 0.0818387 0.16638 0.500863
10 1 0.0829017 0.416795 0.501028
41 1 0.249301 0.50009 0.666694
28 1 0.331379 0.165689 0.500552
34 1 0.332729 0.417094 0.500256
35 1 0.249182 0.250171 0.666658
58 1 0.580969 0.415023 0.499996
59 1 0.498294 0.249147 0.666823
65 1 0.499557 0.500031 0.666602
52 1 0.580969 0.165946 0.499996
82 1 0.831295 0.415648 0.500543
83 1 0.747969 0.249106 0.666765
89 1 0.747969 0.498863 0.666765
11 1 0.998817 0.249445 0.667099
17 1 0.998158 0.499079 0.66667
76 1 0.831192 0.166406 0.500848
16 1 0.0829017 0.666107 0.501028
22 1 0.0818387 0.915459 0.500863
29 1 0.249182 0.999011 0.666658
40 1 0.33307 0.666535 0.499951
46 1 0.332729 0.915635 0.500256
47 1 0.249301 0.74921 0.666694
53 1 0.499557 0.999527 0.666602
64 1 0.58317 0.666944 0.500271
70 1 0.58317 0.916226 0.500271
71 1 0.499196 0.749598 0.666789
77 1 0.749675 0.999482 0.666471
94 1 0.8342 0.9171 0.499785
95 1 0.749675 0.750194 0.666471
5 1 0.999981 0.99999 0.666909
23 1 0.998817 0.749372 0.667099
88 1 0.831192 0.664786 0.500848
6 1 0.0820946 0.166558 0.833935
12 1 0.0828791 0.417079 0.832608
37 1 0.248176 0.49939 0.000238258
30 1 0.330997 0.165498 0.83356
31 1 0.2478 0.249822 1.60524e-05