ITEM: TIMESTEP
0
ITEM: NUMBER OF ATOMS
97
ITEM: BOX BOUNDS xy xz yz pp pp pp
-6.4403077717034343e+00 1.2880619210125165e+01 -6.4403077717034343e+00
0.0000000000000000e+00 1.1154943116692573e+01 0.0000000000000000e+00
0.0000000000000000e+00 1.5046356078130312e+01 0.0000000000000000e+00
ITEM: ATOMS id type xs ys zs
2 1 0.0905836 0.184945 0.166595
8 1 0.0818449 0.419599 0.167684
37 1 0.249569 0.499956 0.000510918
97 2 0.0272421 0.013621 0.128253
26 1 0.337494 0.168747 0.167071
32 1 0.336728 0.419401 0.166559
56 1 0.584155 0.41717 0.166669
50 1 0.584155 0.166986 0.166669
80 1 0.832831 0.416416 0.166558
74 1 0.834406 0.167725 0.166752
14 1 0.0818453 0.662247 0.167684
20 1 0.0905838 0.905638 0.166595
38 1 0.334562 0.667281 0.166566
43 1 0.249569 0.749612 0.000510738
44 1 0.336728 0.917327 0.166559
62 1 0.584535 0.667957 0.166872
68 1 0.584535 0.916579 0.166872
92 1 0.833705 0.916853 0.166276
86 1 0.834406 0.666681 0.166752
3 1 0.000100384 4.99663e-05 0.340913
39 1 0.248817 0.499384 0.33313
33 1 0.249769 0.250379 0.334404
57 1 0.499948 0.249974 0.333827
81 1 0.748992 0.249217 0.333806
87 1 0.748992 0.499775 0.333806
9 1 0.998852 0.250166 0.335565
15 1 0.998617 0.499309 0.33518
27 1 0.249769 0.999389 0.334404
40 1 0.332183 0.666092 0.499925
45 1 0.248817 0.749433 0.33313
51 1 0.499933 0.999677 0.333511
63 1 0.499933 0.500256 0.33351
69 1 0.498595 0.749297 0.333477
75 1 0.750012 0.998977 0.333368
93 1 0.750013 0.751035 0.333368
21 1 0.998852 0.748685 0.335565
4 1 0.0821924 0.165743 0.500983
5 1 0.00011865 5.87077e-05 0.668139
10 1 0.0827158 0.416429 0.500989
41 1 0.249237 0.499661 0.666543
28 1 0.332639 0.166319 0.500474
34 1 0.332578 0.416715 0.500143
35 1 0.249164 0.249878 0.66639
58 1 0.582334 0.416174 0.500296
59 1 0.499492 0.249746 0.666479
65 1 0.498986 0.49932 0.666319
52 1 0.582333 0.166159 0.500296
82 1 0.83195 0.415975 0.500318
83 1 0.749085 0.249603 0.666935
89 1 0.749085 0.499482 0.666935
11 1 0.998763 0.249055 0.667067
17 1 0.998723 0.499362 0.666812
76 1 0.831742 0.166187 0.50038
16 1 0.0827158 0.666287 0.500989
22 1 0.0821921 0.916449 0.500983
29 1 0.249163 0.999285 0.66639
46 1 0.332578 0.915863 0.500143
47 1 0.249237 0.749577 0.666544
53 1 0.498986 0.999666 0.666319
64 1 0.582276 0.666379 0.500014
70 1 0.582276 0.915898 0.500014
71 1 0.499136 0.749568 0.666551
77 1 0.748359 0.999889 0.665832
94 1 0.833353 0.916677 0.500765
95 1 0.748359 0.74847 0.665833
23 1 0.998764 0.749708 0.667068
88 1 0.831743 0.665555 0.50038
6 1 0.083516 0.167529 0.832959
12 1 0.0828815 0.416721 0.832747
25 1 0.255093 0.000999268 0.997122
30 1 0.33408 0.16704 0.832242
31 1 0.255093 0.254094 0.997122
36 1 0.333374 0.417774 0.832674
55 1 0.500694 0.250347 0.999532
60 1 0.582733 0.416508 0.8334
54 1 0.582733 0.166225 0.8334
79 1 0.74931 0.249302 0.999799
84 1 0.83242 0.41621 0.833396
7 1 0.99961 0.252892 0.999064
78 1 0.832211 0.165784 0.83322
13 1 0.000218116 0.500109 0.999267
18 1 0.0828816 0.666161 0.832747
24 1 0.0835162 0.915987 0.83296
42 1 0.33202 0.66601 0.833121
48 1 0.333374 0.9156 0.832673
49 1 0.500458 0.999131 0.999721
61 1 0.500459 0.501327 0.99972
66 1 0.581987 0.665844 0.83255
67 1 0.498215 0.749107 0.999599
72 1 0.581987 0.916144 0.83255
73 1 0.748934 0.998267 0.998947
91 1 0.748933 0.750667 0.998947
96 1 0.829611 0.914805 0.82993
1 1 0.99209 0.996045 0.993715
19 1 0.99961 0.746718 0.999064
85 1 0.74931 0.500008 0.999799
90 1 0.832212 0.666428 0.83322
ITEM: TIMESTEP
10
ITEM: NUMBER OF ATOMS
97
ITEM: BOX BOUNDS xy xz yz pp pp pp
-6.4403077717034343e+00 1.2880619210125165e+01 -6.4403077717034343e+00
0.0000000000000000e+00 1.1154943116692573e+01 0.0000000000000000e+00
0.0000000000000000e+00 1.5046356078130312e+01 0.0000000000000000e+00
ITEM: ATOMS id type xs ys zs
2 1 0.0895516 0.188422 0.166756
8 1 0.0817363 0.421789 0.16741
37 1 0.249422 0.499795 5.89273e-05
97 2 0.0213797 0.0106899 0.141139
26 1 0.335308 0.167654 0.166838
32 1 0.33875 0.42095 0.166638
56 1 0.58336 0.416355 0.166759
50 1 0.58336 0.167006 0.166759
80 1 0.832025 0.416013 0.166928
74 1 0.832969 0.167987 0.166865
14 1 0.0817363 0.659947 0.16741
20 1 0.0895517 0.901129 0.166756
38 1 0.334885 0.667442 0.166805
43 1 0.249422 0.749627 5.89371e-05
44 1 0.33875 0.9178 0.166638
62 1 0.583836 0.666937 0.166715
68 1 0.583836 0.916899 0.166715
92 1 0.830053 0.915027 0.165872
86 1 0.83297 0.664983 0.166865
3 1 0.00289837 0.00144917 0.332385
39 1 0.249217 0.499662 0.333542
33 1 0.250726 0.251501 0.334221
57 1 0.499895 0.249947 0.333683
81 1 0.748751 0.249501 0.333956
87 1 0.748751 0.49925 0.333956
9 1 0.998499 0.25031 0.335532
15 1 0.998134 0.499067 0.335395
27 1 0.250726 0.999225 0.334221
40 1 0.332555 0.666277 0.499842
45 1 0.249217 0.749555 0.333542
51 1 0.50063 0.99984 0.33387
63 1 0.50063 0.50079 0.33387
69 1 0.499382 0.749691 0.333356
75 1 0.751218 0.999613 0.333272
93 1 0.751218 0.751604 0.333272
21 1 0.998499 0.748189 0.335532
4 1 0.0823349 0.165877 0.500619
5 1 0.999315 0.999657 0.666614
10 1 0.0828767 0.416603 0.500886
41 1 0.249297 0.499809 0.666604
28 1 0.332944 0.166472 0.500574
34 1 0.332694 0.416741 0.50007
35 1 0.24958 0.250032 0.666336
58 1 0.58226 0.416051 0.500247
59 1 0.499549 0.249774 0.666677
65 1 0.499204 0.49959 0.666276
52 1 0.58226 0.166208 0.500247
82 1 0.831914 0.415957 0.500638
83 1 0.748974 0.249648 0.666893
89 1 0.748974 0.499326 0.666893
11 1 0.998857 0.249581 0.666597
17 1 0.998806 0.499403 0.666772
76 1 0.831631 0.166297 0.500663
16 1 0.0828767 0.666274 0.500886
22 1 0.0823349 0.916458 0.500619
29 1 0.249579 0.999547 0.666336
46 1 0.332694 0.915952 0.500071
47 1 0.249297 0.749488 0.666604
53 1 0.499204 0.999613 0.666276
64 1 0.582649 0.666666 0.499664
70 1 0.582649 0.915983 0.499664
71 1 0.498927 0.749464 0.666352
77 1 0.748414 0.999623 0.665827
94 1 0.833809 0.916904 0.49986
95 1 0.748414 0.748791 0.665827
23 1 0.998857 0.749275 0.666597
88 1 0.831631 0.665333 0.500663
6 1 0.0836342 0.168228 0.831955
12 1 0.0828131 0.416905 0.832658
25 1 0.253204 0.998833 0.997794
30 1 0.333141 0.166571 0.832398
31 1 0.253204 0.254371 0.997794
36 1 0.33343 0.417492 0.832611
55 1 0.500503 0.250251 0.999685
60 1 0.582585 0.416297 0.833064
54 1 0.582585 0.166288 0.833064
79 1 0.749046 0.249791 0.999598
84 1 0.832205 0.416103 0.833126
7 1 0.999708 0.252621 0.998419
78 1 0.832267 0.166022 0.83273
13 1 0.99881 0.499405 0.998821
18 1 0.0828131 0.665908 0.832658
24 1 0.0836342 0.915406 0.831955
42 1 0.332413 0.666206 0.833331
48 1 0.33343 0.915938 0.832611
49 1 0.500734 0.999676 0.999304
61 1 0.500734 0.501058 0.999304
66 1 0.582204 0.666113 0.8327
67 1 0.499079 0.749539 0.999668
72 1 0.582204 0.916091 0.8327
73 1 0.749325 0.9987 0.99897
91 1 0.749325 0.750625 0.99897
96 1 0.830432 0.915216 0.830584
1 1 0.000498937 0.000249487 0.997885
19 1 0.999709 0.747088 0.998419
85 1 0.749046 0.499256 0.999598
90 1 0.832267 0.666246 0.83273
ITEM: TIMESTEP
20
ITEM: NUMBER OF ATOMS
97
ITEM: BOX BOUNDS xy xz yz pp pp pp
-6.4403077717034343e+00 1.2880619210125165e+01 -6.4403077717034343e+00
0.0000000000000000e+00 1.1154943116692573e+01 0.0000000000000000e+00
0.0000000000000000e+00 1.5046356078130312e+01 0.0000000000000000e+00
ITEM: ATOMS id type xs ys zs
2 1 0.0891848 0.190235 0.16611
8 1 0.0814913 0.422444 0.167266
37 1 0.249322 0.49998 6.24752e-05
97 2 0.0212699 0.010635 0.148063
26 1 0.332859 0.16643 0.166549
32 1 0.339094 0.421362 0.166595
56 1 0.582436 0.415674 0.166713
50 1 0.582436 0.166761 0.166713
80 1 0.831435 0.415717 0.166854
74 1 0.832514 0.168259 0.166647
14 1 0.0814913 0.659047 0.167266
20 1 0.0891848 0.89895 0.16611
38 1 0.335341 0.66767 0.166789
43 1 0.249322 0.749341 6.24791e-05
44 1 0.339094 0.917732 0.166595
62 1 0.583973 0.666763 0.166607
68 1 0.583973 0.91721 0.166607
92 1 0.82877 0.914385 0.165818
86 1 0.832514 0.664255 0.166647
3 1 0.00450055 0.00225027 0.329615
39 1 0.249349 0.499947 0.333505
33 1 0.250869 0.252285 0.334075
57 1 0.499181 0.249591 0.333419
81 1 0.748401 0.249424 0.333908
87 1 0.748401 0.498977 0.333908
9 1 0.998642 0.250551 0.335256
15 1 0.997805 0.498902 0.335504
27 1 0.250869 0.998584 0.334075
40 1 0.3329 0.66645 0.499841
45 1 0.249349 0.749402 0.333505
51 1 0.500935 0.99974 0.333949
63 1 0.500935 0.501195 0.333949
69 1 0.499829 0.749915 0.333341
75 1 0.751777 0.999802 0.333127
93 1 0.751777 0.751976 0.333127
21 1 0.998642 0.748091 0.335256
4 1 0.0822444 0.165651 0.500048
5 1 0.999464 0.999732 0.666351
10 1 0.0830925 0.416669 0.500814
41 1 0.249389 0.499956 0.666604
28 1 0.332714 0.166357 0.500415
34 1 0.332883 0.416953 0.500105
35 1 0.249438 0.25002 0.66625
58 1 0.582082 0.415823 0.500199
59 1 0.499242 0.249621 0.666647
65 1 0.499423 0.49985 0.666339
52 1 0.582082 0.166259 0.500199
82 1 0.831914 0.415957 0.500657
83 1 0.748764 0.249523 0.666791
89 1 0.748764 0.499241 0.666791
11 1 0.998929 0.249568 0.666453
17 1 0.998812 0.499406 0.666712
76 1 0.831646 0.16639 0.500596
16 1 0.0830925 0.666424 0.500814
22 1 0.0822444 0.916593 0.500048
29 1 0.249438 0.999418 0.66625
46 1 0.332883 0.91593 0.500105
47 1 0.249389 0.749433 0.666604
53 1 0.499423 0.999573 0.666339
64 1 0.583161 0.667017 0.499701
70 1 0.583161 0.916145 0.499701
71 1 0.499 0.7495 0.666431
77 1 0.748904 0.999425 0.665926
94 1 0.834744 0.917372 0.499204
95 1 0.748904 0.749478 0.665926
23 1 0.998929 0.749361 0.666453
88 1 0.831646 0.665256 0.500596
6 1 0.0829883 0.167373 0.832163
12 1 0.0829529 0.416913 0.832562
25 1 0.252711 0.998191 0.997674
30 1 0.332584 0.166292 0.832331
31 1 0.252711 0.25452 0.997674
36 1 0.333357 0.417567 0.832553
55 1 0.499435 0.249718 0.999817
60 1 0.582145 0.415905 0.833075
54 1 0.582145 0.166241 0.833075
79 1 0.748362 0.24954 0.999502
84 1 0.83202 0.41601 0.832973
7 1 0.99934 0.252344 0.998093
78 1 0.831979 0.166191 0.832531
13 1 0.998169 0.499084 0.998544
18 1 0.0829529 0.66604 0.832562
24 1 0.0829883 0.915615 0.832163
42 1 0.332705 0.666352 0.833439
48 1 0.333357 0.915789 0.832553
49 1 0.500897 0.99951 0.999189
61 1 0.500897 0.501387 0.999189
66 1 0.58279 0.666603 0.832807
67 1 0.499515 0.749757 0.999709
72 1 0.58279 0.916187 0.832807
73 1 0.75046 0.999137 0.999024
91 1 0.75046 0.751323 0.999024
96 1 0.832352 0.916176 0.83159
1 1 0.00325347 0.00162674 0.00112673
19 1 0.99934 0.746996 0.998093
85 1 0.748362 0.498822 0.999502
90 1 0.831979 0.665788 0.832531
ITEM: TIMESTEP
30
ITEM: NUMBER OF ATOMS
97
ITEM: BOX BOUNDS xy xz yz pp pp pp
-6.4403077717034343e+00 1.2880619210125165e+01 -6.4403077717034343e+00
0.0000000000000000e+00 1.1154943116692573e+01 0.0000000000000000e+00
0.0000000000000000e+00 1.5046356078130312e+01 0.0000000000000000e+00
ITEM: ATOMS id type xs ys zs
2 1 0.0886867 0.191471 0.165729
8 1 0.0812114 0.42289 0.167114
37 1 0.249253 0.500143 8.17929e-06
97 2 0.0223801 0.0112034 0.153141
26 1 0.33073 0.165365 0.166292
32 1 0.339211 0.421554 0.166496
56 1 0.581603 0.415125 0.16664
50 1 0.581603 0.166478 0.16664
80 1 0.830869 0.415435 0.166768
74 1 0.832101 0.168404 0.166547
14 1 0.0812117 0.658323 0.167114
20 1 0.0886922 0.897203 0.16573
38 1 0.335682 0.667841 0.166729
43 1 0.249253 0.74911 8.2266e-06
44 1 0.339211 0.917657 0.166496
62 1 0.584136 0.666758 0.166569
68 1 0.584136 0.917378 0.166569
92 1 0.828422 0.914212 0.165923
86 1 0.8321 0.663696 0.166547
3 1 0.0058107 0.00290599 0.327668
39 1 0.249331 0.500111 0.333412
33 1 0.250961 0.252917 0.334034
57 1 0.498443 0.249221 0.333136
81 1 0.747986 0.249291 0.333844
87 1 0.747986 0.498695 0.333844
9 1 0.998633 0.250692 0.335096
15 1 0.997399 0.498699 0.335543
27 1 0.250961 0.998043 0.334035
40 1 0.333157 0.666579 0.499769
45 1 0.249331 0.749221 0.333412
51 1 0.501047 0.999549 0.333968
63 1 0.501047 0.501497 0.333968
69 1 0.500106 0.750053 0.333342
75 1 0.752148 0.999918 0.333108
93 1 0.752148 0.75223 0.333108
21 1 0.998633 0.74794 0.335097
4 1 0.082139 0.165543 0.499715
5 1 0.999734 0.999867 0.666278
10 1 0.0831875 0.416707 0.500741
41 1 0.249432 0.500108 0.666528
28 1 0.332395 0.166197 0.500313
34 1 0.332993 0.417133 0.500112
35 1 0.249337 0.250089 0.666195
58 1 0.581851 0.415602 0.500091
59 1 0.499028 0.249514 0.666537
65 1 0.499627 0.500087 0.666344
52 1 0.581851 0.166249 0.500091
82 1 0.831788 0.415894 0.500645
83 1 0.748562 0.249391 0.666717
89 1 0.748562 0.499171 0.666717
11 1 0.998986 0.249561 0.66641
17 1 0.998709 0.499354 0.666641
76 1 0.831631 0.166487 0.500581
16 1 0.0831875 0.66648 0.500741
22 1 0.082139 0.916596 0.499715
29 1 0.249337 0.999248 0.666195
46 1 0.332993 0.91586 0.500112
47 1 0.249432 0.749324 0.666528
53 1 0.499627 0.99954 0.666344
64 1 0.583555 0.66728 0.499759
70 1 0.583555 0.916275 0.499759
71 1 0.499096 0.749548 0.666471
77 1 0.749374 0.99933 0.666046
94 1 0.835449 0.917725 0.498835
95 1 0.749374 0.750044 0.666046
23 1 0.998986 0.749425 0.66641
88 1 0.831631 0.665144 0.500581
6 1 0.0826526 0.166873 0.832406
12 1 0.0830873 0.416966 0.832461
25 1 0.252568 0.997784 0.997523
30 1 0.33226 0.16613 0.832188
31 1 0.252567 0.254783 0.997524
36 1 0.333403 0.417783 0.832443
55 1 0.498679 0.24934 0.999897
60 1 0.581789 0.415608 0.833052
54 1 0.581789 0.166182 0.833052
79 1 0.747848 0.249317 0.999436
84 1 0.831823 0.415911 0.832852
7 1 0.999065 0.252164 0.997877
78 1 0.831806 0.166329 0.832452
13 1 0.997643 0.498822 0.998289
18 1 0.0830873 0.666121 0.832461
24 1 0.0826526 0.91578 0.832406
42 1 0.333017 0.666509 0.833452
48 1 0.333403 0.91562 0.832443
49 1 0.501101 0.999326 0.999081
61 1 0.501101 0.501775 0.999081
66 1 0.583387 0.667057 0.832881
67 1 0.4999 0.74995 0.999719
72 1 0.583387 0.91633 0.832881
73 1 0.751408 0.999468 0.999218
91 1 0.751407 0.751939 0.999218
96 1 0.833795 0.916898 0.832383
1 1 0.00516596 0.00258371 0.00329635
19 1 0.999065 0.7469 0.997876
85 1 0.747848 0.498531 0.999436
90 1 0.831806 0.665477 0.832452
ITEM: TIMESTEP
40
ITEM: NUMBER OF ATOMS
97
ITEM: BOX BOUNDS xy xz yz pp pp pp
-6.4403077717034343e+00 1.2880619210125165e+01 -6.4403077717034343e+00
0.0000000000000000e+00 1.1154943116692573e+01 0.0000000000000000e+00
0.0000000000000000e+00 1.5046356078130312e+01 0.0000000000000000e+00
ITEM: ATOMS id type xs ys zs
2 1 0.0884415 0.192043 0.1656
8 1 0.0810313 0.423071 0.167005
37 1 0.249226 0.500228 0.999965
97 2 0.02301 0.0115118 0.155794
26 1 0.329587 0.164794 0.166173
32 1 0.339236 0.421619 0.166436
56 1 0.581161 0.41485 0.166592
50 1 0.581161 0.166311 0.166592
80 1 0.830545 0.415272 0.166713
74 1 0.83187 0.168459 0.166504
14 1 0.0810315 0.657961 0.167005
20 1 0.0884441 0.896391 0.165601
38 1 0.335825 0.667912 0.166679
43 1 0.249226 0.748998 0.999965
44 1 0.339236 0.917617 0.166436
62 1 0.584206 0.666762 0.166552
68 1 0.584206 0.917445 0.166552
92 1 0.82831 0.914155 0.165995
86 1 0.83187 0.663411 0.166504
3 1 0.0065054 0.00325303 0.326719
39 1 0.249277 0.500175 0.333339
33 1 0.25103 0.253266 0.334054
57 1 0.498032 0.249016 0.332973
81 1 0.747737 0.2492 0.333803
87 1 0.747737 0.498537 0.333803
9 1 0.998604 0.250755 0.335016
15 1 0.997148 0.498574 0.335534
27 1 0.25103 0.997764 0.334054
40 1 0.333269 0.666635 0.499711
45 1 0.249277 0.749103 0.333339
51 1 0.501077 0.999422 0.333968
63 1 0.501077 0.501655 0.333968
69 1 0.500216 0.750108 0.333337
75 1 0.75232 0.999965 0.333107
93 1 0.75232 0.752356 0.333107
21 1 0.998604 0.747848 0.335016
4 1 0.0820801 0.165509 0.499569
5 1 0.9999 0.99995 0.666265
10 1 0.0832037 0.416719 0.500687
41 1 0.249447 0.500191 0.666474
28 1 0.332202 0.166101 0.50027
34 1 0.333036 0.417243 0.500116
35 1 0.2493 0.250141 0.666172
58 1 0.581695 0.415472 0.50002
59 1 0.498931 0.249466 0.66647
65 1 0.499744 0.500223 0.666339
52 1 0.581695 0.166223 0.50002
82 1 0.831682 0.415841 0.500627
83 1 0.748454 0.249313 0.666671
89 1 0.748454 0.499141 0.666671
11 1 0.999024 0.249562 0.666393
17 1 0.998639 0.49932 0.666591
76 1 0.831611 0.166528 0.500572
16 1 0.0832037 0.666485 0.500687
22 1 0.0820802 0.916571 0.499569
29 1 0.2493 0.999159 0.666172
46 1 0.333036 0.915793 0.500116
47 1 0.249447 0.749256 0.666474
53 1 0.499744 0.999521 0.666339
64 1 0.583758 0.667418 0.499789
70 1 0.583758 0.916339 0.499789
71 1 0.499152 0.749576 0.666482
77 1 0.749641 0.999286 0.666119
94 1 0.8358 0.9179 0.498671
95 1 0.749641 0.750355 0.666119
23 1 0.999024 0.749462 0.666393
88 1 0.831611 0.665083 0.500572
6 1 0.0825398 0.166656 0.832541
12 1 0.0831746 0.417005 0.832401
25 1 0.252528 0.997598 0.997462
30 1 0.332132 0.166066 0.832114
31 1 0.252528 0.25493 0.997463
36 1 0.333458 0.41792 0.832379
55 1 0.498308 0.249154 0.999944
60 1 0.581624 0.415466 0.833035
54 1 0.581624 0.166157 0.833035
79 1 0.747607 0.249208 0.999397
84 1 0.831728 0.415864 0.832779
7 1 0.998941 0.252061 0.99777
78 1 0.831746 0.166408 0.832416
13 1 0.997374 0.498687 0.998142
18 1 0.0831746 0.66617 0.832401
24 1 0.0825398 0.915884 0.832541
42 1 0.33321 0.666605 0.833444
48 1 0.333458 0.915538 0.832379
49 1 0.501224 0.999232 0.99902
61 1 0.501224 0.501992 0.99902
66 1 0.583735 0.667315 0.832917
67 1 0.500114 0.750057 0.999718
72 1 0.583735 0.916421 0.832917
73 1 0.751899 0.999645 0.999341
91 1 0.751899 0.752254 0.999341
96 1 0.83456 0.91728 0.832814
1 1 0.00612413 0.00306241 0.00434009
19 1 0.998941 0.746879 0.99777
85 1 0.747607 0.498399 0.999397
90 1 0.831746 0.665339 0.832416
ITEM: TIMESTEP
50
ITEM: NUMBER OF ATOMS
97
ITEM: BOX BOUNDS xy xz yz pp pp pp
-6.4403077717034343e+00 1.2880619210125165e+01 -6.4403077717034343e+00
0.0000000000000000e+00 1.1154943116692573e+01 0.0000000000000000e+00
0.0000000000000000e+00 1.5046356078130312e+01 0.0000000000000000e+00
ITEM: ATOMS id type xs ys zs
2 1 0.0883168 0.192441 0.16556
8 1 0.0808838 0.423172 0.166903
37 1 0.24921 0.500292 0.999925
97 2 0.0233187 0.0116315 0.157731
26 1 0.328781 0.16439 0.166106
32 1 0.339244 0.421661 0.16639
56 1 0.580841 0.414658 0.166552
50 1 0.580841 0.166182 0.166552
80 1 0.830292 0.415146 0.166662
74 1 0.831702 0.168493 0.166473
14 1 0.0808831 0.657709 0.166903
20 1 0.0883063 0.895903 0.165557
38 1 0.33591 0.667955 0.166631
43 1 0.24921 0.748918 0.999925
44 1 0.339244 0.917583 0.16639
62 1 0.584238 0.666748 0.166538
68 1 0.584238 0.91749 0.166538
92 1 0.828193 0.914095 0.166056
86 1 0.831703 0.66321 0.166473
3 1 0.00699927 0.0034982 0.326076
39 1 0.249216 0.500212 0.33327
33 1 0.251101 0.253532 0.334091
57 1 0.497735 0.248868 0.332855
81 1 0.747542 0.249124 0.333768
87 1 0.747542 0.498418 0.333768
9 1 0.998576 0.250805 0.334955
15 1 0.996947 0.498474 0.335503
27 1 0.251101 0.997569 0.334091
40 1 0.333347 0.666674 0.499655
45 1 0.249216 0.749004 0.333271
51 1 0.501088 0.999316 0.333968
63 1 0.501088 0.501773 0.333968
69 1 0.500285 0.750143 0.333328
75 1 0.752433 0.999994 0.333109
93 1 0.752433 0.752439 0.333109
21 1 0.998576 0.747771 0.334955
4 1 0.0820424 0.165505 0.499475
5 1 4.33335e-05 2.16365e-05 0.666262
10 1 0.0832042 0.416729 0.500635
41 1 0.249455 0.500257 0.666428
28 1 0.332049 0.166025 0.500249
34 1 0.333066 0.417341 0.500124
35 1 0.249283 0.25019 0.666159
58 1 0.581564 0.41537 0.499964
59 1 0.498862 0.249431 0.666419
65 1 0.49984 0.500335 0.666335
52 1 0.581564 0.166194 0.499964
82 1 0.831587 0.415793 0.500602
83 1 0.748372 0.24925 0.666629
89 1 0.748372 0.499122 0.666629
11 1 0.999059 0.249568 0.666378
17 1 0.99858 0.49929 0.666544
76 1 0.831594 0.166557 0.500561
16 1 0.0832042 0.666475 0.500635
22 1 0.0820424 0.916538 0.499475
29 1 0.249283 0.999093 0.666159
46 1 0.333067 0.915726 0.500124
47 1 0.249455 0.749198 0.666428
53 1 0.49984 0.999505 0.666335
64 1 0.583914 0.667527 0.499812
70 1 0.583914 0.916387 0.499812
71 1 0.499199 0.7496 0.666485
77 1 0.749858 0.999258 0.666175
94 1 0.836055 0.918027 0.498563
95 1 0.749858 0.750599 0.666175
23 1 0.999059 0.749491 0.666378
88 1 0.831594 0.665037 0.500561
6 1 0.0824849 0.166518 0.832645
12 1 0.0832476 0.417039 0.832352
25 1 0.252503 0.997473 0.99744
30 1 0.332046 0.166023 0.832066
31 1 0.252504 0.25503 0.997439
36 1 0.333509 0.418028 0.832333
55 1 0.498043 0.249021 0.999979
60 1 0.581508 0.415365 0.833018
54 1 0.581508 0.166143 0.833018
79 1 0.747441 0.249131 0.999362
84 1 0.83166 0.41583 0.832712
7 1 0.998867 0.25198 0.997702
78 1 0.83172 0.166476 0.832389
13 1 0.997174 0.498587 0.998022
18 1 0.0832477 0.666209 0.832352
24 1 0.0824848 0.915967 0.832645
42 1 0.333371 0.666686 0.833431
48 1 0.333509 0.915481 0.832333
49 1 0.501315 0.999164 0.998969
61 1 0.501315 0.50215 0.998969
66 1 0.584013 0.667517 0.832939
67 1 0.50028 0.75014 0.999714
72 1 0.584013 0.916496 0.832939
73 1 0.752246 0.999778 0.999432
91 1 0.752247 0.752468 0.999432
96 1 0.835137 0.917569 0.833138
1 1 0.00679586 0.00339645 0.00507595
19 1 0.998867 0.746888 0.997703
85 1 0.747441 0.498309 0.999362
90 1 0.83172 0.665245 0.832389
ITEM: TIMESTEP
60
ITEM: NUMBER OF ATOMS
97
ITEM: BOX BOUNDS xy xz yz pp pp pp
-6.4403077717034343e+00 1.2880619210125165e+01 -6.4403077717034343e+00
0.0000000000000000e+00 1.1154943116692573e+01 0.0000000000000000e+00
0.0000000000000000e+00 1.5046356078130312e+01 0.0000000000000000e+00
ITEM: ATOMS id type xs ys zs
2 1 0.0882741 0.1927 0.165574
8 1 0.0807491 0.423226 0.1668
37 1 0.249198 0.500345 0.999883
97 2 0.0233609 0.0116622 0.15926
26 1 0.328202 0.164101 0.166074
32 1 0.339248 0.421701 0.166352
56 1 0.58059 0.414517 0.166515
50 1 0.58059 0.166072 0.166515
80 1 0.830071 0.415036 0.166608
74 1 0.831574 0.168516 0.166448
14 1 0.0807487 0.657521 0.1668
20 1 0.0882675 0.895592 0.165573
38 1 0.335957 0.667979 0.166581
43 1 0.249198 0.748853 0.999882
44 1 0.339248 0.917548 0.166352
62 1 0.584242 0.666714 0.166524
68 1 0.584242 0.917527 0.166524
92 1 0.828034 0.914017 0.166114
86 1 0.831575 0.66306 0.166448
3 1 0.0073613 0.00367969 0.325617
39 1 0.249144 0.500233 0.333201
33 1 0.251172 0.253747 0.33414
57 1 0.497511 0.248755 0.332768
81 1 0.747371 0.249051 0.333732
87 1 0.747371 0.49832 0.333732
9 1 0.998546 0.250848 0.334906
15 1 0.996764 0.498382 0.335454
27 1 0.251172 0.997425 0.334139
40 1 0.33341 0.666705 0.499597
45 1 0.249144 0.748911 0.333201
51 1 0.501083 0.999216 0.33397
63 1 0.501083 0.501867 0.33397
69 1 0.50033 0.750165 0.333314
75 1 0.752504 1.15068e-05 0.333117
93 1 0.752504 0.752492 0.333117
21 1 0.998546 0.747699 0.334906
4 1 0.082018 0.165521 0.499411
5 1 0.0001904 9.51779e-05 0.666267
10 1 0.0831938 0.416742 0.500582
41 1 0.24946 0.500318 0.666386
28 1 0.331915 0.165957 0.500242
34 1 0.33309 0.417438 0.500134
35 1 0.249283 0.250246 0.666155
58 1 0.581439 0.415283 0.499917
59 1 0.498805 0.249402 0.666378
65 1 0.499927 0.50044 0.666331
52 1 0.581439 0.166156 0.499917
82 1 0.831489 0.415745 0.500568
83 1 0.7483 0.249192 0.666585
89 1 0.7483 0.499108 0.666585
11 1 0.999096 0.249582 0.666364
17 1 0.998521 0.49926 0.666494
76 1 0.831578 0.166581 0.500549
16 1 0.0831938 0.666452 0.500582
22 1 0.082018 0.916497 0.499411
29 1 0.249283 0.999037 0.666155
46 1 0.33309 0.915652 0.500134
47 1 0.24946 0.749141 0.666386
53 1 0.499927 0.999486 0.666331
64 1 0.584051 0.667624 0.499832
70 1 0.584051 0.916427 0.499832
71 1 0.499247 0.749623 0.666481
77 1 0.750059 0.999244 0.666224
94 1 0.836261 0.91813 0.49849
95 1 0.750059 0.750815 0.666224
23 1 0.999096 0.749514 0.666364
88 1 0.831578 0.664998 0.500549
6 1 0.0824675 0.166428 0.832738
12 1 0.0833143 0.417073 0.832308
25 1 0.252489 0.997389 0.997446
30 1 0.331981 0.165991 0.832037
31 1 0.25249 0.2551 0.997446
36 1 0.33356 0.418123 0.832297
55 1 0.497846 0.248923 1.02376e-06
60 1 0.58142 0.415288 0.832999
54 1 0.58142 0.166132 0.832999
79 1 0.747318 0.249071 0.999325
84 1 0.831601 0.4158 0.832645
7 1 0.998832 0.25191 0.997664
78 1 0.831722 0.166546 0.832365
13 1 0.997005 0.498502 0.997914
18 1 0.0833144 0.666241 0.832308
24 1 0.0824675 0.916039 0.832738
42 1 0.333525 0.666762 0.833413
48 1 0.33356 0.915437 0.832296
49 1 0.501385 0.999109 0.99892
61 1 0.501385 0.502276 0.99892
66 1 0.584262 0.667693 0.832951
67 1 0.500423 0.750212 0.999705
72 1 0.584262 0.916568 0.832951
73 1 0.75251 0.999886 0.999501
91 1 0.75251 0.752624 0.999501
96 1 0.835625 0.917813 0.833405
1 1 0.00730726 0.00365263 0.0056613
19 1 0.998832 0.746922 0.997665
85 1 0.747318 0.498247 0.999325
90 1 0.831722 0.665176 0.832365
ITEM: TIMESTEP
70
ITEM: NUMBER OF ATOMS
97
ITEM: BOX BOUNDS xy xz yz pp pp pp
-6.4403077717034343e+00 1.2880619210125165e+01 -6.4403077717034343e+00
0.0000000000000000e+00 1.1154943116692573e+01 0.0000000000000000e+00
0.0000000000000000e+00 1.5046356078130312e+01 0.0000000000000000e+00
ITEM: ATOMS id type xs ys zs
2 1 0.0882825 0.192767 0.165593
8 1 0.0806965 0.423235 0.166758
37 1 0.249195 0.500364 0.999864
97 2 0.0232916 0.0116505 0.159786
26 1 0.328035 0.164018 0.16607
32 1 0.339251 0.42172 0.166339
56 1 0.580507 0.414474 0.1665
50 1 0.580507 0.166033 0.1665
80 1 0.829989 0.414994 0.166585
74 1 0.831535 0.168522 0.16644
14 1 0.0806966 0.657462 0.166758
20 1 0.0882842 0.895511 0.165593
38 1 0.335966 0.667983 0.16656
43 1 0.249195 0.748831 0.999864
44 1 0.339251 0.917531 0.166339
62 1 0.584234 0.666694 0.166518
68 1 0.584234 0.91754 0.166518
92 1 0.827949 0.913974 0.166137
86 1 0.831535 0.663013 0.16644
3 1 0.00747094 0.00373571 0.325473
39 1 0.249108 0.500235 0.333172
33 1 0.251199 0.253819 0.334161
57 1 0.49744 0.24872 0.332743
81 1 0.747307 0.24902 0.333717
87 1 0.747307 0.498287 0.333717
9 1 0.998533 0.250862 0.334888
15 1 0.996691 0.498346 0.335429
27 1 0.251199 0.99738 0.334161
40 1 0.333431 0.666716 0.499572
45 1 0.249108 0.748873 0.333172
51 1 0.501075 0.999176 0.333971
63 1 0.501075 0.501899 0.333971
69 1 0.500338 0.750169 0.333307
75 1 0.752519 1.37621e-05 0.333123
93 1 0.752519 0.752505 0.333123
21 1 0.998533 0.747671 0.334888
4 1 0.0820108 0.165533 0.499392
5 1 0.000253993 0.000126992 0.666272
10 1 0.0831846 0.416747 0.500559
41 1 0.24946 0.500342 0.666369
28 1 0.331864 0.165932 0.500243
34 1 0.333095 0.417477 0.500138
35 1 0.249288 0.250271 0.666156
58 1 0.581389 0.415252 0.4999
59 1 0.498785 0.249392 0.666364
65 1 0.49996 0.500483 0.666329
52 1 0.581389 0.166137 0.4999
82 1 0.831445 0.415723 0.500551
83 1 0.748273 0.249169 0.666567
89 1 0.748273 0.499105 0.666567
11 1 0.999113 0.24959 0.666358
17 1 0.998494 0.499247 0.666473
76 1 0.831571 0.166589 0.500544
16 1 0.0831846 0.666437 0.500559
22 1 0.0820108 0.916478 0.499392
29 1 0.249288 0.999017 0.666156
46 1 0.333095 0.915618 0.500138
47 1 0.24946 0.749118 0.666369
53 1 0.49996 0.999477 0.666329
64 1 0.584101 0.66766 0.49984
70 1 0.584101 0.916441 0.49984
71 1 0.499267 0.749633 0.666477
77 1 0.750138 0.999242 0.666242
94 1 0.836332 0.918166 0.498469
95 1 0.750138 0.750896 0.666242
23 1 0.999113 0.749523 0.666358
88 1 0.831571 0.664982 0.500544
6 1 0.0824717 0.166405 0.832774
12 1 0.08334 0.417087 0.832292
25 1 0.252489 0.997369 0.997457
30 1 0.331962 0.165981 0.83203
31 1 0.252489 0.25512 0.997457
36 1 0.33358 0.418158 0.832285
55 1 0.497791 0.248895 5.28766e-06
60 1 0.581392 0.415265 0.832989
54 1 0.581392 0.166128 0.832989
79 1 0.747282 0.249051 0.999309
84 1 0.831578 0.415789 0.832617
7 1 0.99883 0.251884 0.997657
78 1 0.831732 0.166576 0.832357
13 1 0.996944 0.498472 0.997873
18 1 0.08334 0.666253 0.832292
24 1 0.0824717 0.916067 0.832774
42 1 0.333587 0.666793 0.833404
48 1 0.33358 0.915422 0.832285
49 1 0.50141 0.999091 0.9989
61 1 0.50141 0.502319 0.9989
66 1 0.584357 0.667761 0.832953
67 1 0.500475 0.750238 0.9997
72 1 0.584357 0.916597 0.832953
73 1 0.752597 0.999924 0.999523
91 1 0.752597 0.752673 0.999523
96 1 0.835805 0.917902 0.833499
1 1 0.00747608 0.0037383 0.00586908
19 1 0.99883 0.746945 0.997657
85 1 0.747282 0.498231 0.99931
90 1 0.831732 0.665156 0.832357
ITEM: TIMESTEP
80
ITEM: NUMBER OF ATOMS
97
ITEM: BOX BOUNDS xy xz yz pp pp pp
-6.4403077717034343e+00 1.2880619210125165e+01 -6.4403077717034343e+00
0.0000000000000000e+00 1.1154943116692573e+01 0.0000000000000000e+00
0.0000000000000000e+00 1.5046356078130312e+01 0.0000000000000000e+00
ITEM: ATOMS id type xs ys zs
2 1 0.0883148 0.192835 0.165616
8 1 0.0806511 0.423235 0.166721
37 1 0.249192 0.500379 0.999848
97 2 0.0231777 0.0115825 0.16021
26 1 0.327929 0.163965 0.166071
32 1 0.339256 0.42174 0.166328
56 1 0.580446 0.414445 0.166487
50 1 0.580446 0.166001 0.166487
80 1 0.829919 0.41496 0.166564
74 1 0.831507 0.168525 0.166432
14 1 0.080651 0.657415 0.166721
20 1 0.0883126 0.895486 0.165615
38 1 0.335965 0.667983 0.16654
43 1 0.249192 0.748814 0.999848
44 1 0.339256 0.917516 0.166328
62 1 0.584222 0.666671 0.166513
68 1 0.584222 0.917551 0.166513
92 1 0.827855 0.913927 0.166157
86 1 0.831508 0.662983 0.166432
3 1 0.00754635 0.00377283 0.325363
39 1 0.249071 0.500232 0.333146
33 1 0.251222 0.253874 0.33418
57 1 0.497392 0.248696 0.332726
81 1 0.747254 0.248992 0.333704
87 1 0.747254 0.498262 0.333704
9 1 0.998522 0.250872 0.334873
15 1 0.996626 0.498313 0.335403
27 1 0.251222 0.997349 0.33418
40 1 0.333445 0.666723 0.499549
45 1 0.249071 0.748839 0.333146
51 1 0.501063 0.999141 0.333973
63 1 0.501063 0.501922 0.333973
69 1 0.500339 0.750169 0.3333
75 1 0.752522 1.19826e-05 0.333129
93 1 0.752522 0.75251 0.333129
21 1 0.998522 0.74765 0.334873
4 1 0.0820052 0.165543 0.499379
5 1 0.000312622 0.000156298 0.666277
10 1 0.0831713 0.416751 0.500539
41 1 0.249457 0.500362 0.666354
28 1 0.33182 0.16591 0.500246
34 1 0.333096 0.41751 0.500141
35 1 0.249296 0.250295 0.666158
58 1 0.581344 0.415227 0.499888
59 1 0.498769 0.249385 0.666353
65 1 0.499986 0.50052 0.666327
52 1 0.581344 0.166117 0.499888
82 1 0.831401 0.415701 0.500535
83 1 0.748251 0.249148 0.666551
89 1 0.748251 0.499103 0.666551
11 1 0.999129 0.249597 0.666354
17 1 0.998467 0.499234 0.666453
76 1 0.831564 0.166595 0.500539
16 1 0.0831713 0.66642 0.500539
22 1 0.0820051 0.916462 0.499379
29 1 0.249296 0.999 0.666158
46 1 0.333096 0.915586 0.500141
47 1 0.249457 0.749095 0.666354
53 1 0.499986 0.999466 0.666327
64 1 0.584141 0.66769 0.499846
70 1 0.584141 0.91645 0.499846
71 1 0.499283 0.749642 0.666473
77 1 0.750207 0.999243 0.666256
94 1 0.83639 0.918195 0.498455
95 1 0.750207 0.750964 0.666256
23 1 0.999129 0.749532 0.666354
88 1 0.831564 0.664969 0.500539
6 1 0.0824828 0.16639 0.832807
12 1 0.0833617 0.4171 0.832278
25 1 0.252493 0.997361 0.997473
30 1 0.331951 0.165975 0.832027
31 1 0.252493 0.255132 0.997473
36 1 0.333598 0.418188 0.832276
55 1 0.497759 0.24888 5.87229e-06
60 1 0.581374 0.41525 0.83298
54 1 0.581374 0.166124 0.83298