ITEM: TIMESTEP
0
ITEM: NUMBER OF ATOMS
97
ITEM: BOX BOUNDS xy xz yz pp pp pp
-6.4403077717034343e+00 1.2880619210125165e+01 -6.4403077717034343e+00
0.0000000000000000e+00 1.1154943116692573e+01 0.0000000000000000e+00
0.0000000000000000e+00 1.5046356078130312e+01 0.0000000000000000e+00
ITEM: ATOMS id type xs ys zs
2 1 0.0805685 0.172106 0.173641
8 1 0.0815054 0.418028 0.167735
97 2 0.118749 0.0593747 0.0940579
26 1 0.334058 0.167029 0.167692
32 1 0.332627 0.416114 0.16698
56 1 0.5828 0.415959 0.167253
50 1 0.5828 0.166841 0.167253
80 1 0.832461 0.416231 0.166864
74 1 0.832639 0.167013 0.167736
14 1 0.0815058 0.663478 0.167735
20 1 0.0805687 0.908463 0.173642
38 1 0.333901 0.66695 0.166842
44 1 0.332627 0.916513 0.16698
62 1 0.58344 0.666882 0.166833
68 1 0.583439 0.916558 0.166833
92 1 0.828132 0.914066 0.170515
86 1 0.832639 0.665627 0.167736
39 1 0.248712 0.499434 0.333191
33 1 0.250042 0.250625 0.334648
57 1 0.499242 0.249621 0.333603
63 1 0.499132 0.499898 0.333385
81 1 0.748334 0.249364 0.333964
87 1 0.748335 0.498971 0.333963
9 1 0.997341 0.251346 0.336399
15 1 0.998388 0.499194 0.334976
27 1 0.250042 0.999417 0.334648
45 1 0.248713 0.749278 0.333191
51 1 0.499132 0.999234 0.333385
69 1 0.498626 0.749313 0.333262
75 1 0.749042 0.999914 0.334362
93 1 0.749042 0.749128 0.334362
3 1 0.998696 0.999348 0.333631
21 1 0.997341 0.745995 0.336399
4 1 0.0823744 0.166115 0.501819
10 1 0.0826333 0.416566 0.501375
41 1 0.249217 0.499789 0.66651
28 1 0.33238 0.16619 0.500908
34 1 0.332243 0.416275 0.500336
35 1 0.248852 0.249695 0.666565
58 1 0.5821 0.416155 0.500438
59 1 0.499092 0.249546 0.666492
65 1 0.498888 0.499221 0.66621
52 1 0.582099 0.165944 0.500438
82 1 0.831862 0.415931 0.500307
83 1 0.74899 0.249658 0.666937
89 1 0.74899 0.499332 0.666938
11 1 0.998812 0.248973 0.666973
17 1 0.998474 0.499237 0.666756
76 1 0.831633 0.166249 0.500944
16 1 0.0826334 0.666068 0.501375
22 1 0.0823741 0.916258 0.501819
29 1 0.248852 0.999157 0.666565
40 1 0.332265 0.666133 0.500039
46 1 0.332243 0.915968 0.500336
47 1 0.249218 0.749429 0.666511
53 1 0.498888 0.999668 0.66621
64 1 0.581935 0.666172 0.500122
70 1 0.581935 0.915764 0.500122
71 1 0.498924 0.749463 0.666656
77 1 0.748186 0.999713 0.665831
94 1 0.832921 0.91646 0.501274
95 1 0.748186 0.748473 0.665831
5 1 0.999809 0.999904 0.666453
23 1 0.998812 0.749839 0.666973
88 1 0.831634 0.665385 0.500944
6 1 0.0830859 0.167667 0.834904
12 1 0.082429 0.416518 0.832866
37 1 0.249459 0.499356 0.999666
25 1 0.250744 4.17876e-06 0.998957
30 1 0.333489 0.166744 0.833048
31 1 0.250744 0.25074 0.998957
36 1 0.332796 0.416892 0.833156
55 1 0.498485 0.249242 0.999898
60 1 0.582603 0.416365 0.833433
54 1 0.582603 0.166238 0.833433
79 1 0.748736 0.249196 0.99994
84 1 0.832029 0.416014 0.833674
85 1 0.748736 0.49954 0.99994
7 1 0.998463 0.252181 0.999226
13 1 0.999798 0.499899 0.999631
78 1 0.832058 0.165551 0.833538
18 1 0.0824292 0.665911 0.832867
24 1 0.0830861 0.915419 0.834904
42 1 0.332087 0.666043 0.833136
43 1 0.249459 0.750104 0.999666
48 1 0.332796 0.915905 0.833155
49 1 0.499047 0.999 0.999796
61 1 0.499048 0.500047 0.999796
66 1 0.581484 0.665443 0.832763
67 1 0.498414 0.749207 0.99955
72 1 0.581483 0.916041 0.832763
73 1 0.747891 0.998287 0.99939
91 1 0.747891 0.749604 0.99939
96 1 0.828034 0.914017 0.830452
1 1 0.989667 0.994833 0.992015
19 1 0.998463 0.746283 0.999226
90 1 0.832058 0.666507 0.833538
ITEM: TIMESTEP
10
ITEM: NUMBER OF ATOMS
97
ITEM: BOX BOUNDS xy xz yz pp pp pp
-6.4403077717034343e+00 1.2880619210125165e+01 -6.4403077717034343e+00
0.0000000000000000e+00 1.1154943116692573e+01 0.0000000000000000e+00
0.0000000000000000e+00 1.5046356078130312e+01 0.0000000000000000e+00
ITEM: ATOMS id type xs ys zs
2 1 0.0815861 0.17835 0.170897
8 1 0.0815289 0.420231 0.167673
97 2 0.113339 0.0566697 0.10008
26 1 0.328751 0.164376 0.167778
32 1 0.335348 0.418346 0.166816
56 1 0.582264 0.415736 0.166914
50 1 0.582264 0.166528 0.166914
80 1 0.832074 0.416037 0.166935
74 1 0.832506 0.166384 0.166984
14 1 0.081529 0.661298 0.167673
20 1 0.0815861 0.903236 0.170897
38 1 0.334348 0.667174 0.16687
44 1 0.335348 0.917001 0.166816
62 1 0.583902 0.667425 0.1669
68 1 0.583902 0.916476 0.1669
92 1 0.83039 0.915195 0.167755
86 1 0.832506 0.666122 0.166984
39 1 0.248961 0.499656 0.333733
33 1 0.250154 0.251265 0.334782
57 1 0.498931 0.249466 0.333432
63 1 0.500199 0.500719 0.333757
81 1 0.748246 0.249273 0.333848
87 1 0.748246 0.498973 0.333848
9 1 0.997301 0.251546 0.337148
15 1 0.998174 0.499087 0.335383
27 1 0.250154 0.998889 0.334782
45 1 0.248961 0.749305 0.333733
51 1 0.500199 0.99948 0.333757
69 1 0.499152 0.749576 0.333499
75 1 0.74993 0.999592 0.333904
93 1 0.74993 0.750338 0.333904
3 1 6.931e-05 3.46454e-05 0.335763
21 1 0.997301 0.745755 0.337148
4 1 0.0824202 0.166457 0.501372
10 1 0.0829538 0.416865 0.501366
41 1 0.249307 0.499683 0.666897
28 1 0.332719 0.166359 0.500763
34 1 0.332608 0.416624 0.500157
35 1 0.249532 0.249953 0.666627
58 1 0.582017 0.41588 0.500237
59 1 0.499295 0.249648 0.666948
65 1 0.498958 0.499333 0.666446
52 1 0.582017 0.166137 0.500237
82 1 0.8319 0.41595 0.500637
83 1 0.748855 0.249635 0.666971
89 1 0.748856 0.499221 0.666972
11 1 0.998773 0.249478 0.667013
17 1 0.99864 0.49932 0.666943
76 1 0.831405 0.166112 0.500833
16 1 0.0829538 0.666089 0.501367
22 1 0.0824202 0.915963 0.501372
29 1 0.249532 0.999579 0.666627
40 1 0.332494 0.666247 0.500079
46 1 0.332608 0.915984 0.500157
47 1 0.249307 0.749624 0.666897
53 1 0.498958 0.999625 0.666446
64 1 0.582203 0.666347 0.499849
70 1 0.582203 0.915856 0.499849
71 1 0.498973 0.749486 0.666533
77 1 0.748071 0.99981 0.665772
94 1 0.832796 0.916398 0.500357
95 1 0.748071 0.748261 0.665772
5 1 0.999178 0.999589 0.666754
23 1 0.998773 0.749295 0.667013
88 1 0.831405 0.665293 0.500833
6 1 0.0832014 0.167983 0.832602
12 1 0.0824895 0.416841 0.832788
37 1 0.248856 0.499125 0.000286157
25 1 0.248444 0.998525 0.999884
30 1 0.332407 0.166203 0.833507
31 1 0.248444 0.249919 0.999884
36 1 0.332981 0.416664 0.833275
55 1 0.497136 0.248568 0.000663608
60 1 0.582442 0.416199 0.833331
54 1 0.582442 0.166242 0.833331
79 1 0.748255 0.249467 0.999906
84 1 0.832136 0.416068 0.833234
85 1 0.748255 0.498788 0.999906
7 1 0.997794 0.252318 0.999461
13 1 0.998608 0.499304 0.999167
78 1 0.832006 0.165763 0.832998
18 1 0.0824895 0.665648 0.832788
24 1 0.0832014 0.915218 0.832602
42 1 0.332163 0.666082 0.833475
43 1 0.248857 0.749732 0.000286166
48 1 0.332981 0.916317 0.833275
49 1 0.49933 0.99942 0.999691
61 1 0.49933 0.49991 0.999691
66 1 0.581592 0.665452 0.832922
67 1 0.498728 0.749364 0.99982
72 1 0.581592 0.91614 0.832922
73 1 0.748895 0.999056 0.999905
91 1 0.748895 0.749838 0.999905
96 1 0.827499 0.913749 0.829251
1 1 0.991152 0.995576 0.993861
19 1 0.997795 0.745477 0.999461
90 1 0.832006 0.666243 0.832998
ITEM: TIMESTEP
20
ITEM: NUMBER OF ATOMS
97
ITEM: BOX BOUNDS xy xz yz pp pp pp
-6.4403077717034343e+00 1.2880619210125165e+01 -6.4403077717034343e+00
0.0000000000000000e+00 1.1154943116692573e+01 0.0000000000000000e+00
0.0000000000000000e+00 1.5046356078130312e+01 0.0000000000000000e+00
ITEM: ATOMS id type xs ys zs
2 1 0.0817962 0.181443 0.170081
8 1 0.0811208 0.420988 0.167689
97 2 0.112958 0.056479 0.10481
26 1 0.324963 0.162481 0.167521
32 1 0.335853 0.418875 0.166827
56 1 0.581193 0.415022 0.166903
50 1 0.581193 0.166171 0.166903
80 1 0.831377 0.415689 0.166881
74 1 0.831938 0.166575 0.166852
14 1 0.0811209 0.660133 0.167689
20 1 0.0817962 0.900354 0.170081
38 1 0.3349 0.66745 0.166912
44 1 0.335853 0.916978 0.166827
62 1 0.584456 0.667734 0.166833
68 1 0.584456 0.916722 0.166833
92 1 0.830922 0.915461 0.167845
86 1 0.831938 0.665363 0.166852
39 1 0.249006 0.499877 0.333733
33 1 0.250209 0.252035 0.334749
57 1 0.497931 0.248966 0.33308
63 1 0.500531 0.50119 0.333821
81 1 0.747807 0.249168 0.333801
87 1 0.747807 0.498639 0.333801
9 1 0.997138 0.251487 0.336994
15 1 0.99772 0.49886 0.335583
27 1 0.250209 0.998174 0.334749
45 1 0.249006 0.749129 0.333733
51 1 0.500531 0.999341 0.333821
69 1 0.499521 0.74976 0.333523
75 1 0.750443 0.999776 0.33379
93 1 0.750443 0.750666 0.33379
3 1 0.00133008 0.00066503 0.335087
21 1 0.997138 0.745652 0.336994
4 1 0.0823648 0.166463 0.501193
10 1 0.0831362 0.416936 0.501342
41 1 0.24936 0.4998 0.666896
28 1 0.332478 0.166239 0.500628
34 1 0.332835 0.416868 0.500213
35 1 0.249474 0.250002 0.666517
58 1 0.58179 0.415599 0.500159
59 1 0.499039 0.24952 0.666898
65 1 0.499192 0.499567 0.666504
52 1 0.58179 0.166191 0.500159
82 1 0.831868 0.415934 0.500682
83 1 0.748597 0.249512 0.666901
89 1 0.748597 0.499085 0.666901
11 1 0.998731 0.249505 0.6669
17 1 0.998605 0.499303 0.666884
76 1 0.831319 0.166196 0.500814
16 1 0.0831362 0.6662 0.501342
22 1 0.0823648 0.915902 0.501193
29 1 0.249474 0.999472 0.666517
40 1 0.332795 0.666397 0.500123
46 1 0.332835 0.915966 0.500213
47 1 0.24936 0.749561 0.666896
53 1 0.499192 0.999625 0.666504
64 1 0.582617 0.666615 0.499924
70 1 0.582617 0.916002 0.499924
71 1 0.499044 0.749522 0.666644
77 1 0.748465 0.99967 0.665871
94 1 0.833383 0.916691 0.50005
95 1 0.748465 0.748796 0.665871
5 1 0.999324 0.999662 0.666606
23 1 0.998731 0.749227 0.6669
88 1 0.831319 0.665124 0.500814
6 1 0.082825 0.167676 0.832681
12 1 0.0825894 0.416919 0.832701
37 1 0.248687 0.499285 0.00034431
25 1 0.249127 0.997742 0.99917
30 1 0.331897 0.165949 0.833291
31 1 0.249127 0.251385 0.99917
36 1 0.33305 0.416972 0.833117
55 1 0.49584 0.24792 0.000963089
60 1 0.581925 0.415721 0.833403
54 1 0.581925 0.166204 0.833403
79 1 0.74744 0.249168 0.999854
84 1 0.831909 0.415954 0.833123
85 1 0.74744 0.498272 0.999854
7 1 0.997447 0.252365 0.999105
13 1 0.997909 0.498955 0.99892
78 1 0.831668 0.165906 0.832882
18 1 0.0825894 0.66567 0.832701
24 1 0.082825 0.915149 0.832681
42 1 0.332406 0.666203 0.8336
43 1 0.248687 0.749403 0.000344314
48 1 0.33305 0.916077 0.833117
49 1 0.499593 0.999129 0.999622
61 1 0.499593 0.500463 0.999622
66 1 0.582134 0.6659 0.833032
67 1 0.499055 0.749527 0.999872
72 1 0.582134 0.916234 0.833032
73 1 0.749923 0.999317 0.999924
91 1 0.749923 0.750606 0.999924
96 1 0.82911 0.914555 0.830057
1 1 0.993831 0.996916 0.995514
19 1 0.997447 0.745082 0.999105
90 1 0.831668 0.665762 0.832882
ITEM: TIMESTEP
30
ITEM: NUMBER OF ATOMS
97
ITEM: BOX BOUNDS xy xz yz pp pp pp
-6.4403077717034343e+00 1.2880619210125165e+01 -6.4403077717034343e+00
0.0000000000000000e+00 1.1154943116692573e+01 0.0000000000000000e+00
0.0000000000000000e+00 1.5046356078130312e+01 0.0000000000000000e+00
ITEM: ATOMS id type xs ys zs
2 1 0.0819263 0.183585 0.169194
8 1 0.0806557 0.421501 0.167634
97 2 0.115385 0.0576921 0.108721
26 1 0.321203 0.160601 0.167252
32 1 0.336098 0.419168 0.166761
56 1 0.580225 0.414469 0.166849
50 1 0.580225 0.165755 0.166849
80 1 0.830669 0.415334 0.166805
74 1 0.831331 0.166643 0.166789
14 1 0.0806557 0.659154 0.167634
20 1 0.0819264 0.898341 0.169194
38 1 0.335244 0.667622 0.166882
44 1 0.336098 0.91693 0.166761
62 1 0.584706 0.667847 0.166815
68 1 0.584706 0.916859 0.166815
92 1 0.830924 0.915462 0.168073
86 1 0.831331 0.664688 0.166789
39 1 0.248893 0.499981 0.333654
33 1 0.250156 0.252661 0.33476
57 1 0.496875 0.248438 0.332706
63 1 0.500602 0.501483 0.333846
81 1 0.747301 0.249011 0.333734
87 1 0.747301 0.49829 0.333734
9 1 0.996933 0.251322 0.336823
15 1 0.99718 0.49859 0.335693
27 1 0.250156 0.997495 0.33476
45 1 0.248893 0.748912 0.333654
51 1 0.500602 0.999119 0.333846
69 1 0.499726 0.749863 0.33356
75 1 0.750686 0.999896 0.333847
93 1 0.750686 0.75079 0.333847
3 1 0.00227816 0.00113907 0.334434
21 1 0.996933 0.745612 0.336823
4 1 0.0821964 0.166409 0.50105
10 1 0.0831664 0.416925 0.501259
41 1 0.24937 0.499947 0.666791
28 1 0.332141 0.16607 0.50052
34 1 0.332927 0.417038 0.500216
35 1 0.249386 0.250087 0.666455
58 1 0.581498 0.415312 0.500013
59 1 0.498857 0.249428 0.666765
65 1 0.499422 0.499795 0.6665
52 1 0.581498 0.166185 0.500013
82 1 0.831695 0.415847 0.500692
83 1 0.748349 0.249365 0.666858
89 1 0.748349 0.498984 0.666858
11 1 0.99872 0.249501 0.666908
17 1 0.998465 0.499233 0.666816
76 1 0.831228 0.166305 0.50083
16 1 0.0831664 0.666242 0.501259
22 1 0.0821964 0.915787 0.50105
29 1 0.249386 0.9993 0.666455
40 1 0.332993 0.666497 0.500056
46 1 0.332927 0.915889 0.500216
47 1 0.24937 0.749423 0.666791
53 1 0.499422 0.999627 0.6665
64 1 0.582937 0.666818 0.500024
70 1 0.582937 0.916119 0.500024
71 1 0.499111 0.749555 0.666702
77 1 0.748932 0.99957 0.666067
94 1 0.833906 0.916953 0.499856
95 1 0.748932 0.749362 0.666067
5 1 0.999579 0.99979 0.666657
23 1 0.99872 0.749219 0.666908
88 1 0.831228 0.664922 0.50083
6 1 0.0825754 0.16735 0.832925
12 1 0.0827318 0.417019 0.83259
37 1 0.248582 0.499462 0.000315898
25 1 0.249838 0.997242 0.998539
30 1 0.331647 0.165824 0.832997
31 1 0.249838 0.252597 0.998539
36 1 0.333207 0.417412 0.832868
55 1 0.494878 0.247439 0.00121265
60 1 0.581506 0.415348 0.833422
54 1 0.581506 0.166158 0.833422
79 1 0.746834 0.248915 0.999828
84 1 0.831687 0.415843 0.833029
85 1 0.746834 0.497919 0.999828
7 1 0.997254 0.252376 0.998832
13 1 0.997347 0.498673 0.998681
78 1 0.831449 0.166054 0.832853
18 1 0.0827318 0.665713 0.83259
24 1 0.0825754 0.915225 0.832925
42 1 0.332709 0.666355 0.833618
43 1 0.248582 0.74912 0.000315897
48 1 0.333207 0.915795 0.832868
49 1 0.499918 0.998865 0.999512
61 1 0.499918 0.501053 0.999512
66 1 0.582785 0.66641 0.8331
67 1 0.49943 0.749715 0.999888
72 1 0.582785 0.916375 0.8331
73 1 0.750846 0.999584 6.15046e-05
91 1 0.750846 0.751262 6.15034e-05
96 1 0.830726 0.915363 0.830988
1 1 0.996679 0.998339 0.997732
19 1 0.997254 0.744878 0.998832
90 1 0.831449 0.665396 0.832853
ITEM: TIMESTEP
40
ITEM: NUMBER OF ATOMS
97
ITEM: BOX BOUNDS xy xz yz pp pp pp
-6.4403077717034343e+00 1.2880619210125165e+01 -6.4403077717034343e+00
0.0000000000000000e+00 1.1154943116692573e+01 0.0000000000000000e+00
0.0000000000000000e+00 1.5046356078130312e+01 0.0000000000000000e+00
ITEM: ATOMS id type xs ys zs
2 1 0.0820288 0.184598 0.168798
8 1 0.0803618 0.421686 0.167564
97 2 0.117375 0.058688 0.11071
26 1 0.319363 0.159681 0.167209
32 1 0.336185 0.419282 0.166721
56 1 0.579752 0.414235 0.166814
50 1 0.579752 0.165517 0.166814
80 1 0.830266 0.415133 0.166753
74 1 0.830996 0.166638 0.16676
14 1 0.0803618 0.658676 0.167564
20 1 0.0820287 0.89743 0.168798
38 1 0.335358 0.667679 0.166846
44 1 0.336185 0.916903 0.166721
62 1 0.584746 0.667834 0.166808
68 1 0.584746 0.916912 0.166808
92 1 0.830678 0.915339 0.168203
86 1 0.830996 0.664358 0.16676
39 1 0.24878 0.500009 0.333581
33 1 0.250139 0.25301 0.334813
57 1 0.496319 0.24816 0.332518
63 1 0.500584 0.501609 0.33386
81 1 0.747012 0.24891 0.333691
87 1 0.747012 0.498102 0.333691
9 1 0.996819 0.251201 0.336693
15 1 0.996854 0.498427 0.335712
27 1 0.250139 0.997129 0.334813
45 1 0.24878 0.748771 0.333581
51 1 0.500584 0.998975 0.33386
69 1 0.49979 0.749895 0.333579
75 1 0.750743 0.999944 0.333902
93 1 0.750743 0.750799 0.333902
3 1 0.00272083 0.00136042 0.334038
21 1 0.996819 0.745617 0.336693
4 1 0.0820699 0.166354 0.500968
10 1 0.0831369 0.416893 0.50119
41 1 0.249364 0.500032 0.666715
28 1 0.331939 0.16597 0.500483
34 1 0.332944 0.417133 0.500222
35 1 0.249335 0.250135 0.666429
58 1 0.581307 0.415146 0.499925
59 1 0.498766 0.249383 0.666689
65 1 0.499554 0.499925 0.666492
52 1 0.581307 0.166161 0.499925
82 1 0.831556 0.415778 0.500686
83 1 0.74821 0.249275 0.666828
89 1 0.74821 0.498935 0.666828
11 1 0.998726 0.249497 0.666915
17 1 0.998374 0.499187 0.666762
76 1 0.831166 0.166358 0.50084
16 1 0.0831369 0.666244 0.50119
22 1 0.0820699 0.915716 0.500968
29 1 0.249335 0.9992 0.666429
40 1 0.333062 0.666531 0.499994
46 1 0.332944 0.915811 0.500222
47 1 0.249364 0.749332 0.666715
53 1 0.499554 0.999629 0.666492
64 1 0.58309 0.66692 0.500087
70 1 0.58309 0.91617 0.500087
71 1 0.499139 0.74957 0.666723
77 1 0.749211 0.999512 0.666188
94 1 0.834185 0.917093 0.499752
95 1 0.749211 0.749698 0.666188
5 1 0.999729 0.999864 0.666707
23 1 0.998726 0.749229 0.666915
88 1 0.831166 0.664808 0.50084
6 1 0.0824719 0.167156 0.833094
12 1 0.0828297 0.417079 0.83252
37 1 0.248536 0.499558 0.000283007
25 1 0.250241 0.997019 0.998225
30 1 0.331545 0.165773 0.832849
31 1 0.250241 0.253222 0.998225
36 1 0.333312 0.417667 0.832726
55 1 0.494382 0.247191 0.00135979
60 1 0.581298 0.415157 0.83343
54 1 0.581298 0.166141 0.83343
79 1 0.746548 0.248793 0.999809
84 1 0.831578 0.415789 0.832966
85 1 0.746548 0.497755 0.999809
7 1 0.997182 0.252343 0.998683
13 1 0.997058 0.498529 0.998537
78 1 0.831358 0.166144 0.832838
18 1 0.0828297 0.665751 0.83252
24 1 0.0824719 0.915316 0.833094
42 1 0.332899 0.66645 0.833613
43 1 0.248536 0.748978 0.000283011
48 1 0.333312 0.915645 0.832726
49 1 0.5001 0.998734 0.999442
61 1 0.5001 0.501365 0.999442
66 1 0.583169 0.666709 0.83313
67 1 0.499652 0.749826 0.999891
72 1 0.583169 0.916461 0.83313
73 1 0.751314 0.999749 0.000138773
91 1 0.751314 0.751565 0.000138774
96 1 0.831664 0.915832 0.831564
1 1 0.998193 0.999096 0.998992
19 1 0.997182 0.744839 0.998683
90 1 0.831358 0.665213 0.832838
ITEM: TIMESTEP
50
ITEM: NUMBER OF ATOMS
97
ITEM: BOX BOUNDS xy xz yz pp pp pp
-6.4403077717034343e+00 1.2880619210125165e+01 -6.4403077717034343e+00
0.0000000000000000e+00 1.1154943116692573e+01 0.0000000000000000e+00
0.0000000000000000e+00 1.5046356078130312e+01 0.0000000000000000e+00
ITEM: ATOMS id type xs ys zs
2 1 0.0821657 0.185286 0.168568
8 1 0.0801187 0.421777 0.167488
97 2 0.118898 0.0594475 0.112118
26 1 0.318235 0.159117 0.167241
32 1 0.336239 0.419361 0.166692
56 1 0.579437 0.4141 0.166786
50 1 0.579437 0.165337 0.166786
80 1 0.829957 0.414978 0.166705
74 1 0.830764 0.166614 0.166738
14 1 0.0801187 0.658342 0.167488
20 1 0.082166 0.896881 0.168568
38 1 0.335404 0.667702 0.166808
44 1 0.336239 0.916878 0.166692
62 1 0.584731 0.667789 0.166803
68 1 0.584731 0.916942 0.166803
92 1 0.830394 0.915197 0.168288
86 1 0.830764 0.66415 0.166738
39 1 0.248666 0.500014 0.333512
33 1 0.250149 0.253279 0.334888
57 1 0.495946 0.247973 0.332405
63 1 0.500545 0.50169 0.333875
81 1 0.746793 0.248826 0.333655
87 1 0.746793 0.497967 0.333655
9 1 0.996726 0.251104 0.336588
15 1 0.996595 0.498297 0.335702
27 1 0.250149 0.996869 0.334888
45 1 0.248666 0.748652 0.333512
51 1 0.500545 0.998855 0.333875
69 1 0.499815 0.749907 0.33359
75 1 0.750748 0.99997 0.333949
93 1 0.750748 0.750777 0.333949
3 1 0.00300564 0.00150277 0.333735
21 1 0.996726 0.745622 0.336588
4 1 0.0819604 0.166304 0.500903
10 1 0.0830947 0.416861 0.501124
41 1 0.249352 0.5001 0.66665
28 1 0.33178 0.16589 0.500473
34 1 0.332944 0.417214 0.500236
35 1 0.249293 0.250175 0.666414
58 1 0.581148 0.415019 0.49986
59 1 0.498696 0.249348 0.666635
65 1 0.499657 0.500027 0.666487
52 1 0.581148 0.166128 0.49986
82 1 0.83143 0.415715 0.500671
83 1 0.748099 0.249202 0.6668
89 1 0.748099 0.498898 0.6668
11 1 0.998736 0.249496 0.666917
17 1 0.998295 0.499147 0.66671
76 1 0.831113 0.166394 0.500846
16 1 0.0830947 0.666234 0.501124
22 1 0.0819604 0.915657 0.500903
29 1 0.249293 0.999118 0.666414
40 1 0.333097 0.666549 0.499934
46 1 0.332944 0.91573 0.500236
47 1 0.249352 0.749252 0.66665
53 1 0.499657 0.999629 0.666487
64 1 0.5832 0.666997 0.50014
70 1 0.5832 0.916203 0.50014
71 1 0.499156 0.749578 0.666735
77 1 0.749437 0.99947 0.666281
94 1 0.83439 0.917195 0.499672
95 1 0.749437 0.749967 0.666281
5 1 0.999853 0.999927 0.666748
23 1 0.998736 0.74924 0.666917
88 1 0.831113 0.664718 0.500846
6 1 0.082413 0.167017 0.83323
12 1 0.0829088 0.417126 0.832462
37 1 0.248502 0.499627 0.000249253
25 1 0.250553 0.99688 0.998019
30 1 0.331477 0.165738 0.832746
31 1 0.250553 0.253673 0.998019
36 1 0.333397 0.417865 0.832617
55 1 0.494041 0.247021 0.00146592
60 1 0.581147 0.415016 0.833435
54 1 0.581147 0.166131 0.833435
79 1 0.746356 0.248709 0.999789
84 1 0.831497 0.415748 0.832909
85 1 0.746356 0.497647 0.999789
7 1 0.997149 0.252296 0.99858
13 1 0.996842 0.498421 0.998418
78 1 0.831304 0.166223 0.832823
18 1 0.0829088 0.665783 0.832462
24 1 0.082413 0.915396 0.83323
42 1 0.333054 0.666527 0.833604
43 1 0.248502 0.748875 0.000249241
48 1 0.333397 0.915531 0.832617
49 1 0.500229 0.998638 0.999383
61 1 0.500229 0.501591 0.999383
66 1 0.58347 0.666941 0.833145
67 1 0.499822 0.749911 0.999891
72 1 0.58347 0.91653 0.833145
73 1 0.751628 0.999875 0.000189903
91 1 0.751628 0.751752 0.000189902
96 1 0.832376 0.916188 0.832004
1 1 0.999278 0.999639 0.99993
19 1 0.997149 0.744853 0.99858
90 1 0.831304 0.665081 0.832823
ITEM: TIMESTEP
60
ITEM: NUMBER OF ATOMS
97
ITEM: BOX BOUNDS xy xz yz pp pp pp
-6.4403077717034343e+00 1.2880619210125165e+01 -6.4403077717034343e+00
0.0000000000000000e+00 1.1154943116692573e+01 0.0000000000000000e+00
0.0000000000000000e+00 1.5046356078130312e+01 0.0000000000000000e+00
ITEM: ATOMS id type xs ys zs
2 1 0.0823494 0.185836 0.168436
8 1 0.0798946 0.42182 0.167404
97 2 0.120022 0.0600098 0.113273
26 1 0.317541 0.15877 0.16731
32 1 0.336289 0.419437 0.166669
56 1 0.57921 0.414019 0.166763
50 1 0.57921 0.165191 0.166763
80 1 0.82969 0.414845 0.166655
74 1 0.830599 0.166576 0.166719
14 1 0.0798945 0.658074 0.167404
20 1 0.0823497 0.896515 0.168436
38 1 0.335409 0.667705 0.166767
44 1 0.336289 0.916852 0.166669
62 1 0.58469 0.667732 0.166799
68 1 0.58469 0.916959 0.166799
92 1 0.830107 0.915053 0.168348
86 1 0.830599 0.664023 0.166719
39 1 0.248541 0.500001 0.333441
33 1 0.250181 0.253508 0.334981
57 1 0.495687 0.247843 0.332341
63 1 0.500488 0.501749 0.333894
81 1 0.746608 0.248743 0.33362
87 1 0.746608 0.497865 0.33362
9 1 0.996637 0.251016 0.336501
15 1 0.996359 0.49818 0.33567
27 1 0.250181 0.996673 0.334981
45 1 0.248541 0.748541 0.333441
51 1 0.500488 0.998739 0.333894
69 1 0.499809 0.749905 0.333595
75 1 0.75072 0.999977 0.333988
93 1 0.75072 0.750743 0.333988
3 1 0.00320364 0.00160177 0.333489
21 1 0.996637 0.745621 0.336501
4 1 0.0818572 0.166258 0.500849
10 1 0.0830383 0.416829 0.501057
41 1 0.249332 0.500162 0.666591
28 1 0.331639 0.165819 0.500484
34 1 0.332932 0.417294 0.500255
35 1 0.249258 0.250216 0.666406
58 1 0.580998 0.414914 0.499812
59 1 0.498634 0.249317 0.666593
65 1 0.499744 0.50012 0.666484
52 1 0.580998 0.166084 0.499812
82 1 0.831297 0.415649 0.500646
83 1 0.747999 0.249133 0.666771
89 1 0.747999 0.498866 0.666771
11 1 0.998748 0.249498 0.666915
17 1 0.998212 0.499106 0.666655
76 1 0.831058 0.166419 0.500849
16 1 0.0830383 0.666209 0.501057
22 1 0.0818572 0.915599 0.500849
29 1 0.249258 0.999042 0.666406
40 1 0.333111 0.666555 0.499871
46 1 0.332932 0.915637 0.500255
47 1 0.249332 0.74917 0.666591
53 1 0.499744 0.999624 0.666484
64 1 0.583288 0.667064 0.500187
70 1 0.583288 0.916224 0.500187
71 1 0.499167 0.749584 0.666738
77 1 0.749641 0.999438 0.666358
94 1 0.834556 0.917278 0.499606
95 1 0.749641 0.750203 0.666358
5 1 0.999974 0.999987 0.666785
23 1 0.998748 0.74925 0.666915
88 1 0.831058 0.664639 0.500849
6 1 0.0823864 0.166918 0.833348
12 1 0.0829757 0.417166 0.83241
37 1 0.248473 0.499682 0.000212244
25 1 0.250837 0.996794 0.99787
30 1 0.331426 0.165713 0.832667
31 1 0.250837 0.254043 0.99787
36 1 0.333472 0.418037 0.832525
55 1 0.493814 0.246907 0.00154166
60 1 0.581027 0.414907 0.833434
54 1 0.581027 0.166121 0.833434
79 1 0.746223 0.248645 0.999767
84 1 0.831422 0.415711 0.832849
85 1 0.746223 0.497578 0.999767
7 1 0.997145 0.25224 0.998508
13 1 0.996658 0.498329 0.998307
78 1 0.831278 0.166301 0.832807
18 1 0.0829757 0.665809 0.83241
24 1 0.0823864 0.915468 0.833348
42 1 0.333196 0.666598 0.83359
43 1 0.248473 0.748792 0.000212232
48 1 0.333472 0.915435 0.832525
49 1 0.500331 0.998557 0.999326
61 1 0.500331 0.501774 0.999326
66 1 0.583733 0.667142 0.833149
67 1 0.499961 0.749981 0.999885
72 1 0.583733 0.916592 0.833149
73 1 0.751857 0.999977 0.000224736
91 1 0.751857 0.75188 0.000224734
96 1 0.832973 0.916487 0.832365
1 1 0.000133479 6.66489e-05 0.000686999
19 1 0.997145 0.744905 0.998508
90 1 0.831278 0.664977 0.832807
ITEM: TIMESTEP
70
ITEM: NUMBER OF ATOMS
97
ITEM: BOX BOUNDS xy xz yz pp pp pp
-6.4403077717034343e+00 1.2880619210125165e+01 -6.4403077717034343e+00
0.0000000000000000e+00 1.1154943116692573e+01 0.0000000000000000e+00
0.0000000000000000e+00 1.5046356078130312e+01 0.0000000000000000e+00
ITEM: ATOMS id type xs ys zs
2 1 0.0824409 0.186038 0.168401
8 1 0.0798062 0.421828 0.167369
97 2 0.12035 0.0601753 0.113711
26 1 0.317364 0.158682 0.167342
32 1 0.336311 0.419471 0.166661
56 1 0.579139 0.414 0.166754
50 1 0.579139 0.165139 0.166754
80 1 0.829591 0.414795 0.166635
74 1 0.83055 0.166557 0.166712
14 1 0.0798062 0.657978 0.167369
20 1 0.0824408 0.896402 0.168401
38 1 0.335401 0.6677 0.166749
44 1 0.336311 0.91684 0.166661
62 1 0.58467 0.667709 0.166797
68 1 0.58467 0.916961 0.166797
92 1 0.829996 0.914998 0.168366
86 1 0.83055 0.663994 0.166712
39 1 0.248484 0.499989 0.333413
33 1 0.2502 0.25359 0.335023
57 1 0.495611 0.247806 0.332327
63 1 0.50046 0.501768 0.333902
81 1 0.74654 0.248707 0.333606
87 1 0.74654 0.497833 0.333606
9 1 0.9966 0.25098 0.336471
15 1 0.996265 0.498133 0.335652
27 1 0.2502 0.99661 0.335023
45 1 0.248484 0.748495 0.333413
51 1 0.50046 0.998692 0.333902
69 1 0.499795 0.749898 0.333595
75 1 0.7507 0.999973 0.334002
93 1 0.7507 0.750727 0.334002
3 1 0.00326516 0.00163259 0.333404
21 1 0.9966 0.74562 0.336471
4 1 0.0818163 0.16624 0.500829
10 1 0.0830084 0.416815 0.501029
41 1 0.24932 0.500185 0.666568
28 1 0.331584 0.165792 0.500494
34 1 0.332921 0.417326 0.500265
35 1 0.249246 0.250233 0.666405
58 1 0.580937 0.414877 0.499797
59 1 0.498611 0.249305 0.66658
65 1 0.499775 0.500157 0.666482
52 1 0.580937 0.16606 0.499797
82 1 0.831237 0.415618 0.500633
83 1 0.74796 0.249105 0.666758
89 1 0.74796 0.498855 0.666758
11 1 0.998753 0.2495 0.666912
17 1 0.998174 0.499087 0.666632
76 1 0.831034 0.166425 0.50085
16 1 0.0830084 0.666193 0.501029
22 1 0.0818163 0.915576 0.500829
29 1 0.249246 0.999013 0.666405
40 1 0.333109 0.666554 0.499844
46 1 0.332921 0.915595 0.500265
47 1 0.24932 0.749135 0.666568
53 1 0.499775 0.999618 0.666482
64 1 0.583317 0.667089 0.500205
70 1 0.583317 0.916228 0.500205
71 1 0.49917 0.749585 0.666737
77 1 0.749719 0.999428 0.666385
94 1 0.834613 0.917307 0.499583
95 1 0.749719 0.750291 0.666385
5 1 2.40493e-05 1.20168e-05 0.666799
23 1 0.998753 0.749254 0.666912
88 1 0.831034 0.664609 0.50085
6 1 0.082386 0.16689 0.833391
12 1 0.0829989 0.417181 0.832391
37 1 0.248463 0.4997 0.000196037
25 1 0.250953 0.996773 0.997822
30 1 0.331411 0.165706 0.83264
31 1 0.250953 0.25418 0.997822
36 1 0.3335 0.418101 0.832492
55 1 0.493757 0.246879 0.00156337
60 1 0.580987 0.414872 0.833432
54 1 0.580987 0.166115 0.833432
79 1 0.746185 0.248623 0.999757
84 1 0.831392 0.415696 0.832824
85 1 0.746185 0.497563 0.999757
7 1 0.997153 0.252215 0.998486
13 1 0.996592 0.498296 0.998264
78 1 0.831276 0.166332 0.832801
18 1 0.0829989 0.665817 0.832391
24 1 0.082386 0.915496 0.833391
42 1 0.33325 0.666625 0.833582
43 1 0.248463 0.748763 0.000196042
48 1 0.3335 0.9154 0.832492
49 1 0.500368 0.998529 0.999303
61 1 0.500368 0.50184 0.999303
66 1 0.583832 0.667217 0.833148
67 1 0.500009 0.750005 0.999881
72 1 0.583832 0.916615 0.833148
73 1 0.751933 1.06092e-05 0.000234746
91 1 0.751933 0.751922 0.000234747
96 1 0.83319 0.916595 0.832492
1 1 0.000431969 0.000216001 0.000951433
19 1 0.997153 0.744938 0.998486
90 1 0.831276 0.664943 0.832801
ITEM: TIMESTEP
80
ITEM: NUMBER OF ATOMS
97
ITEM: BOX BOUNDS xy xz yz pp pp pp
-6.4403077717034343e+00 1.2880619210125165e+01 -6.4403077717034343e+00
0.0000000000000000e+00 1.1154943116692573e+01 0.0000000000000000e+00
0.0000000000000000e+00 1.5046356078130312e+01 0.0000000000000000e+00
ITEM: ATOMS id type xs ys zs
2 1 0.082533 0.186216 0.168376
8 1 0.0797285 0.421831 0.167337
97 2 0.120561 0.0602797 0.114104
26 1 0.317258 0.158629 0.167371
32 1 0.336334 0.419504 0.166654
56 1 0.579087 0.413989 0.166748
50 1 0.579087 0.165097 0.166748
80 1 0.829507 0.414753 0.166616
74 1 0.830517 0.166536 0.166705
14 1 0.0797284 0.657897 0.167337
20 1 0.0825332 0.896317 0.168375
38 1 0.335387 0.667693 0.166732
44 1 0.336334 0.91683 0.166654
62 1 0.584652 0.66769 0.166794
68 1 0.584652 0.916961 0.166794
92 1 0.829905 0.914952 0.168379
86 1 0.830517 0.663981 0.166705
39 1 0.248428 0.499973 0.333387
33 1 0.250222 0.253659 0.335061
57 1 0.495561 0.24778 0.332322
63 1 0.500432 0.501782 0.333911
81 1 0.746484 0.248673 0.333593
87 1 0.746484 0.49781 0.333593
9 1 0.996567 0.250945 0.336446
15 1 0.996182 0.498091 0.335633
27 1 0.250222 0.996563 0.335061
45 1 0.248428 0.748454 0.333387
51 1 0.500432 0.99865 0.333911
69 1 0.499774 0.749887 0.333594
75 1 0.750678 0.999964 0.334012
93 1 0.750678 0.750713 0.334012
3 1 0.00331187 0.00165591 0.333335
21 1 0.996567 0.745622 0.336446
4 1 0.0817804 0.166225 0.500814
10 1 0.0829753 0.416802 0.501004
41 1 0.249305 0.500203 0.666548
28 1 0.331537 0.165769 0.500506
34 1 0.332906 0.417353 0.500274
35 1 0.249237 0.250249 0.666406
58 1 0.580882 0.414846 0.499786
59 1 0.498591 0.249296 0.666571
65 1 0.499798 0.500188 0.666481
52 1 0.580882 0.166035 0.499786
82 1 0.831177 0.415589 0.500619
83 1 0.747926 0.24908 0.666747
89 1 0.747926 0.498846 0.666747
11 1 0.998758 0.249501 0.66691
17 1 0.998137 0.499068 0.66661
76 1 0.83101 0.166427 0.50085
16 1 0.0829753 0.666174 0.501004
22 1 0.0817804 0.915556 0.500814
29 1 0.249237 0.998988 0.666406
40 1 0.333101 0.66655 0.49982
46 1 0.332906 0.915553 0.500274
47 1 0.249305 0.749102 0.666548
53 1 0.499798 0.999609 0.666481
64 1 0.583338 0.667109 0.500219
70 1 0.583338 0.916228 0.500219
71 1 0.499169 0.749585 0.666734
77 1 0.749784 0.99942 0.666407
94 1 0.834659 0.917329 0.499564
95 1 0.749784 0.750364 0.666407
5 1 6.86523e-05 3.43173e-05 0.666812
23 1 0.998758 0.749257 0.66691
88 1 0.83101 0.664583 0.50085
6 1 0.0823924 0.166872 0.833428
12 1 0.0830166 0.417194 0.832374
37 1 0.248454 0.499713 0.000181051
25 1 0.251061 0.996763 0.997784
30 1 0.331404 0.165702 0.83262
31 1 0.251061 0.254298 0.997784
36 1 0.333524 0.418154 0.832465
55 1 0.493731 0.246866 0.00157778
60 1 0.580957 0.414848 0.833429
54 1 0.580957 0.166109 0.833429
79 1 0.746163 0.248606 0.999749