(written by ASE)

97 atoms
2 atom types

0.0      12.880619210125165  xlo xhi
0.0      11.154943116692573  ylo yhi
0.0      15.046356078130312  zlo zhi
    -6.4403077717034343                       0                       0  xy xz yz

Masses

     1      178.48999995408445 # Hf
     2      15.998999995884349 # O

Atoms # atomic

     1   1         6.4359893727932      11.152447893229104        15.0247708701222
     2   1  -0.0043216890533950298      1.8616525854269403      2.5293113429118499
     3   1      6.4362503459690501      11.152598470476004      5.0174547521207797
     4   1    -0.00139128582389634      1.8599607089964305      7.5270183016300098
     5   1      6.4389196251909198      11.154139557813604         10.027063787791
     6   1  -0.0040606422079626104      1.8615018436879305      12.536627334680899
     7   1      11.257793963412601      2.7960959051371916      15.045990984580801
     8   1       -1.61020041478834      4.6522946160111305      2.5095912138119099
     9   1        11.2558261624245      2.7972320417462817      5.0293125092972302
    10   1       -1.61006439540331      4.6489113380691007      7.5272084451619197
    11   1     -1.6084952772949399      2.7878225188374905         10.033661482051
    12   1     -1.6107191931439999      4.6514762680003106      12.534185034049999
    13   1      9.6600359099344004      5.5772237411861214        15.0436077342556
    14   1       -3.21640353482193      7.4343207253320216        2.50959121353833
    15   1     -3.2199342704137601      5.5775983778760407      5.0175535683568002
    16   1     -3.2192654366669302      7.4361300010366316      7.5272084377549104
    17   1      9.6592639921590102      5.5767779655813214      10.029575450314599
    18   1       -3.21737160780207      7.4342805866539416        12.5341850325909
    19   1      8.0503882024373397      8.3514870996735215      15.045990981249499
    20   1       -4.83023044422987      10.220373945913902      2.5293112951350301
    21   1      8.0503883020048708      8.3492147563672621      5.0293124847885204
    22   1     -4.8302303652382896      10.223757463310902      7.5270183010422897
    23   1     -4.8302308837140604      8.3680337431476115        10.0336614807374
    24   1     -4.8302304587476996      10.220675293196102        12.5366273367256
    25   1     -3.2158310907390799      11.152447761449901      15.024770752571101
    26   1      3.2244770572483699      1.8616524571495507      2.5293112177889698
    27   1     -3.2160920403117799      11.152598459040302      5.0174547535623901
    28   1      3.2215470045458798      1.8599606914994506      7.5270183027783597
    29   1     -3.2187612945595401      11.154139541341202        10.0270637907725
    30   1        3.22421618313586      1.8615018283806106      12.536627341631201
    31   1      1.6100776617084001      2.7937264024625108        15.0247707954041
    32   1      1.6100782764372701      4.6626132500990805      2.5080911086649902
    33   1      1.6100777725289701      2.7934250089252708      5.0174547552046302
    34   1      1.6100783431913801       4.646066506978431        7.52042061039998
    35   1      1.6100777806475699       2.790342786462531        10.0270637898823
    36   1        1.61007827411548      4.6648855441562311      12.524769603781801
    37   1  -0.0037492037542588702      5.5797796234532706        15.0444908772093
    38   1  0.00043056169464819198      7.4368766069397321      2.5104743571550499
    39   1  -0.0027810339303400398      5.5798197117717008      5.0198970585992102
    40   1     0.00120267180329858      7.4373222830025121      7.5245066412654404
    41   1 -0.00088711006704439703      5.5779702479705113      10.026873653219701
    42   1 -0.00021837144862573701      7.4365019213346217      12.536528522526201
    43   1     -1.6099523171547201      8.3618057315926322      15.044490877934001
    44   1        -1.5973275373411      10.218004443905302      2.5080911087148099
    45   1       -1.60943344424841      8.3626240304516912      5.0198970574411597
    46   1     -1.6116573098506799      10.226277729511102        7.52042060869364
    47   1     -1.6100881460282099      8.3651889124323517        10.0268736476143
    48   1     -1.5953596401699399      10.216868257814602      12.524769588373401
    49   1      6.4441832701731796   0.0020935381548886226      15.044490872942101
    50   1        6.44418376761082      1.8570636921698609      2.5095912211337699
    51   1      6.4437340571928496   0.0012350468139754223        5.01989706005548
    52   1      6.4411859498317403      1.8586375397565009        7.52720843045332
    53   1        6.44118543797528  0.00051959016959260873        10.0268736453472
    54   1      6.4437345016475298      1.8579221248824809      12.534185029317999
    55   1      4.8429805574368698      2.7960958988738009      15.045990980147099
    56   1      4.8303569001425499      4.6522945789742716      2.5095912235823499
    57   1      4.8449485077990397      2.7972320049268711      5.0293124520014496
    58   1      4.8302210714773199      4.6489113085163121      7.5272084312710197
    59   1      4.8286508182188204      2.7878225048076808      10.033661480558999
    60   1      4.8308757144999497      4.6514762519906316      12.534185027187201
    61   1      3.2239055288479301      5.5797796391294616      15.044490867724299
    62   1      3.2197268873853502      7.4368766135854116        2.51047434772667
    63   1      3.2229375230148301       5.579819736701082      5.0198970618860903
    64   1      3.2189549522886698      7.4373222886633021        7.52450664818363
    65   1        3.22104362748619      5.5779702567694214      10.026873648420899
    66   1      3.2203758328725098      7.4365019369754917         12.536528520727
    67   1      1.6100786304979999      8.3662073483937416   0.0017671790523554501
    68   1        1.61007916394178      10.224868927089801      2.5104743516993802
    69   1        1.61007871295228      8.3662073132111825      5.0197151129017099
    70   1      1.6100792506342601      10.223977420353203      7.5245066461103702
    71   1        1.61007872319502      8.3662072975204911      10.031026306602399
    72   1        1.61007917724312      10.225618239651302      12.536528521727099
    73   1      9.6565904332125392   0.0020935445214545927      15.044490870174201
    74   1      9.6565909306883704      1.8570636991624914      2.5095912198444501
    75   1      9.6570397985231793   0.0012350614966411422      5.0198970626015704
    76   1      9.6595889566516107      1.8586375465672913        7.52720844810713
    77   1      9.6595884451812495  0.00051959727797489051      10.026873660364799
    78   1      9.6570402426255004      1.8579221404994912        12.5341850316101
    79   1      8.0503872612500498      2.7892314262863414        15.0436077399912
    80   1        8.05038784315534      4.6478930051285916      2.5059588339031298
    81   1      8.0503873441451095      2.7884820634663914      5.0175535701200698
    82   1      8.0503879428021303       4.647892956404732      7.5230557844563899
    83   1      8.0503873687421006      2.7901228334628914      10.029575445687399
    84   1      8.0503878565523195       4.647892990774162        12.5343669781304
    85   1      6.4407395815936201      5.5772237403157119        15.0436077423978
    86   1      6.4365609400046404      7.4343207147963026      2.5095912218897198
    87   1        6.44009073360741      5.5775983669829419      5.0175535697701203
    88   1      6.4394230347674597      7.4361299990843124      7.5272084408899103
    89   1      6.4415117098014196      5.5767779670966222        10.0295754416424
    90   1      6.4375290428195902       7.434280568658723      12.534185028476401
    91   1      4.8301095752966496      8.3618057760503213        15.0444908667373
    92   1      4.8174858663575497      10.218004455558303        2.50809111006645
    93   1      4.8295908566647299      8.3626240524869022        5.01989706281522
    94   1      4.8318158023994604      10.226277751041303      7.5204206111539396
    95   1      4.8302455956110801      8.3651889457207922        10.0268736582505
    96   1      4.8155180135625297      10.216868298319303      12.524769635361499
    97   2         1.6100774901224     0.92957861764561034      1.2538630065881999
