LAMMPS (29 Aug 2024)
Processor partition = 2
units metal
atom_style atomic
dimension 3
boundary p p p

atom_modify     map array
#atom_modify     map array sort 0 0.0

read_data hexag_Hf_octOint_DATA  # initial Oint in octahedral spot
Reading data file ...
  triclinic box = (0 0 0) to (12.880619 11.154943 15.046356) with tilt (-6.4403078 0 0)
WARNING: Triclinic box skew is large. LAMMPS will run inefficiently. (src/domain.cpp:221)
  1 by 1 by 1 MPI processor grid
  reading atoms ...
  97 atoms
  read_data CPU = 0.003 seconds

# neighbor parameters
neighbor 2.0 bin
neigh_modify every 1 delay 0 check no

# interatomic potential parameters
pair_style     pod
pair_coeff * * HfO2_param.pod HfO2_coefficients.pod Hf O
**************** Begin of POD Potentials ****************
species: Hf O 
periodic boundary conditions: 1 1 1
number of environment clusters: 1
number of principal compoments: 2
inner cut-off radius: 1.2
outer cut-off radius: 5.5
bessel polynomial degree: 4
inverse polynomial degree: 10
one-body potential: 1
two-body radial basis functions: 8
three-body radial basis functions: 8
three-body angular degree: 5
four-body radial basis functions: 6
four-body angular degree: 4
five-body radial basis functions: 5
five-body angular degree: 3
six-body radial basis functions: 4
six-body angular degree: 2
seven-body radial basis functions: 0
seven-body angular degree: 0
number of local descriptors per element for one-body potential: 1
number of local descriptors per element for two-body potential: 16
number of local descriptors per element for three-body potential: 144
number of local descriptors per element for four-body potential: 264
number of local descriptors per element for five-body potential: 468
number of local descriptors per element for six-body potential: 387
number of local descriptors per element for seven-body potential: 0
number of local descriptors per element for all potentials: 1280
number of global descriptors: 2560
**************** End of POD Potentials ****************

**************** Begin of Model Coefficients ****************
total number of coefficients for POD potential: 2560
total number of elements for PCA projection matrix: 0
total number of elements for PCA centroids: 0
**************** End of Model Coefficients ****************


variable        u uloop 20
variable i equal part

dump            1 all atom 10 dump.neb.$u
dump            1 all atom 10 dump.neb.3

timestep 0.01
fix             1 all neb 1.0 parallel ideal
min_style       quickmin

neb             0.0 0.01 1000 1000 10 each coords.initial.$i
neb             0.0 0.01 1000 1000 10 each coords.initial.2
Neighbor list info ...
  update: every = 1 steps, delay = 0 steps, check = no
  max neighbors/atom: 2000, page size: 100000
  master list distance cutoff = 7.5
  ghost atom cutoff = 7.5
  binsize = 3.75, bins = 6 3 5
  1 neighbor lists, perpetual/occasional/extra = 1 0 0
  (1) pair pod, perpetual
      attributes: full, newton on
      pair build: full/bin/atomonly
      stencil: full/bin/3d
      bin: standard
Per MPI rank memory allocation (min/avg/max) = 2.589 | 2.589 | 2.589 Mbytes
   Step          Temp          E_pair         E_mol          TotEng         Press     
         0   0             -712.40421      0             -712.40421      3578.1481    
        98   0.00043747738 -712.00608      0             -712.00608      4535.3508    
Loop time of 2.25623 on 1 procs for 98 steps with 97 atoms

90.2% CPU use with 1 MPI tasks x no OpenMP threads

Minimization stats:
  Stopping criterion = force tolerance
  Energy initial, next-to-last, final = 
     -712.404212573118   -712.00638307785  -712.006080778233
  Force two-norm initial, final = 1.5249834 0.0064035191
  Force max component initial, final = 0.64676816 0.0042000151
  Final line search alpha, max atom move = 0 0
  Iterations, force evaluations = 98 98

MPI task timing breakdown:
Section |  min time  |  avg time  |  max time  |%varavg| %total
---------------------------------------------------------------
Pair    | 1.5347     | 1.5347     | 1.5347     |   0.0 | 68.02
Neigh   | 0.035421   | 0.035421   | 0.035421   |   0.0 |  1.57
Comm    | 0.0023798  | 0.0023798  | 0.0023798  |   0.0 |  0.11
Output  | 0.0011371  | 0.0011371  | 0.0011371  |   0.0 |  0.05
Modify  | 0.64655    | 0.64655    | 0.64655    |   0.0 | 28.66
Other   |            | 0.03601    |            |       |  1.60

Nlocal:             97 ave          97 max          97 min
Histogram: 1 0 0 0 0 0 0 0 0 0
Nghost:            893 ave         893 max         893 min
Histogram: 1 0 0 0 0 0 0 0 0 0
Neighs:              0 ave           0 max           0 min
Histogram: 1 0 0 0 0 0 0 0 0 0
FullNghs:         7294 ave        7294 max        7294 min
Histogram: 1 0 0 0 0 0 0 0 0 0

Total # of neighbors = 7294
Ave neighs/atom = 75.195876
Neighbor list builds = 99
Dangerous builds not checked
Per MPI rank memory allocation (min/avg/max) = 3.592 | 3.592 | 3.592 Mbytes
   Step          Temp          E_pair         E_mol          TotEng         Press     
        98   0             -712.00608      0             -712.00608      4535.3481    
       143   0.0001904127  -712.07834      0             -712.07833      4397.1388    
Loop time of 0.997823 on 1 procs for 45 steps with 97 atoms

91.6% CPU use with 1 MPI tasks x no OpenMP threads

Minimization stats:
  Stopping criterion = force tolerance
  Energy initial, next-to-last, final = 
     -712.006080778233  -712.078122183655  -712.078337155849
  Force two-norm initial, final = 0.0054040864 0.0076433918
  Force max component initial, final = 0.0024629115 0.0048701431
  Final line search alpha, max atom move = 0 0
  Iterations, force evaluations = 45 45

MPI task timing breakdown:
Section |  min time  |  avg time  |  max time  |%varavg| %total
---------------------------------------------------------------
Pair    | 0.69781    | 0.69781    | 0.69781    |   0.0 | 69.93
Neigh   | 0.015257   | 0.015257   | 0.015257   |   0.0 |  1.53
Comm    | 0.0016968  | 0.0016968  | 0.0016968  |   0.0 |  0.17
Output  | 0.0026511  | 0.0026511  | 0.0026511  |   0.0 |  0.27
Modify  | 0.26002    | 0.26002    | 0.26002    |   0.0 | 26.06
Other   |            | 0.02039    |            |       |  2.04

Nlocal:             97 ave          97 max          97 min
Histogram: 1 0 0 0 0 0 0 0 0 0
Nghost:            893 ave         893 max         893 min
Histogram: 1 0 0 0 0 0 0 0 0 0
Neighs:              0 ave           0 max           0 min
Histogram: 1 0 0 0 0 0 0 0 0 0
FullNghs:         7296 ave        7296 max        7296 min
Histogram: 1 0 0 0 0 0 0 0 0 0

Total # of neighbors = 7296
Ave neighs/atom = 75.216495
Neighbor list builds = 46
Dangerous builds not checked

CITE-CITE-CITE-CITE-CITE-CITE-CITE-CITE-CITE-CITE-CITE-CITE-CITE

Your simulation uses code contributions which should be cited:

- Type Label Framework: https://doi.org/10.1021/acs.jpcb.3c08419

@Article{Gissinger24,
 author = {Jacob R. Gissinger, Ilia Nikiforov, Yaser Afshar, Brendon Waters, Moon-ki Choi, Daniel S. Karls, Alexander Stukowski, Wonpil Im, Hendrik Heinz, Axel Kohlmeyer, and Ellad B. Tadmor},
 title = {Type Label Framework for Bonded Force Fields in LAMMPS},
 journal = {J. Phys. Chem. B},
 year =    2024,
 volume =  128,
 number =  13,
 pages =   {3282–-3297}
}

CITE-CITE-CITE-CITE-CITE-CITE-CITE-CITE-CITE-CITE-CITE-CITE-CITE

Total wall time: 0:00:03
