ITEM: TIMESTEP
143
ITEM: NUMBER OF ATOMS
97
ITEM: BOX BOUNDS xy xz yz pp pp pp
-6.4403077717034343e+00 1.2880619210125165e+01 -6.4403077717034343e+00
0.0000000000000000e+00 1.1154943116692573e+01 0.0000000000000000e+00
0.0000000000000000e+00 1.5046356078130312e+01 0.0000000000000000e+00
ITEM: ATOMS id type xs ys zs
2 1 0.0831097 0.16689 0.168101
8 1 0.083521 0.417061 0.166791
26 1 0.333781 0.16689 0.168101
32 1 0.333993 0.417986 0.166691
56 1 0.58354 0.417061 0.166791
97 2 0.166667 0.0833333 0.0833333
50 1 0.58354 0.166479 0.166791
80 1 0.833333 0.416667 0.166549
74 1 0.832939 0.166479 0.166791
14 1 0.083521 0.66646 0.166791
20 1 0.0831097 0.916219 0.168101
38 1 0.333378 0.666689 0.166849
44 1 0.333993 0.916007 0.166691
62 1 0.583311 0.666689 0.166849
67 1 0.5 0.75 0.000117447
68 1 0.583311 0.916622 0.166849
92 1 0.832014 0.916007 0.166691
86 1 0.832939 0.66646 0.166791
33 1 0.25021 0.25042 0.333466
34 1 0.333251 0.416503 0.499817
57 1 0.501523 0.250762 0.334254
51 1 0.500321 0.00011068 0.333629
81 1 0.749989 0.249977 0.333473
82 1 0.833333 0.416667 0.499992
9 1 0.999238 0.250762 0.334254
75 1 0.749789 0.00011068 0.333629
15 1 2.28058e-05 0.500011 0.333473
27 1 0.25021 0.99979 0.333466
39 1 0.249889 0.500211 0.333629
45 1 0.249889 0.749679 0.333629
46 1 0.333251 0.916749 0.499817
63 1 0.500321 0.500211 0.333629
69 1 0.5 0.75 0.333617
93 1 0.749789 0.749679 0.333629
94 1 0.833497 0.916749 0.499817
3 1 0.99958 0.99979 0.333466
21 1 0.999238 0.748477 0.334254
87 1 0.749989 0.500011 0.333473
4 1 0.0832613 0.166739 0.500255
10 1 0.0833799 0.416758 0.500268
11 1 8.18354e-05 0.249918 0.66685
28 1 0.333477 0.166739 0.500255
35 1 0.250072 0.250144 0.666411
58 1 0.583378 0.416758 0.500268
59 1 0.499836 0.249918 0.66685
52 1 0.583378 0.16662 0.500268
53 1 0.500091 4.65802e-05 0.666399
83 1 0.750062 0.250124 0.666578
89 1 0.750062 0.499938 0.666578
17 1 0.999876 0.499938 0.666578
76 1 0.833242 0.16662 0.500268
77 1 0.749955 4.65795e-05 0.666399
16 1 0.0833799 0.666622 0.500268
22 1 0.0832613 0.916523 0.500255
23 1 8.18356e-05 0.750164 0.66685
29 1 0.250072 0.999928 0.666411
40 1 0.333458 0.666729 0.500088
41 1 0.249953 0.500045 0.666399
47 1 0.249953 0.749909 0.666399
64 1 0.583271 0.666729 0.500088
65 1 0.500091 0.500045 0.666399
70 1 0.583271 0.916542 0.500088
71 1 0.5 0.75 0.666675
95 1 0.749955 0.749909 0.666399
5 1 0.999856 0.999928 0.666411
88 1 0.833242 0.666622 0.500268
6 1 0.0831231 0.166877 0.8332
12 1 0.083444 0.416988 0.833038
30 1 0.333754 0.166877 0.8332
31 1 0.250224 0.250447 0.998565
36 1 0.334095 0.41819 0.832412
55 1 0.50132 0.25066 0.999976
60 1 0.583544 0.416988 0.833038
49 1 0.500395 0.000187694 0.999876
54 1 0.583544 0.166556 0.833038
79 1 0.750022 0.250044 0.999817
84 1 0.833333 0.416667 0.83305
85 1 0.750022 0.499978 0.999817
7 1 0.99934 0.25066 0.999976
13 1 0.999956 0.499978 0.999817
73 1 0.749793 0.000187693 0.999876
78 1 0.833012 0.166556 0.833038
18 1 0.083444 0.666456 0.833038
24 1 0.0831231 0.916246 0.8332
25 1 0.250224 0.999776 0.998565
37 1 0.249812 0.500207 0.999876
42 1 0.333311 0.666655 0.833194
43 1 0.249812 0.749605 0.999876
48 1 0.334095 0.915905 0.832412
61 1 0.500395 0.500207 0.999876
66 1 0.583345 0.666655 0.833194
72 1 0.583345 0.916689 0.833194
91 1 0.749793 0.749605 0.999876
96 1 0.83181 0.915905 0.832412
1 1 0.999553 0.999776 0.998565
19 1 0.99934 0.74868 0.999976
90 1 0.833012 0.666456 0.833038
ITEM: TIMESTEP
143
ITEM: NUMBER OF ATOMS
97
ITEM: BOX BOUNDS xy xz yz pp pp pp
-6.4403077717034343e+00 1.2880619210125165e+01 -6.4403077717034343e+00
0.0000000000000000e+00 1.1154943116692573e+01 0.0000000000000000e+00
0.0000000000000000e+00 1.5046356078130312e+01 0.0000000000000000e+00
ITEM: ATOMS id type xs ys zs
2 1 0.0803801 0.175622 0.16974
8 1 0.0804531 0.419548 0.167218
37 1 0.248172 0.499413 0.000222358
26 1 0.321987 0.160994 0.169106
32 1 0.334492 0.418622 0.166866
55 1 0.494197 0.247099 0.00143324
56 1 0.579425 0.414456 0.166789
97 2 0.147379 0.0736895 0.0950359
31 1 0.247846 0.249816 5.34337e-05
50 1 0.579425 0.164969 0.166789
80 1 0.8299 0.41495 0.166592
74 1 0.830456 0.166525 0.166858
73 1 0.750707 8.36302e-05 0.000182937
14 1 0.0804531 0.660905 0.167218
20 1 0.0803801 0.904758 0.16974
25 1 0.247846 0.99803 5.34322e-05
38 1 0.334493 0.667246 0.166754
44 1 0.334492 0.91587 0.166866
43 1 0.248172 0.748759 0.000222358
62 1 0.583706 0.666857 0.166868
68 1 0.583706 0.916848 0.166868
92 1 0.829228 0.914614 0.168227
67 1 0.499908 0.749954 1
91 1 0.750707 0.750624 0.000182936
86 1 0.830456 0.663931 0.166858
1 1 0.998196 0.999098 0.000931122
39 1 0.248229 0.499922 0.333473
3 1 0.00161453 0.000807259 0.333496
33 1 0.249392 0.252485 0.334754
57 1 0.496632 0.248316 0.333184
58 1 0.580891 0.414994 0.49999
81 1 0.746528 0.248631 0.33361
87 1 0.746528 0.497897 0.33361
52 1 0.580891 0.165897 0.49999
9 1 0.996547 0.251292 0.336103
15 1 0.996499 0.49825 0.335072
75 1 0.750158 2.86349e-05 0.334156
27 1 0.249392 0.996907 0.334754
45 1 0.248229 0.748307 0.333473
51 1 0.499864 0.998636 0.333894
40 1 0.333048 0.666524 0.499922
63 1 0.499864 0.501228 0.333894
69 1 0.49967 0.749835 0.33366
93 1 0.750158 0.750129 0.334156
94 1 0.834216 0.917108 0.4998
21 1 0.996547 0.745255 0.336103
4 1 0.0818048 0.166377 0.500865
10 1 0.0828466 0.416783 0.501014
5 1 6.8159e-05 3.40714e-05 0.666939
28 1 0.331316 0.165658 0.500564
34 1 0.332688 0.41711 0.500258
35 1 0.249202 0.250206 0.666667
59 1 0.498288 0.249144 0.666815
82 1 0.831201 0.4156 0.500527
83 1 0.747941 0.249073 0.666751
89 1 0.747941 0.498868 0.666751
11 1 0.998842 0.249447 0.667111
17 1 0.998107 0.499054 0.666651
76 1 0.831156 0.166399 0.500859
16 1 0.0828466 0.666064 0.501014
22 1 0.0818048 0.915427 0.500865
29 1 0.249202 0.998995 0.666667
41 1 0.249287 0.500111 0.666677
46 1 0.332688 0.915578 0.500258
47 1 0.249287 0.749176 0.666677
53 1 0.499579 0.999507 0.6666
65 1 0.499579 0.500072 0.6666
64 1 0.583171 0.666955 0.50029
70 1 0.583171 0.916215 0.50029
71 1 0.499203 0.749601 0.666785
77 1 0.749758 0.999483 0.666501
95 1 0.749758 0.750275 0.666501
23 1 0.998842 0.749395 0.667111
88 1 0.831156 0.664758 0.500859
6 1 0.0821504 0.166576 0.833999
12 1 0.0829132 0.417104 0.832601
30 1 0.331021 0.165511 0.833563
36 1 0.33311 0.41755 0.832971
60 1 0.5811 0.415058 0.833415
79 1 0.746261 0.248627 0.999798
85 1 0.746261 0.497634 0.999798
54 1 0.5811 0.166042 0.833415
84 1 0.831464 0.415732 0.832846
7 1 0.997158 0.251727 0.999392
13 1 0.996793 0.498397 0.998728
78 1 0.831415 0.166378 0.832967
18 1 0.0829132 0.665809 0.832601
24 1 0.0821504 0.915574 0.833999
42 1 0.333225 0.666612 0.833627
48 1 0.33311 0.91556 0.832971
49 1 0.499546 0.998632 0.999521
61 1 0.499546 0.500914 0.999521
66 1 0.583566 0.666949 0.833208
72 1 0.583566 0.916617 0.833208
96 1 0.832539 0.91627 0.832636
19 1 0.997158 0.745432 0.999392
90 1 0.831415 0.665037 0.832967
ITEM: TIMESTEP
143
ITEM: NUMBER OF ATOMS
97
ITEM: BOX BOUNDS xy xz yz pp pp pp
-6.4403077717034343e+00 1.2880619210125165e+01 -6.4403077717034343e+00
0.0000000000000000e+00 1.1154943116692573e+01 0.0000000000000000e+00
0.0000000000000000e+00 1.5046356078130312e+01 0.0000000000000000e+00
ITEM: ATOMS id type xs ys zs
2 1 0.0824766 0.185975 0.168569
8 1 0.0796362 0.421777 0.167306
97 2 0.122492 0.0612461 0.11312
37 1 0.248458 0.499738 0.000163632
1 1 0.000748783 0.000374383 0.0014329
26 1 0.317094 0.158547 0.167459
32 1 0.336282 0.419513 0.166653
56 1 0.579011 0.413986 0.166724
55 1 0.493672 0.246836 0.00158618
50 1 0.579011 0.165025 0.166724
80 1 0.829385 0.414692 0.166587
74 1 0.830475 0.166521 0.166716
73 1 0.752032 9.07207e-05 0.000245741
14 1 0.0796362 0.65786 0.167306
20 1 0.0824766 0.896501 0.168569
38 1 0.335361 0.667681 0.166711
44 1 0.336282 0.916769 0.166653
43 1 0.248458 0.748719 0.000163632
62 1 0.58458 0.667603 0.166789
68 1 0.58458 0.916977 0.166789
92 1 0.829583 0.914792 0.168441
91 1 0.752032 0.751942 0.00024574
86 1 0.830475 0.663955 0.166716
39 1 0.248324 0.499939 0.333356
3 1 0.00317982 0.0015899 0.333327
33 1 0.25018 0.25365 0.335086
57 1 0.495485 0.247742 0.332311
58 1 0.580798 0.414807 0.499768
81 1 0.746372 0.248616 0.333578
87 1 0.746372 0.497756 0.333578
52 1 0.580798 0.165991 0.499768
9 1 0.996474 0.250964 0.336473
15 1 0.99605 0.498025 0.335618
27 1 0.25018 0.99653 0.335086
45 1 0.248324 0.748386 0.333356
51 1 0.500354 0.998585 0.333916
40 1 0.333086 0.666543 0.499783
63 1 0.500354 0.501769 0.333916
69 1 0.499735 0.749867 0.333589
75 1 0.75057 0.999951 0.334065
93 1 0.75057 0.750619 0.334065
94 1 0.834687 0.917344 0.499578
21 1 0.996474 0.745509 0.336473
4 1 0.0817546 0.166226 0.500818
10 1 0.0829334 0.416799 0.500996
5 1 0.000167834 8.3909e-05 0.666842
28 1 0.33148 0.16574 0.500514
34 1 0.332873 0.417379 0.500273
35 1 0.249262 0.25029 0.66641
59 1 0.498592 0.249296 0.666554
82 1 0.831082 0.415541 0.500606
83 1 0.747898 0.249045 0.666729
89 1 0.747898 0.498853 0.666729
11 1 0.998789 0.249502 0.666921
17 1 0.998087 0.499043 0.666588
76 1 0.83097 0.166422 0.500867
16 1 0.0829334 0.666134 0.500996
22 1 0.0817546 0.915528 0.500818
29 1 0.249262 0.998972 0.66641
41 1 0.249297 0.50023 0.666528
46 1 0.332873 0.915494 0.500273
47 1 0.249297 0.749068 0.666528
53 1 0.499831 0.999594 0.666474
65 1 0.499831 0.500237 0.666474
64 1 0.583345 0.667127 0.500241
70 1 0.583345 0.916218 0.500241
71 1 0.499178 0.749589 0.666727
77 1 0.749879 0.999419 0.666438
95 1 0.749879 0.75046 0.666438
23 1 0.998789 0.749287 0.666921
88 1 0.83097 0.664548 0.500867
6 1 0.0824584 0.166881 0.833515
12 1 0.0830618 0.417224 0.832357
30 1 0.331422 0.165711 0.832628
31 1 0.251001 0.254196 0.997881
36 1 0.333571 0.418214 0.832452
60 1 0.580961 0.414851 0.83341
54 1 0.580961 0.166111 0.83341
79 1 0.746155 0.248591 0.999731
84 1 0.831343 0.415672 0.832763
85 1 0.746155 0.497563 0.999731
7 1 0.997218 0.252207 0.998523
13 1 0.996481 0.498241 0.99818
78 1 0.831346 0.16642 0.832798
25 1 0.251001 0.996804 0.997881
18 1 0.0830618 0.665838 0.832357
24 1 0.0824584 0.915577 0.833515
42 1 0.333387 0.666693 0.833562
48 1 0.333571 0.915357 0.832452
49 1 0.500417 0.99849 0.99925
61 1 0.500417 0.501927 0.99925
66 1 0.584048 0.667371 0.833133
67 1 0.500125 0.750063 0.999865
72 1 0.584048 0.916677 0.833133
96 1 0.833592 0.916796 0.832699
19 1 0.997218 0.745011 0.998523
90 1 0.831346 0.664926 0.832798
ITEM: TIMESTEP
143
ITEM: NUMBER OF ATOMS
97
ITEM: BOX BOUNDS xy xz yz pp pp pp
-6.4403077717034343e+00 1.2880619210125165e+01 -6.4403077717034343e+00
0.0000000000000000e+00 1.1154943116692573e+01 0.0000000000000000e+00
0.0000000000000000e+00 1.5046356078130312e+01 0.0000000000000000e+00
ITEM: ATOMS id type xs ys zs
2 1 0.0849193 0.191636 0.165811
8 1 0.0793254 0.422814 0.167377
97 2 0.0956916 0.0478458 0.132086
1 1 0.00372121 0.0018606 0.00159368
26 1 0.316078 0.158039 0.166393
32 1 0.337342 0.419883 0.166439
56 1 0.578849 0.413746 0.166681
55 1 0.49424 0.24712 0.00149408
50 1 0.578849 0.165103 0.166681
80 1 0.829201 0.414601 0.16661
74 1 0.830606 0.166593 0.166714
14 1 0.0793254 0.656511 0.167377
20 1 0.0849193 0.893284 0.165811
38 1 0.335712 0.667856 0.166701
44 1 0.337342 0.91746 0.166439
37 1 0.248604 0.500044 0.00012615
43 1 0.248604 0.74856 0.00012615
62 1 0.585129 0.66816 0.166759
68 1 0.585129 0.916969 0.166759
92 1 0.832043 0.916021 0.168121
73 1 0.75266 0.999973 0.000273172
91 1 0.75266 0.752687 0.000273172
86 1 0.830606 0.664013 0.166714
39 1 0.248398 0.499956 0.333319
3 1 0.00478709 0.00239354 0.332582
33 1 0.250674 0.254354 0.335267
57 1 0.495019 0.247509 0.331903
58 1 0.580784 0.414751 0.49969
81 1 0.746365 0.248625 0.333582
87 1 0.746365 0.49774 0.333582
52 1 0.580784 0.166033 0.49969
9 1 0.996619 0.250354 0.336234
15 1 0.995882 0.497941 0.335816
27 1 0.250674 0.99632 0.335267
40 1 0.333091 0.666545 0.49974
45 1 0.248398 0.748442 0.333319
51 1 0.500561 0.998566 0.333919
63 1 0.500561 0.501995 0.333919
69 1 0.499731 0.749865 0.33353
75 1 0.750838 0.999851 0.333893
93 1 0.750838 0.750987 0.333893
94 1 0.834945 0.917472 0.499416
21 1 0.996619 0.746265 0.336234
4 1 0.081671 0.166057 0.500683
5 1 0.000159518 7.97511e-05 0.666771
10 1 0.0829243 0.416756 0.500936
28 1 0.331571 0.165785 0.500505
34 1 0.332947 0.417491 0.500302
35 1 0.249257 0.25032 0.666278
59 1 0.49875 0.249375 0.666421
82 1 0.831039 0.41552 0.500631
83 1 0.747889 0.24904 0.666733
89 1 0.747889 0.498849 0.666733
11 1 0.998749 0.249546 0.666803
17 1 0.998094 0.499047 0.666577
76 1 0.830903 0.166444 0.50085
16 1 0.0829243 0.666168 0.500936
22 1 0.081671 0.915613 0.500683
29 1 0.249257 0.998937 0.666278
41 1 0.249284 0.50028 0.666454
46 1 0.332947 0.915456 0.500302
47 1 0.249284 0.749004 0.666454
53 1 0.499924 0.999627 0.666424
65 1 0.499924 0.500298 0.666424
64 1 0.583424 0.667195 0.500214
70 1 0.583424 0.916229 0.500214
71 1 0.499165 0.749583 0.666703
77 1 0.749918 0.999385 0.66642
95 1 0.749918 0.750533 0.66642
23 1 0.998749 0.749204 0.666803
88 1 0.830903 0.664459 0.50085
6 1 0.0824601 0.167012 0.833006
12 1 0.0831233 0.417228 0.832299
30 1 0.331853 0.165926 0.831812
31 1 0.253636 0.257572 0.995911
36 1 0.333833 0.418678 0.832084
60 1 0.580885 0.414759 0.833427
54 1 0.580885 0.166126 0.833427
79 1 0.746201 0.248604 0.999708
84 1 0.831297 0.415649 0.832754
85 1 0.746201 0.497596 0.999708
7 1 0.997403 0.252181 0.997925
78 1 0.831302 0.166426 0.832732
13 1 0.996366 0.498183 0.997979
25 1 0.253636 0.996064 0.995911
18 1 0.0831233 0.665895 0.832299
24 1 0.0824601 0.915448 0.833006
42 1 0.333436 0.666718 0.833521
48 1 0.333833 0.915155 0.832084
49 1 0.501064 0.998429 0.999165
61 1 0.501064 0.502636 0.999165
66 1 0.584247 0.667561 0.833103
67 1 0.500153 0.750077 0.999818
72 1 0.584247 0.916687 0.833103
96 1 0.834213 0.917107 0.832826
19 1 0.997403 0.745222 0.997925
90 1 0.831302 0.664876 0.832732
ITEM: TIMESTEP
143
ITEM: NUMBER OF ATOMS
97
ITEM: BOX BOUNDS xy xz yz pp pp pp
-6.4403077717034343e+00 1.2880619210125165e+01 -6.4403077717034343e+00
0.0000000000000000e+00 1.1154943116692573e+01 0.0000000000000000e+00
0.0000000000000000e+00 1.5046356078130312e+01 0.0000000000000000e+00
ITEM: ATOMS id type xs ys zs
2 1 0.0841491 0.19192 0.164823
8 1 0.0797183 0.423175 0.16714
97 2 0.0603396 0.0301768 0.149444
1 1 0.00715355 0.00357701 0.00209879
26 1 0.320922 0.160461 0.166157
32 1 0.337946 0.420315 0.166349
56 1 0.579066 0.413758 0.166603
55 1 0.495898 0.247949 0.000906921
50 1 0.579066 0.165308 0.166603
80 1 0.829253 0.414627 0.166622
74 1 0.830727 0.167412 0.166633
14 1 0.0797185 0.656544 0.16714
20 1 0.08415 0.892221 0.164823
37 1 0.248804 0.500259 2.57215e-05
38 1 0.33605 0.668025 0.166651
43 1 0.248804 0.748544 2.57318e-05
44 1 0.337946 0.917631 0.166349
62 1 0.585629 0.668687 0.166684
68 1 0.585629 0.916942 0.166684
92 1 0.836275 0.918138 0.166977
73 1 0.753357 0.999896 0.000288767
91 1 0.753357 0.753461 0.00028872
86 1 0.830727 0.663314 0.166633
3 1 0.00772371 0.00386208 0.329724
33 1 0.25114 0.254759 0.334964
57 1 0.495592 0.247796 0.332057
58 1 0.580841 0.41482 0.499709
81 1 0.746477 0.248636 0.333649
87 1 0.746477 0.497841 0.333649
52 1 0.580841 0.166022 0.499709
9 1 0.997116 0.250277 0.335705
15 1 0.995916 0.497958 0.335729
27 1 0.25114 0.996381 0.334965
39 1 0.248584 0.500066 0.333248
40 1 0.333202 0.666601 0.499692
45 1 0.248584 0.748518 0.333248
51 1 0.500862 0.998616 0.333845
63 1 0.500862 0.502246 0.333845
69 1 0.499881 0.749941 0.333434
75 1 0.752355 0.999877 0.333109
93 1 0.752355 0.752478 0.333109
64 1 0.583784 0.667443 0.500003
70 1 0.583784 0.916341 0.500003
94 1 0.835616 0.917808 0.498945
21 1 0.997116 0.746839 0.335705
4 1 0.0816927 0.165816 0.5002
5 1 0.000192969 9.64798e-05 0.666563
10 1 0.0829419 0.416728 0.500804
28 1 0.331562 0.165781 0.500409
34 1 0.333049 0.4176 0.500281
35 1 0.249292 0.250347 0.666213
59 1 0.49873 0.249365 0.666392
82 1 0.831054 0.415527 0.500609
83 1 0.747932 0.249045 0.666689
89 1 0.747932 0.498888 0.666689
11 1 0.998772 0.249574 0.666604
17 1 0.998148 0.499074 0.66654
76 1 0.830949 0.166409 0.500711
16 1 0.0829419 0.666214 0.500804
22 1 0.0816927 0.915877 0.5002
29 1 0.249292 0.998945 0.666213
41 1 0.249297 0.50031 0.666402
46 1 0.333049 0.915449 0.500281
47 1 0.249297 0.748987 0.666402
53 1 0.499994 0.999574 0.66638
65 1 0.499994 0.50042 0.66638
71 1 0.49921 0.749605 0.666628
77 1 0.750012 0.999317 0.666354
95 1 0.750012 0.750695 0.666354
23 1 0.998772 0.749198 0.666604
88 1 0.830949 0.664539 0.500711
6 1 0.0824737 0.167012 0.83259
12 1 0.0832124 0.417222 0.83226
30 1 0.331819 0.16591 0.831812
31 1 0.253955 0.257615 0.995998
36 1 0.333905 0.418752 0.83204
60 1 0.580927 0.414847 0.833316
54 1 0.580927 0.16608 0.833316
79 1 0.746427 0.248666 0.999558
84 1 0.83131 0.415655 0.832719
85 1 0.746427 0.497761 0.999558
7 1 0.997693 0.252018 0.997452
78 1 0.83132 0.166421 0.832611
13 1 0.996379 0.49819 0.997885
25 1 0.253956 0.99634 0.995998
18 1 0.0832124 0.66599 0.83226
24 1 0.0824737 0.915461 0.83259
42 1 0.333539 0.666769 0.833457
48 1 0.333905 0.915154 0.83204
49 1 0.501489 0.998516 0.999166
61 1 0.501489 0.502973 0.999166
66 1 0.584462 0.667754 0.833115
67 1 0.500224 0.750112 0.999789
72 1 0.584462 0.916707 0.833115
96 1 0.834981 0.91749 0.833097
19 1 0.997693 0.745675 0.997452
90 1 0.83132 0.664899 0.832611
ITEM: TIMESTEP
143
ITEM: NUMBER OF ATOMS
97
ITEM: BOX BOUNDS xy xz yz pp pp pp
-6.4403077717034343e+00 1.2880619210125165e+01 -6.4403077717034343e+00
0.0000000000000000e+00 1.1154943116692573e+01 0.0000000000000000e+00
0.0000000000000000e+00 1.5046356078130312e+01 0.0000000000000000e+00
ITEM: ATOMS id type xs ys zs
2 1 0.0881782 0.192917 0.165659
8 1 0.0805621 0.42325 0.166697
97 2 0.0239164 0.0119573 0.160209
1 1 0.0077878 0.00389384 0.00609454
26 1 0.327661 0.16383 0.166083
32 1 0.339218 0.421729 0.166318
56 1 0.580326 0.414391 0.166471
55 1 0.497701 0.24885 2.39292e-05
50 1 0.580326 0.165935 0.166471
80 1 0.8298 0.4149 0.16654
74 1 0.83145 0.168508 0.166437
14 1 0.0805621 0.657312 0.166697
20 1 0.0881779 0.895262 0.165659
38 1 0.335974 0.667987 0.16652
44 1 0.339218 0.917489 0.166318
62 1 0.584269 0.666733 0.166509
68 1 0.584269 0.917536 0.166509
92 1 0.828117 0.914059 0.166197
86 1 0.83145 0.662943 0.166437
3 1 0.00763497 0.00381743 0.325413
4 1 0.0819873 0.165563 0.499394
33 1 0.251229 0.253946 0.334222
57 1 0.497277 0.248639 0.33269
58 1 0.581258 0.415182 0.499869
81 1 0.74714 0.24893 0.333689
87 1 0.74714 0.49821 0.333689
52 1 0.581258 0.166076 0.499869
9 1 0.99843 0.25086 0.334903
15 1 0.996496 0.498248 0.335391
75 1 0.752523 0.999999 0.333128
27 1 0.251229 0.997283 0.334222
22 1 0.0819873 0.916425 0.499394
39 1 0.248986 0.500211 0.333121
40 1 0.333443 0.666721 0.499525
45 1 0.248986 0.748776 0.333121
51 1 0.501024 0.999069 0.333966
63 1 0.501024 0.501954 0.333966
69 1 0.500304 0.750152 0.333291
93 1 0.752523 0.752524 0.333128
64 1 0.584169 0.667717 0.499852
70 1 0.584169 0.916451 0.499852
94 1 0.836432 0.918216 0.498458
21 1 0.99843 0.74757 0.334903
5 1 0.000399244 0.000199613 0.666297
10 1 0.0831335 0.416755 0.500531
28 1 0.331758 0.165879 0.500257
34 1 0.333081 0.417549 0.500146
35 1 0.249326 0.250336 0.666164
59 1 0.498764 0.249382 0.666344
82 1 0.831313 0.415657 0.500519
83 1 0.748218 0.249117 0.666536
89 1 0.748218 0.499102 0.666536
11 1 0.999145 0.249607 0.666358
17 1 0.998417 0.499208 0.666435
76 1 0.831519 0.166587 0.500544
16 1 0.0831335 0.666378 0.500531
29 1 0.249326 0.99899 0.666164
41 1 0.249449 0.500384 0.66634
46 1 0.333081 0.915532 0.500146
47 1 0.249449 0.749065 0.66634
53 1 0.500017 0.999449 0.666324
65 1 0.500017 0.500568 0.666324
71 1 0.499305 0.749652 0.666468
77 1 0.750285 0.999248 0.666275
95 1 0.750285 0.751036 0.666275
23 1 0.999145 0.749538 0.666358
88 1 0.831519 0.664932 0.500544
6 1 0.0825358 0.166431 0.832833
12 1 0.0833931 0.41713 0.832262
30 1 0.331952 0.165976 0.832026
31 1 0.252555 0.255228 0.997462
36 1 0.333647 0.418251 0.832263
60 1 0.581358 0.415238 0.832974
54 1 0.581358 0.16612 0.832974
79 1 0.747222 0.249009 0.999282
84 1 0.831532 0.415766 0.832563
85 1 0.747222 0.498214 0.999282
7 1 0.998836 0.251867 0.997655
78 1 0.831784 0.166642 0.832353
13 1 0.996828 0.498414 0.997797
25 1 0.252555 0.997327 0.997462
18 1 0.0833931 0.666263 0.832262
24 1 0.0825358 0.916104 0.832833
37 1 0.249187 0.500401 0.999833
43 1 0.249187 0.748787 0.999833
42 1 0.333719 0.66686 0.833383
48 1 0.333647 0.915396 0.832263
49 1 0.501466 0.999045 0.99887
61 1 0.501466 0.50242 0.99887
66 1 0.584555 0.667892 0.832954
67 1 0.500567 0.750283 0.999685
72 1 0.584555 0.916663 0.832954
73 1 0.752772 0.999985 0.999576
91 1 0.752772 0.752788 0.999576
96 1 0.836111 0.918056 0.833631
19 1 0.998836 0.746969 0.997655
90 1 0.831784 0.665142 0.832353
ITEM: TIMESTEP
143
ITEM: NUMBER OF ATOMS
97
ITEM: BOX BOUNDS xy xz yz pp pp pp
-6.4403077717034343e+00 1.2880619210125165e+01 -6.4403077717034343e+00
0.0000000000000000e+00 1.1154943116692573e+01 0.0000000000000000e+00
0.0000000000000000e+00 1.5046356078130312e+01 0.0000000000000000e+00
ITEM: ATOMS id type xs ys zs
2 1 0.0940294 0.188059 0.166266
8 1 0.0818668 0.420901 0.166266
26 1 0.335056 0.167528 0.166266
32 1 0.339034 0.420901 0.166266
56 1 0.583754 0.416246 0.166266
50 1 0.583754 0.167508 0.166266
80 1 0.832492 0.416246 0.166266
74 1 0.832472 0.167528 0.166266
14 1 0.0818668 0.660966 0.166266
20 1 0.0940294 0.905971 0.166266
38 1 0.333333 0.666667 0.166266
44 1 0.339034 0.918133 0.166266
62 1 0.579099 0.660966 0.166266
68 1 0.579099 0.918133 0.166266
92 1 0.811941 0.905971 0.166266
1 1 1 1 0.00910173
86 1 0.832472 0.664944 0.166266
97 2 1 1 0.166266
4 1 0.0824033 0.164807 0.498734
9 1 0.000398661 0.250983 0.333899
39 1 0.249983 0.499965 0.33295
33 1 0.250584 0.250983 0.333899
57 1 0.500542 0.250271 0.333463
63 1 0.500315 0.499685 0.33439
51 1 0.500315 0.000629703 0.33439
81 1 0.749729 0.250271 0.333463
87 1 0.749729 0.499458 0.333463
15 1 0.99937 0.499685 0.33439
21 1 0.000398659 0.749416 0.333899
22 1 0.0824033 0.917597 0.498734
27 1 0.250584 0.999601 0.333899
40 1 0.333333 0.666667 0.49924
45 1 0.249983 0.750017 0.33295
69 1 0.500035 0.750017 0.33295
75 1 0.749017 0.999601 0.333899
93 1 0.749017 0.749416 0.333899
94 1 0.835193 0.917597 0.498734
3 1 1 1 0.323431
10 1 0.0837438 0.416646 0.500039
11 1 0.000477937 0.249746 0.666266
28 1 0.333749 0.166874 0.50036
34 1 0.332902 0.416646 0.500039
35 1 0.249268 0.249746 0.666266
58 1 0.583437 0.416563 0.500122
59 1 0.499986 0.249993 0.666266
52 1 0.583437 0.166873 0.500122
82 1 0.833127 0.416563 0.500122
83 1 0.750007 0.249993 0.666266
76 1 0.833126 0.166874 0.50036
16 1 0.0837438 0.667098 0.500039
17 1 6.48703e-05 0.500032 0.666266
23 1 0.000477937 0.750732 0.666266
29 1 0.249268 0.999522 0.666266
41 1 0.250264 0.500527 0.666266
46 1 0.332902 0.916256 0.500039
47 1 0.250264 0.749736 0.666266
53 1 0.499968 0.999935 0.666266
64 1 0.583354 0.667098 0.500039
65 1 0.499968 0.500032 0.666266
70 1 0.583354 0.916256 0.500039
71 1 0.499473 0.749736 0.666266
77 1 0.750254 0.999522 0.666266
95 1 0.750254 0.750732 0.666266
5 1 1 1 0.666266
88 1 0.833126 0.666251 0.50036
89 1 0.750007 0.500014 0.666266
6 1 0.0824033 0.164807 0.833798
7 1 0.000398661 0.250983 0.998633
12 1 0.0837438 0.416646 0.832494
37 1 0.249983 0.499965 0.999583
30 1 0.333749 0.166874 0.832172
31 1 0.250584 0.250983 0.998633
36 1 0.332902 0.416646 0.832494
55 1 0.500542 0.250271 0.999069
60 1 0.583437 0.416563 0.832411
61 1 0.500315 0.499685 0.998143
49 1 0.500315 0.000629703 0.998143
54 1 0.583437 0.166873 0.832411
79 1 0.749729 0.250271 0.999069
84 1 0.833127 0.416563 0.832411
85 1 0.749729 0.499458 0.999069
13 1 0.99937 0.499685 0.998143
78 1 0.833126 0.166874 0.832172
18 1 0.0837438 0.667098 0.832494
19 1 0.000398659 0.749416 0.998633
24 1 0.0824033 0.917597 0.833798
25 1 0.250584 0.999601 0.998633
42 1 0.333333 0.666667 0.833292
43 1 0.249983 0.750017 0.999583
48 1 0.332902 0.916256 0.832494
66 1 0.583354 0.667098 0.832494
67 1 0.500035 0.750017 0.999583
72 1 0.583354 0.916256 0.832494
73 1 0.749017 0.999601 0.998633
91 1 0.749017 0.749416 0.998633
96 1 0.835193 0.917597 0.833798
90 1 0.833126 0.666251 0.832172
