ITEM: TIMESTEP
0
ITEM: NUMBER OF ATOMS
97
ITEM: BOX BOUNDS xy xz yz pp pp pp
-6.4403077717034343e+00 1.2880619210125165e+01 -6.4403077717034343e+00
0.0000000000000000e+00 1.1154943116692573e+01 0.0000000000000000e+00
0.0000000000000000e+00 1.5046356078130312e+01 0.0000000000000000e+00
ITEM: ATOMS id type xs ys zs
2 1 0.0831096 0.16689 0.168101
8 1 0.083521 0.417061 0.166791
26 1 0.333781 0.16689 0.168101
32 1 0.333993 0.417986 0.166691
56 1 0.58354 0.417061 0.166791
97 2 0.166667 0.0833333 0.0833333
50 1 0.58354 0.166479 0.166791
80 1 0.833333 0.416667 0.166549
74 1 0.832939 0.166479 0.166791
14 1 0.083521 0.66646 0.166791
20 1 0.0831096 0.916219 0.168101
38 1 0.333378 0.666689 0.166849
44 1 0.333993 0.916007 0.166691
62 1 0.583311 0.666689 0.166849
67 1 0.5 0.75 0.000117449
68 1 0.583311 0.916622 0.166849
92 1 0.832014 0.916007 0.166691
86 1 0.832939 0.66646 0.166791
33 1 0.25021 0.25042 0.333466
34 1 0.333251 0.416503 0.499817
57 1 0.501523 0.250762 0.334255
51 1 0.500321 0.000110717 0.333629
81 1 0.749989 0.249977 0.333473
82 1 0.833333 0.416667 0.499992
9 1 0.999238 0.250762 0.334255
75 1 0.749789 0.000110719 0.333629
15 1 2.27345e-05 0.500011 0.333473
27 1 0.25021 0.99979 0.333466
39 1 0.249889 0.500211 0.333629
45 1 0.249889 0.749679 0.333629
46 1 0.333251 0.916749 0.499817
63 1 0.500321 0.500211 0.333629
69 1 0.5 0.75 0.333617
93 1 0.749789 0.749679 0.333629
94 1 0.833497 0.916749 0.499817
3 1 0.99958 0.99979 0.333466
21 1 0.999238 0.748477 0.334255
87 1 0.749989 0.500011 0.333473
4 1 0.0832613 0.166739 0.500255
10 1 0.0833799 0.416758 0.500268
11 1 8.1859e-05 0.249918 0.66685
28 1 0.333477 0.166739 0.500255
35 1 0.250072 0.250144 0.666411
58 1 0.583378 0.416758 0.500268
59 1 0.499836 0.249918 0.66685
52 1 0.583378 0.16662 0.500268
53 1 0.500091 4.65794e-05 0.666399
83 1 0.750062 0.250124 0.666578
89 1 0.750062 0.499938 0.666578
17 1 0.999876 0.499938 0.666578
76 1 0.833242 0.16662 0.500268
77 1 0.749955 4.658e-05 0.666399
16 1 0.0833799 0.666622 0.500268
22 1 0.0832613 0.916523 0.500255
23 1 8.1861e-05 0.750164 0.66685
29 1 0.250072 0.999928 0.666411
40 1 0.333458 0.666729 0.500088
41 1 0.249953 0.500045 0.666399
47 1 0.249953 0.749909 0.666399
64 1 0.583271 0.666729 0.500088
65 1 0.500091 0.500045 0.666399
70 1 0.583271 0.916542 0.500088
71 1 0.5 0.75 0.666675
95 1 0.749955 0.749909 0.666399
5 1 0.999856 0.999928 0.666411
88 1 0.833242 0.666622 0.500268
6 1 0.0831232 0.166877 0.8332
12 1 0.0834441 0.416988 0.833038
30 1 0.333754 0.166877 0.8332
31 1 0.250224 0.250447 0.998565
36 1 0.334095 0.41819 0.832412
55 1 0.50132 0.25066 0.999976
60 1 0.583544 0.416988 0.833038
49 1 0.500395 0.000187678 0.999876
54 1 0.583544 0.166556 0.833038
79 1 0.750022 0.250044 0.999817
84 1 0.833333 0.416667 0.83305
85 1 0.750022 0.499978 0.999817
7 1 0.99934 0.25066 0.999976
13 1 0.999956 0.499978 0.999817
73 1 0.749793 0.000187679 0.999876
78 1 0.833012 0.166556 0.833038
18 1 0.0834441 0.666456 0.833038
24 1 0.0831232 0.916246 0.8332
25 1 0.250224 0.999776 0.998565
37 1 0.249812 0.500207 0.999876
42 1 0.333311 0.666655 0.833194
43 1 0.249812 0.749605 0.999876
48 1 0.334095 0.915905 0.832412
61 1 0.500395 0.500207 0.999876
66 1 0.583345 0.666655 0.833194
72 1 0.583345 0.916689 0.833194
91 1 0.749793 0.749605 0.999876
96 1 0.83181 0.915905 0.832412
1 1 0.999553 0.999776 0.998565
19 1 0.99934 0.74868 0.999976
90 1 0.833012 0.666456 0.833038
ITEM: TIMESTEP
0
ITEM: NUMBER OF ATOMS
97
ITEM: BOX BOUNDS xy xz yz pp pp pp
-6.4403077717034343e+00 1.2880619210125165e+01 -6.4403077717034343e+00
0.0000000000000000e+00 1.1154943116692573e+01 0.0000000000000000e+00
0.0000000000000000e+00 1.5046356078130312e+01 0.0000000000000000e+00
ITEM: ATOMS id type xs ys zs
2 1 0.0798567 0.168136 0.171623
8 1 0.0814714 0.416938 0.167724
26 1 0.330707 0.165354 0.167923
32 1 0.3321 0.415959 0.16741
55 1 0.49779 0.248895 9.72923e-06
56 1 0.582081 0.415569 0.167361
97 2 0.145558 0.0727792 0.0877367
50 1 0.58208 0.166511 0.167361
79 1 0.74836 0.24916 7.22344e-05
80 1 0.832198 0.416099 0.166943
85 1 0.74836 0.499199 7.20899e-05
74 1 0.832023 0.166683 0.167788
14 1 0.0814718 0.664534 0.167724
20 1 0.0798569 0.911721 0.171623
38 1 0.333004 0.666502 0.166891
44 1 0.3321 0.916141 0.167411
62 1 0.582453 0.665989 0.166897
68 1 0.582453 0.916464 0.166897
92 1 0.828489 0.914245 0.169634
86 1 0.832024 0.665341 0.167788
39 1 0.248703 0.49952 0.333477
33 1 0.249516 0.25052 0.334152
57 1 0.498881 0.24944 0.333572
63 1 0.498917 0.499696 0.333586
81 1 0.748264 0.249464 0.333924
87 1 0.748265 0.498801 0.333924
9 1 0.997575 0.25082 0.33554
15 1 0.998413 0.499207 0.334641
27 1 0.249516 0.998995 0.334152
45 1 0.248703 0.749183 0.333477
51 1 0.498917 0.999221 0.333587
69 1 0.498831 0.749416 0.33319
75 1 0.748772 0.999856 0.334396
93 1 0.748772 0.748916 0.334396
3 1 0.998028 0.999014 0.333201
21 1 0.997575 0.746754 0.33554
4 1 0.0822255 0.166039 0.501494
10 1 0.0825413 0.416481 0.501232
41 1 0.249164 0.499751 0.666634
28 1 0.332278 0.166139 0.500858
34 1 0.332108 0.416091 0.500532
35 1 0.248807 0.249565 0.66677
58 1 0.58206 0.416083 0.500463
59 1 0.498823 0.249411 0.666559
65 1 0.498793 0.499203 0.666372
52 1 0.582059 0.165976 0.500464
82 1 0.831898 0.415949 0.500361
83 1 0.748921 0.249684 0.666949
89 1 0.748921 0.499237 0.666949
11 1 0.998859 0.248991 0.66692
17 1 0.998441 0.499221 0.666829
76 1 0.831725 0.166314 0.500967
16 1 0.0825413 0.66606 0.501232
22 1 0.0822252 0.916185 0.501494
29 1 0.248806 0.999241 0.66677
40 1 0.332319 0.66616 0.500151
46 1 0.332108 0.916017 0.500532
47 1 0.249164 0.749414 0.666634
53 1 0.498793 0.999591 0.666372
64 1 0.581858 0.666131 0.50022
70 1 0.581858 0.915728 0.50022
71 1 0.49885 0.749425 0.666735
77 1 0.748238 0.999597 0.666109
94 1 0.832735 0.916367 0.501119
95 1 0.748238 0.748642 0.666109
5 1 0.999442 0.999721 0.666544
23 1 0.99886 0.749868 0.66692
88 1 0.831725 0.665411 0.500968
6 1 0.0821923 0.166961 0.834988
12 1 0.0822881 0.416379 0.833037
37 1 0.249116 0.499289 0.999663
30 1 0.33303 0.166515 0.833652
31 1 0.247804 0.248459 0.999855
36 1 0.3324 0.416397 0.833513
60 1 0.582357 0.416156 0.833453
61 1 0.498417 0.499362 0.999782
54 1 0.582356 0.166199 0.833453
84 1 0.832095 0.416047 0.833887
7 1 0.99802 0.251081 0.999409
13 1 0.999376 0.499688 0.999895
78 1 0.831908 0.165673 0.833503
18 1 0.0822882 0.665909 0.833037
24 1 0.0821925 0.915232 0.834988
25 1 0.247804 0.999345 0.999855
42 1 0.332132 0.666066 0.83329
43 1 0.249116 0.749826 0.999663
48 1 0.3324 0.916003 0.833513
49 1 0.498417 0.999055 0.999782
66 1 0.581416 0.665463 0.832992
67 1 0.498475 0.749237 0.999814
72 1 0.581416 0.915953 0.832992
73 1 0.747793 0.998508 0.99954
91 1 0.747793 0.749284 0.99954
96 1 0.82899 0.914495 0.83161
1 1 0.992691 0.996345 0.99564
19 1 0.99802 0.74694 0.999409
90 1 0.831909 0.666236 0.833503
ITEM: TIMESTEP
0
ITEM: NUMBER OF ATOMS
97
ITEM: BOX BOUNDS xy xz yz pp pp pp
-6.4403077717034343e+00 1.2880619210125165e+01 -6.4403077717034343e+00
0.0000000000000000e+00 1.1154943116692573e+01 0.0000000000000000e+00
0.0000000000000000e+00 1.5046356078130312e+01 0.0000000000000000e+00
ITEM: ATOMS id type xs ys zs
2 1 0.0805685 0.172106 0.173641
8 1 0.0815054 0.418028 0.167735
97 2 0.118749 0.0593747 0.0940579
26 1 0.334058 0.167029 0.167692
32 1 0.332627 0.416114 0.16698
56 1 0.5828 0.415959 0.167253
50 1 0.5828 0.166841 0.167253
80 1 0.832461 0.416231 0.166864
74 1 0.832639 0.167013 0.167736
14 1 0.0815058 0.663478 0.167735
20 1 0.0805687 0.908463 0.173642
38 1 0.333901 0.66695 0.166842
44 1 0.332627 0.916513 0.16698
62 1 0.58344 0.666882 0.166833
68 1 0.583439 0.916558 0.166833
92 1 0.828132 0.914066 0.170515
86 1 0.832639 0.665627 0.167736
39 1 0.248712 0.499434 0.333191
33 1 0.250042 0.250625 0.334648
57 1 0.499242 0.249621 0.333603
63 1 0.499132 0.499898 0.333385
81 1 0.748334 0.249364 0.333964
87 1 0.748335 0.498971 0.333963
9 1 0.997341 0.251346 0.336399
15 1 0.998388 0.499194 0.334976
27 1 0.250042 0.999417 0.334648
45 1 0.248713 0.749278 0.333191
51 1 0.499132 0.999234 0.333385
69 1 0.498626 0.749313 0.333262
75 1 0.749042 0.999914 0.334362
93 1 0.749042 0.749128 0.334362
3 1 0.998696 0.999348 0.333631
21 1 0.997341 0.745995 0.336399
4 1 0.0823744 0.166115 0.501819
10 1 0.0826333 0.416566 0.501375
41 1 0.249217 0.499789 0.66651
28 1 0.33238 0.16619 0.500908
34 1 0.332243 0.416275 0.500336
35 1 0.248852 0.249695 0.666565
58 1 0.5821 0.416155 0.500438
59 1 0.499092 0.249546 0.666492
65 1 0.498888 0.499221 0.66621
52 1 0.582099 0.165944 0.500438
82 1 0.831862 0.415931 0.500307
83 1 0.74899 0.249658 0.666937
89 1 0.74899 0.499332 0.666938
11 1 0.998812 0.248973 0.666973
17 1 0.998474 0.499237 0.666756
76 1 0.831633 0.166249 0.500944
16 1 0.0826334 0.666068 0.501375
22 1 0.0823741 0.916258 0.501819
29 1 0.248852 0.999157 0.666565
40 1 0.332265 0.666133 0.500039
46 1 0.332243 0.915968 0.500336
47 1 0.249218 0.749429 0.666511
53 1 0.498888 0.999668 0.66621
64 1 0.581935 0.666172 0.500122
70 1 0.581935 0.915764 0.500122
71 1 0.498924 0.749463 0.666656
77 1 0.748186 0.999713 0.665831
94 1 0.832921 0.91646 0.501274
95 1 0.748186 0.748473 0.665831
5 1 0.999809 0.999904 0.666453
23 1 0.998812 0.749839 0.666973
88 1 0.831634 0.665385 0.500944
6 1 0.0830859 0.167667 0.834904
12 1 0.082429 0.416518 0.832866
37 1 0.249459 0.499356 0.999666
25 1 0.250744 4.17876e-06 0.998957
30 1 0.333489 0.166744 0.833048
31 1 0.250744 0.25074 0.998957
36 1 0.332796 0.416892 0.833156
55 1 0.498485 0.249242 0.999898
60 1 0.582603 0.416365 0.833433
54 1 0.582603 0.166238 0.833433
79 1 0.748736 0.249196 0.99994
84 1 0.832029 0.416014 0.833674
85 1 0.748736 0.49954 0.99994
7 1 0.998463 0.252181 0.999226
13 1 0.999798 0.499899 0.999631
78 1 0.832058 0.165551 0.833538
18 1 0.0824292 0.665911 0.832867
24 1 0.0830861 0.915419 0.834904
42 1 0.332087 0.666043 0.833136
43 1 0.249459 0.750104 0.999666
48 1 0.332796 0.915905 0.833155
49 1 0.499047 0.999 0.999796
61 1 0.499048 0.500047 0.999796
66 1 0.581484 0.665443 0.832763
67 1 0.498414 0.749207 0.99955
72 1 0.581483 0.916041 0.832763
73 1 0.747891 0.998287 0.99939
91 1 0.747891 0.749604 0.99939
96 1 0.828034 0.914017 0.830452
1 1 0.989667 0.994833 0.992015
19 1 0.998463 0.746283 0.999226
90 1 0.832058 0.666507 0.833538
ITEM: TIMESTEP
0
ITEM: NUMBER OF ATOMS
97
ITEM: BOX BOUNDS xy xz yz pp pp pp
-6.4403077717034343e+00 1.2880619210125165e+01 -6.4403077717034343e+00
0.0000000000000000e+00 1.1154943116692573e+01 0.0000000000000000e+00
0.0000000000000000e+00 1.5046356078130312e+01 0.0000000000000000e+00
ITEM: ATOMS id type xs ys zs
2 1 0.0825123 0.176821 0.173778
8 1 0.0815042 0.418784 0.167792
97 2 0.0918423 0.0459212 0.10182
26 1 0.337258 0.168629 0.16764
32 1 0.33331 0.416528 0.166653
56 1 0.583342 0.416324 0.167111
50 1 0.583341 0.167018 0.167111
80 1 0.832567 0.416283 0.166785
74 1 0.833218 0.167299 0.167604
14 1 0.0815046 0.66272 0.167792
20 1 0.0825125 0.905691 0.173778
38 1 0.334391 0.667195 0.166754
44 1 0.33331 0.916782 0.166653
62 1 0.584184 0.667735 0.166816
68 1 0.584183 0.916449 0.166816
92 1 0.829687 0.914844 0.170172
86 1 0.833218 0.665919 0.167603
39 1 0.248668 0.499303 0.333043
33 1 0.250196 0.250515 0.334805
57 1 0.499511 0.249755 0.33369
63 1 0.499316 0.499995 0.333304
81 1 0.748448 0.249217 0.333969
87 1 0.748448 0.499231 0.333969
9 1 0.997328 0.251392 0.336754
15 1 0.998397 0.499198 0.335181
27 1 0.250196 0.99968 0.334805
40 1 0.33221 0.666105 0.499983
45 1 0.248668 0.749366 0.333043
51 1 0.499316 0.999321 0.333305
69 1 0.49845 0.749225 0.333307
75 1 0.749241 0.999698 0.334062
93 1 0.749242 0.749544 0.334062
3 1 0.999238 0.999619 0.335168
21 1 0.997328 0.745935 0.336754
4 1 0.0823445 0.165994 0.501878
5 1 4.2701e-05 2.0734e-05 0.666709
10 1 0.0826456 0.416566 0.501366
41 1 0.249233 0.49977 0.666454
28 1 0.332371 0.166185 0.500903
34 1 0.332325 0.416378 0.500219
35 1 0.24884 0.249718 0.666429
58 1 0.582148 0.416184 0.500439
59 1 0.49923 0.249615 0.666466
65 1 0.498941 0.499233 0.666202
52 1 0.582148 0.165964 0.500439
82 1 0.831848 0.415924 0.500286
83 1 0.749005 0.249619 0.666947
89 1 0.749006 0.499386 0.666947
11 1 0.99875 0.248959 0.667031
17 1 0.998533 0.499266 0.666754
76 1 0.831553 0.166151 0.500842
16 1 0.0826456 0.66608 0.501366
22 1 0.0823443 0.916349 0.501878
29 1 0.24884 0.999122 0.666429
46 1 0.332325 0.915946 0.50022
47 1 0.249233 0.749464 0.666454
53 1 0.498941 0.999708 0.666202
64 1 0.582021 0.666196 0.500059
70 1 0.582021 0.915825 0.500059
71 1 0.498999 0.7495 0.666612
77 1 0.748189 0.999793 0.66571
94 1 0.833116 0.916558 0.501277
95 1 0.748188 0.748396 0.665711
23 1 0.998751 0.749791 0.667031
88 1 0.831554 0.665403 0.500843
6 1 0.0834786 0.167977 0.834597
12 1 0.0824956 0.416557 0.832823
37 1 0.249602 0.499509 0.999836
25 1 0.253853 0.000299799 0.997684
30 1 0.333677 0.166839 0.832746
31 1 0.253853 0.253553 0.997684
36 1 0.33308 0.417305 0.832903
55 1 0.499205 0.249603 0.999695
60 1 0.582699 0.416472 0.833446
54 1 0.582699 0.166226 0.833446
79 1 0.748937 0.249176 0.999905
84 1 0.83206 0.41603 0.833494
85 1 0.748938 0.499762 0.999905
7 1 0.998886 0.252874 0.999199
78 1 0.832084 0.165497 0.833559
13 1 7.84942e-06 0.500004 0.999511
18 1 0.0824957 0.665939 0.832823
24 1 0.0834787 0.915502 0.834597
42 1 0.332005 0.666003 0.83303
43 1 0.249602 0.750092 0.999836
48 1 0.33308 0.915775 0.832903
49 1 0.499533 0.998926 0.999876
61 1 0.499534 0.500607 0.999876
66 1 0.581613 0.66549 0.832651
67 1 0.498224 0.749112 0.999395
72 1 0.581612 0.916123 0.832651
73 1 0.748023 0.998113 0.99928
91 1 0.748023 0.74991 0.99928
96 1 0.827708 0.913854 0.829831
1 1 0.987999 0.994 0.990121
19 1 0.998886 0.746013 0.999199
90 1 0.832084 0.666588 0.833559
ITEM: TIMESTEP
0
ITEM: NUMBER OF ATOMS
97
ITEM: BOX BOUNDS xy xz yz pp pp pp
-6.4403077717034343e+00 1.2880619210125165e+01 -6.4403077717034343e+00
0.0000000000000000e+00 1.1154943116692573e+01 0.0000000000000000e+00
0.0000000000000000e+00 1.5046356078130312e+01 0.0000000000000000e+00
ITEM: ATOMS id type xs ys zs
2 1 0.0858162 0.182012 0.17163
8 1 0.0814851 0.419376 0.167921
37 1 0.249627 0.499697 8.97877e-05
97 2 0.0659792 0.0329896 0.111244
26 1 0.338858 0.169429 0.16749
32 1 0.334267 0.417239 0.166489
56 1 0.58378 0.416673 0.166921
50 1 0.583779 0.167106 0.166921
80 1 0.832581 0.41629 0.16664
74 1 0.833774 0.167621 0.167391
14 1 0.0814855 0.66211 0.167921
20 1 0.0858163 0.903804 0.17163
38 1 0.334661 0.66733 0.166638
43 1 0.249628 0.74993 8.96075e-05
44 1 0.334267 0.917028 0.166489
62 1 0.58457 0.6683 0.166884
68 1 0.58457 0.91627 0.166884
92 1 0.83272 0.91636 0.168703
86 1 0.833774 0.666153 0.167391
39 1 0.248574 0.49914 0.332961
33 1 0.250128 0.250357 0.334771
57 1 0.499724 0.249862 0.33378
81 1 0.748561 0.249106 0.333941
87 1 0.748562 0.499456 0.333941
9 1 0.997555 0.251016 0.336731
15 1 0.998441 0.499221 0.335361
27 1 0.250129 0.999771 0.334771
40 1 0.332134 0.666067 0.499931
45 1 0.248574 0.749434 0.332961
51 1 0.499544 0.99946 0.333317
63 1 0.499544 0.500084 0.333316
69 1 0.498362 0.749181 0.333334
75 1 0.749428 0.999247 0.333624
93 1 0.749428 0.750181 0.333624
3 1 0.99962 0.99981 0.337865
21 1 0.997555 0.746538 0.336731
4 1 0.0821247 0.165667 0.501652
5 1 0.000205031 0.000101899 0.667221
10 1 0.0826646 0.416531 0.501279
41 1 0.249261 0.499747 0.666441
28 1 0.332416 0.166207 0.500829
34 1 0.332432 0.416515 0.500141
35 1 0.248873 0.24974 0.666351
58 1 0.582195 0.416195 0.500421
59 1 0.499333 0.249666 0.666459
65 1 0.498958 0.49923 0.666251
52 1 0.582195 0.165999 0.500421
82 1 0.831821 0.415911 0.500294
83 1 0.748992 0.249588 0.666965
89 1 0.748992 0.499404 0.666965
11 1 0.998708 0.24893 0.667119
17 1 0.99862 0.49931 0.666796
76 1 0.83151 0.166088 0.500712
16 1 0.0826646 0.666134 0.501279
22 1 0.0821244 0.916457 0.501652
29 1 0.248872 0.999132 0.666351
46 1 0.332432 0.915917 0.500141
47 1 0.249261 0.749514 0.666441
53 1 0.498958 0.999729 0.666251
64 1 0.582111 0.666234 0.500017
70 1 0.582111 0.915877 0.500017
71 1 0.499052 0.749526 0.666563
77 1 0.748196 0.999881 0.665657
94 1 0.833376 0.916688 0.501131
95 1 0.748196 0.748315 0.665658
23 1 0.998709 0.749778 0.667119
88 1 0.83151 0.665422 0.500712
6 1 0.0836249 0.167976 0.834242
12 1 0.0825705 0.416585 0.832804
25 1 0.255883 0.000551176 0.996854
30 1 0.333796 0.166898 0.832566
31 1 0.255883 0.255332 0.996853
36 1 0.3333 0.417616 0.832762
55 1 0.49983 0.249915 0.999539
60 1 0.582716 0.416534 0.833471
54 1 0.582716 0.166182 0.833471
79 1 0.749062 0.249155 0.99989
84 1 0.832202 0.416101 0.83338
85 1 0.749062 0.499907 0.99989
7 1 0.999219 0.253342 0.999249
78 1 0.832079 0.165456 0.833531
13 1 0.000198027 0.500099 0.99942
18 1 0.0825707 0.665986 0.832804
24 1 0.0836251 0.915649 0.834243
42 1 0.331918 0.665959 0.832971
48 1 0.3333 0.915685 0.832762
49 1 0.499947 0.998914 0.999933
61 1 0.499948 0.501033 0.999933
66 1 0.58175 0.66554 0.832587
67 1 0.498021 0.74901 0.999294
72 1 0.58175 0.916211 0.832587
73 1 0.748168 0.997921 0.999172
91 1 0.748168 0.750246 0.999173
96 1 0.827774 0.913887 0.829547
1 1 0.987124 0.993562 0.990044
19 1 0.999219 0.745877 0.999249
90 1 0.832079 0.666623 0.833531
ITEM: TIMESTEP
0
ITEM: NUMBER OF ATOMS
97
ITEM: BOX BOUNDS xy xz yz pp pp pp
-6.4403077717034343e+00 1.2880619210125165e+01 -6.4403077717034343e+00
0.0000000000000000e+00 1.1154943116692573e+01 0.0000000000000000e+00
0.0000000000000000e+00 1.5046356078130312e+01 0.0000000000000000e+00
ITEM: ATOMS id type xs ys zs
2 1 0.0905836 0.184945 0.166595
8 1 0.0818449 0.419599 0.167684
37 1 0.249569 0.499956 0.000510918
97 2 0.0272421 0.013621 0.128253
26 1 0.337494 0.168747 0.167071
32 1 0.336728 0.419401 0.166559
56 1 0.584155 0.41717 0.166669
50 1 0.584155 0.166986 0.166669
80 1 0.832831 0.416416 0.166558
74 1 0.834406 0.167725 0.166752
14 1 0.0818453 0.662247 0.167684
20 1 0.0905838 0.905638 0.166595
38 1 0.334562 0.667281 0.166566
43 1 0.249569 0.749612 0.000510738
44 1 0.336728 0.917327 0.166559
62 1 0.584535 0.667957 0.166872
68 1 0.584535 0.916579 0.166872
92 1 0.833705 0.916853 0.166276
86 1 0.834406 0.666681 0.166752
3 1 0.000100384 4.99663e-05 0.340913
39 1 0.248817 0.499384 0.33313
33 1 0.249769 0.250379 0.334404
57 1 0.499948 0.249974 0.333827
81 1 0.748992 0.249217 0.333806
87 1 0.748992 0.499775 0.333806
9 1 0.998852 0.250166 0.335565
15 1 0.998617 0.499309 0.33518
27 1 0.249769 0.999389 0.334404
40 1 0.332183 0.666092 0.499925
45 1 0.248817 0.749433 0.33313
51 1 0.499933 0.999677 0.333511
63 1 0.499933 0.500256 0.33351
69 1 0.498595 0.749297 0.333477
75 1 0.750012 0.998977 0.333368
93 1 0.750013 0.751035 0.333368
21 1 0.998852 0.748685 0.335565
4 1 0.0821924 0.165743 0.500983
5 1 0.00011865 5.87077e-05 0.668139
10 1 0.0827158 0.416429 0.500989
41 1 0.249237 0.499661 0.666543
28 1 0.332639 0.166319 0.500474
34 1 0.332578 0.416715 0.500143
35 1 0.249164 0.249878 0.66639
58 1 0.582334 0.416174 0.500296
59 1 0.499492 0.249746 0.666479
65 1 0.498986 0.49932 0.666319
52 1 0.582333 0.166159 0.500296
82 1 0.83195 0.415975 0.500318
83 1 0.749085 0.249603 0.666935
89 1 0.749085 0.499482 0.666935
11 1 0.998763 0.249055 0.667067
17 1 0.998723 0.499362 0.666812
76 1 0.831742 0.166187 0.50038
16 1 0.0827158 0.666287 0.500989
22 1 0.0821921 0.916449 0.500983
29 1 0.249163 0.999285 0.66639
46 1 0.332578 0.915863 0.500143
47 1 0.249237 0.749577 0.666544
53 1 0.498986 0.999666 0.666319
64 1 0.582276 0.666379 0.500014
70 1 0.582276 0.915898 0.500014
71 1 0.499136 0.749568 0.666551
77 1 0.748359 0.999889 0.665832
94 1 0.833353 0.916677 0.500765
95 1 0.748359 0.74847 0.665833
23 1 0.998764 0.749708 0.667068
88 1 0.831743 0.665555 0.50038
6 1 0.083516 0.167529 0.832959
12 1 0.0828815 0.416721 0.832747
25 1 0.255093 0.000999268 0.997122
30 1 0.33408 0.16704 0.832242
31 1 0.255093 0.254094 0.997122
36 1 0.333374 0.417774 0.832674
55 1 0.500694 0.250347 0.999532
60 1 0.582733 0.416508 0.8334
54 1 0.582733 0.166225 0.8334
79 1 0.74931 0.249302 0.999799
84 1 0.83242 0.41621 0.833396
7 1 0.99961 0.252892 0.999064
78 1 0.832211 0.165784 0.83322
13 1 0.000218116 0.500109 0.999267
18 1 0.0828816 0.666161 0.832747
24 1 0.0835162 0.915987 0.83296
42 1 0.33202 0.66601 0.833121
48 1 0.333374 0.9156 0.832673
49 1 0.500458 0.999131 0.999721
61 1 0.500459 0.501327 0.99972
66 1 0.581987 0.665844 0.83255
67 1 0.498215 0.749107 0.999599
72 1 0.581987 0.916144 0.83255
73 1 0.748934 0.998267 0.998947
91 1 0.748933 0.750667 0.998947
96 1 0.829611 0.914805 0.82993
1 1 0.99209 0.996045 0.993715
19 1 0.99961 0.746718 0.999064
85 1 0.74931 0.500008 0.999799
90 1 0.832212 0.666428 0.83322
ITEM: TIMESTEP
0
ITEM: NUMBER OF ATOMS
97
ITEM: BOX BOUNDS xy xz yz pp pp pp
-6.4403077717034343e+00 1.2880619210125165e+01 -6.4403077717034343e+00
0.0000000000000000e+00 1.1154943116692573e+01 0.0000000000000000e+00
0.0000000000000000e+00 1.5046356078130312e+01 0.0000000000000000e+00
ITEM: ATOMS id type xs ys zs
2 1 0.0940294 0.188059 0.166266
8 1 0.0818668 0.420901 0.166266
26 1 0.335056 0.167528 0.166266
32 1 0.339034 0.420901 0.166266
56 1 0.583754 0.416246 0.166266
50 1 0.583754 0.167508 0.166266
80 1 0.832492 0.416246 0.166266
74 1 0.832472 0.167528 0.166266
14 1 0.0818668 0.660966 0.166266
20 1 0.0940294 0.905971 0.166266
38 1 0.333333 0.666667 0.166266
44 1 0.339034 0.918133 0.166266
62 1 0.579099 0.660966 0.166266
68 1 0.579099 0.918133 0.166266
92 1 0.811941 0.905971 0.166266
1 1 1 1 0.00910172
86 1 0.832472 0.664944 0.166266
97 2 1 1 0.166266
4 1 0.0824033 0.164807 0.498734
9 1 0.000398675 0.250983 0.333899
39 1 0.249983 0.499965 0.33295
33 1 0.250584 0.250983 0.333899
57 1 0.500542 0.250271 0.333463
63 1 0.500315 0.499685 0.33439
51 1 0.500315 0.000629713 0.33439
81 1 0.749729 0.250271 0.333463
87 1 0.749729 0.499458 0.333463
15 1 0.99937 0.499685 0.33439
21 1 0.000398673 0.749416 0.333899
22 1 0.0824033 0.917597 0.498734
27 1 0.250584 0.999601 0.333899
40 1 0.333333 0.666667 0.49924
45 1 0.249983 0.750017 0.33295
69 1 0.500035 0.750017 0.33295
75 1 0.749017 0.999601 0.333899
93 1 0.749017 0.749416 0.333899
94 1 0.835193 0.917597 0.498734
3 1 1 1 0.323431
10 1 0.0837438 0.416646 0.500039
11 1 0.000477889 0.249746 0.666266
28 1 0.333749 0.166874 0.50036
34 1 0.332902 0.416646 0.500039
35 1 0.249268 0.249746 0.666266
58 1 0.583437 0.416563 0.500122
59 1 0.499986 0.249993 0.666266
52 1 0.583437 0.166873 0.500122
82 1 0.833127 0.416563 0.500122
83 1 0.750007 0.249993 0.666266
76 1 0.833126 0.166874 0.50036
16 1 0.0837438 0.667098 0.500039
17 1 6.48476e-05 0.500032 0.666266
23 1 0.000477889 0.750732 0.666266
29 1 0.249268 0.999522 0.666266
41 1 0.250263 0.500527 0.666266
46 1 0.332902 0.916256 0.500039
47 1 0.250263 0.749736 0.666266
53 1 0.499968 0.999935 0.666266
64 1 0.583354 0.667098 0.500039
65 1 0.499968 0.500032 0.666266
70 1 0.583354 0.916256 0.500039
71 1 0.499473 0.749736 0.666266
77 1 0.750254 0.999522 0.666266
95 1 0.750254 0.750732 0.666266
5 1 1 1 0.666266
88 1 0.833126 0.666251 0.50036
89 1 0.750007 0.500014 0.666266
6 1 0.0824033 0.164807 0.833798
7 1 0.000398687 0.250983 0.998633
12 1 0.0837438 0.416646 0.832494
37 1 0.249983 0.499965 0.999583
30 1 0.333749 0.166874 0.832172
31 1 0.250584 0.250983 0.998633
36 1 0.332902 0.416646 0.832494
55 1 0.500542 0.250271 0.999069
60 1 0.583437 0.416563 0.832411
61 1 0.500315 0.499685 0.998143
49 1 0.500315 0.000629661 0.998143
54 1 0.583437 0.166873 0.832411
79 1 0.749729 0.250271 0.999069
84 1 0.833127 0.416563 0.832411
85 1 0.749729 0.499458 0.999069
13 1 0.99937 0.499685 0.998143
78 1 0.833126 0.166874 0.832172
18 1 0.0837438 0.667098 0.832494
19 1 0.000398685 0.749416 0.998633
24 1 0.0824033 0.917597 0.833798
25 1 0.250584 0.999601 0.998633
42 1 0.333333 0.666667 0.833292
43 1 0.249983 0.750017 0.999583
48 1 0.332902 0.916256 0.832494
66 1 0.583354 0.667098 0.832494
67 1 0.500035 0.750017 0.999583
72 1 0.583354 0.916256 0.832494
73 1 0.749017 0.999601 0.998633
91 1 0.749017 0.749416 0.998633
96 1 0.835193 0.917597 0.833798
90 1 0.833126 0.666251 0.832172
