LAMMPS (29 Aug 2024)
Processor partition = 4
Reading data file ...
  triclinic box = (0 0 0) to (12.880619 11.154943 15.046356) with tilt (-6.4403078 0 0)
WARNING: Triclinic box skew is large. LAMMPS will run inefficiently. (src/domain.cpp:221)
  1 by 1 by 1 MPI processor grid
  reading atoms ...
  97 atoms
  read_data CPU = 0.003 seconds
**************** Begin of POD Potentials ****************
species: Hf O 
periodic boundary conditions: 1 1 1
number of environment clusters: 1
number of principal compoments: 2
inner cut-off radius: 1.2
outer cut-off radius: 5.5
bessel polynomial degree: 4
inverse polynomial degree: 10
one-body potential: 1
two-body radial basis functions: 8
three-body radial basis functions: 8
three-body angular degree: 5
four-body radial basis functions: 6
four-body angular degree: 4
five-body radial basis functions: 5
five-body angular degree: 3
six-body radial basis functions: 4
six-body angular degree: 2
seven-body radial basis functions: 0
seven-body angular degree: 0
number of local descriptors per element for one-body potential: 1
number of local descriptors per element for two-body potential: 16
number of local descriptors per element for three-body potential: 144
number of local descriptors per element for four-body potential: 264
number of local descriptors per element for five-body potential: 468
number of local descriptors per element for six-body potential: 387
number of local descriptors per element for seven-body potential: 0
number of local descriptors per element for all potentials: 1280
number of global descriptors: 2560
**************** End of POD Potentials ****************

**************** Begin of Model Coefficients ****************
total number of coefficients for POD potential: 2560
total number of elements for PCA projection matrix: 0
total number of elements for PCA centroids: 0
**************** End of Model Coefficients ****************

Neighbor list info ...
  update: every = 1 steps, delay = 0 steps, check = no
  max neighbors/atom: 2000, page size: 100000
  master list distance cutoff = 7.5
  ghost atom cutoff = 7.5
  binsize = 3.75, bins = 6 3 5
  1 neighbor lists, perpetual/occasional/extra = 1 0 0
  (1) pair pod, perpetual
      attributes: full, newton on
      pair build: full/bin/atomonly
      stencil: full/bin/3d
      bin: standard
Setting up quickmin style minimization ...
  Unit style    : metal
  Current step  : 0
Per MPI rank memory allocation (min/avg/max) = 2.589 | 2.589 | 2.589 Mbytes
   Step          Temp          E_pair         E_mol          TotEng         Press     
         0   0             -711.31651      0             -711.31651      7274.876     
        98   0.0021664084  -712.05217      0             -712.05214      4892.4982    
Loop time of 2.25623 on 1 procs for 98 steps with 97 atoms

90.1% CPU use with 1 MPI tasks x no OpenMP threads

Minimization stats:
  Stopping criterion = force tolerance
  Energy initial, next-to-last, final = 
     -711.316509950205  -712.051945561621  -712.052165917824
  Force two-norm initial, final = 1.091042 0.0095889581
  Force max component initial, final = 0.36621915 0.0052067881
  Final line search alpha, max atom move = 0 0
  Iterations, force evaluations = 98 98

MPI task timing breakdown:
Section |  min time  |  avg time  |  max time  |%varavg| %total
---------------------------------------------------------------
Pair    | 1.612      | 1.612      | 1.612      |   0.0 | 71.45
Neigh   | 0.036239   | 0.036239   | 0.036239   |   0.0 |  1.61
Comm    | 0.0023892  | 0.0023892  | 0.0023892  |   0.0 |  0.11
Output  | 0.0024298  | 0.0024298  | 0.0024298  |   0.0 |  0.11
Modify  | 0.56884    | 0.56884    | 0.56884    |   0.0 | 25.21
Other   |            | 0.03432    |            |       |  1.52

Nlocal:             97 ave          97 max          97 min
Histogram: 1 0 0 0 0 0 0 0 0 0
Nghost:            893 ave         893 max         893 min
Histogram: 1 0 0 0 0 0 0 0 0 0
Neighs:              0 ave           0 max           0 min
Histogram: 1 0 0 0 0 0 0 0 0 0
FullNghs:         7316 ave        7316 max        7316 min
Histogram: 1 0 0 0 0 0 0 0 0 0

Total # of neighbors = 7316
Ave neighs/atom = 75.42268
Neighbor list builds = 99
Dangerous builds not checked
Setting up quickmin style minimization ...
  Unit style    : metal
  Current step  : 98
Per MPI rank memory allocation (min/avg/max) = 3.592 | 3.592 | 3.592 Mbytes
   Step          Temp          E_pair         E_mol          TotEng         Press     
        98   0             -712.05217      0             -712.05217      4892.4849    
       143   0.00044699623 -712.00851      0             -712.00851      4885.175     
Loop time of 0.997852 on 1 procs for 45 steps with 97 atoms

91.2% CPU use with 1 MPI tasks x no OpenMP threads

Minimization stats:
  Stopping criterion = force tolerance
  Energy initial, next-to-last, final = 
     -712.052165917824  -712.008631507698  -712.008511399165
  Force two-norm initial, final = 0.0088153218 0.008631808
  Force max component initial, final = 0.0038559982 0.0072271277
  Final line search alpha, max atom move = 0 0
  Iterations, force evaluations = 45 45

MPI task timing breakdown:
Section |  min time  |  avg time  |  max time  |%varavg| %total
---------------------------------------------------------------
Pair    | 0.72255    | 0.72255    | 0.72255    |   0.0 | 72.41
Neigh   | 0.014713   | 0.014713   | 0.014713   |   0.0 |  1.47
Comm    | 0.00096401 | 0.00096401 | 0.00096401 |   0.0 |  0.10
Output  | 0.00059108 | 0.00059108 | 0.00059108 |   0.0 |  0.06
Modify  | 0.23708    | 0.23708    | 0.23708    |   0.0 | 23.76
Other   |            | 0.02195    |            |       |  2.20

Nlocal:             97 ave          97 max          97 min
Histogram: 1 0 0 0 0 0 0 0 0 0
Nghost:            893 ave         893 max         893 min
Histogram: 1 0 0 0 0 0 0 0 0 0
Neighs:              0 ave           0 max           0 min
Histogram: 1 0 0 0 0 0 0 0 0 0
FullNghs:         7316 ave        7316 max        7316 min
Histogram: 1 0 0 0 0 0 0 0 0 0

Total # of neighbors = 7316
Ave neighs/atom = 75.42268
Neighbor list builds = 46
Dangerous builds not checked

CITE-CITE-CITE-CITE-CITE-CITE-CITE-CITE-CITE-CITE-CITE-CITE-CITE

Your simulation uses code contributions which should be cited:
- Type Label Framework: https://doi.org/10.1021/acs.jpcb.3c08419
The log file lists these citations in BibTeX format.

CITE-CITE-CITE-CITE-CITE-CITE-CITE-CITE-CITE-CITE-CITE-CITE-CITE

Total wall time: 0:00:03
