LAMMPS (29 Aug 2024)
Processor partition = 5
Reading data file ...
  triclinic box = (0 0 0) to (12.880619 11.154943 15.046356) with tilt (-6.4403078 0 0)
WARNING: Triclinic box skew is large. LAMMPS will run inefficiently. (src/domain.cpp:221)
  1 by 1 by 1 MPI processor grid
  reading atoms ...
  97 atoms
  read_data CPU = 0.003 seconds
**************** Begin of POD Potentials ****************
species: Hf O 
periodic boundary conditions: 1 1 1
number of environment clusters: 1
number of principal compoments: 2
inner cut-off radius: 1.2
outer cut-off radius: 5.5
bessel polynomial degree: 4
inverse polynomial degree: 10
one-body potential: 1
two-body radial basis functions: 8
three-body radial basis functions: 8
three-body angular degree: 5
four-body radial basis functions: 6
four-body angular degree: 4
five-body radial basis functions: 5
five-body angular degree: 3
six-body radial basis functions: 4
six-body angular degree: 2
seven-body radial basis functions: 0
seven-body angular degree: 0
number of local descriptors per element for one-body potential: 1
number of local descriptors per element for two-body potential: 16
number of local descriptors per element for three-body potential: 144
number of local descriptors per element for four-body potential: 264
number of local descriptors per element for five-body potential: 468
number of local descriptors per element for six-body potential: 387
number of local descriptors per element for seven-body potential: 0
number of local descriptors per element for all potentials: 1280
number of global descriptors: 2560
**************** End of POD Potentials ****************

**************** Begin of Model Coefficients ****************
total number of coefficients for POD potential: 2560
total number of elements for PCA projection matrix: 0
total number of elements for PCA centroids: 0
**************** End of Model Coefficients ****************

Neighbor list info ...
  update: every = 1 steps, delay = 0 steps, check = no
  max neighbors/atom: 2000, page size: 100000
  master list distance cutoff = 7.5
  ghost atom cutoff = 7.5
  binsize = 3.75, bins = 6 3 5
  1 neighbor lists, perpetual/occasional/extra = 1 0 0
  (1) pair pod, perpetual
      attributes: full, newton on
      pair build: full/bin/atomonly
      stencil: full/bin/3d
      bin: standard
Setting up quickmin style minimization ...
  Unit style    : metal
  Current step  : 0
Per MPI rank memory allocation (min/avg/max) = 2.588 | 2.588 | 2.588 Mbytes
   Step          Temp          E_pair         E_mol          TotEng         Press     
         0   0             -711.9855       0             -711.9855       7598.9337    
        98   0.00029908343 -712.57524      0             -712.57524      5306.5164    
Loop time of 2.25624 on 1 procs for 98 steps with 97 atoms

90.2% CPU use with 1 MPI tasks x no OpenMP threads

Minimization stats:
  Stopping criterion = force tolerance
  Energy initial, next-to-last, final = 
     -711.985500273292  -712.575150140457  -712.575241997731
  Force two-norm initial, final = 1.406535 0.0052296884
  Force max component initial, final = 0.80345121 0.0033520369
  Final line search alpha, max atom move = 0 0
  Iterations, force evaluations = 98 98

MPI task timing breakdown:
Section |  min time  |  avg time  |  max time  |%varavg| %total
---------------------------------------------------------------
Pair    | 1.5586     | 1.5586     | 1.5586     |   0.0 | 69.08
Neigh   | 0.031504   | 0.031504   | 0.031504   |   0.0 |  1.40
Comm    | 0.0022505  | 0.0022505  | 0.0022505  |   0.0 |  0.10
Output  | 0.00072379 | 0.00072379 | 0.00072379 |   0.0 |  0.03
Modify  | 0.62514    | 0.62514    | 0.62514    |   0.0 | 27.71
Other   |            | 0.03803    |            |       |  1.69

Nlocal:             97 ave          97 max          97 min
Histogram: 1 0 0 0 0 0 0 0 0 0
Nghost:            901 ave         901 max         901 min
Histogram: 1 0 0 0 0 0 0 0 0 0
Neighs:              0 ave           0 max           0 min
Histogram: 1 0 0 0 0 0 0 0 0 0
FullNghs:         7292 ave        7292 max        7292 min
Histogram: 1 0 0 0 0 0 0 0 0 0

Total # of neighbors = 7292
Ave neighs/atom = 75.175258
Neighbor list builds = 99
Dangerous builds not checked
Setting up quickmin style minimization ...
  Unit style    : metal
  Current step  : 98
Per MPI rank memory allocation (min/avg/max) = 3.592 | 3.592 | 3.592 Mbytes
   Step          Temp          E_pair         E_mol          TotEng         Press     
        98   0             -712.57524      0             -712.57524      5306.5146    
       143   4.0945082e-05 -712.56474      0             -712.56474      5302.5056    
Loop time of 0.99785 on 1 procs for 45 steps with 97 atoms

91.0% CPU use with 1 MPI tasks x no OpenMP threads

Minimization stats:
  Stopping criterion = force tolerance
  Energy initial, next-to-last, final = 
     -712.575241997731  -712.564767240748  -712.564737269157
  Force two-norm initial, final = 0.0045485911 0.0035656833
  Force max component initial, final = 0.0029183878 0.0017348522
  Final line search alpha, max atom move = 0 0
  Iterations, force evaluations = 45 45

MPI task timing breakdown:
Section |  min time  |  avg time  |  max time  |%varavg| %total
---------------------------------------------------------------
Pair    | 0.71761    | 0.71761    | 0.71761    |   0.0 | 71.92
Neigh   | 0.013629   | 0.013629   | 0.013629   |   0.0 |  1.37
Comm    | 0.00099058 | 0.00099058 | 0.00099058 |   0.0 |  0.10
Output  | 0.00059321 | 0.00059321 | 0.00059321 |   0.0 |  0.06
Modify  | 0.24615    | 0.24615    | 0.24615    |   0.0 | 24.67
Other   |            | 0.01888    |            |       |  1.89

Nlocal:             97 ave          97 max          97 min
Histogram: 1 0 0 0 0 0 0 0 0 0
Nghost:            901 ave         901 max         901 min
Histogram: 1 0 0 0 0 0 0 0 0 0
Neighs:              0 ave           0 max           0 min
Histogram: 1 0 0 0 0 0 0 0 0 0
FullNghs:         7288 ave        7288 max        7288 min
Histogram: 1 0 0 0 0 0 0 0 0 0

Total # of neighbors = 7288
Ave neighs/atom = 75.134021
Neighbor list builds = 46
Dangerous builds not checked

CITE-CITE-CITE-CITE-CITE-CITE-CITE-CITE-CITE-CITE-CITE-CITE-CITE

Your simulation uses code contributions which should be cited:
- Type Label Framework: https://doi.org/10.1021/acs.jpcb.3c08419
The log file lists these citations in BibTeX format.

CITE-CITE-CITE-CITE-CITE-CITE-CITE-CITE-CITE-CITE-CITE-CITE-CITE

Total wall time: 0:00:03
