LAMMPS (27 Jun 2024)
OMP_NUM_THREADS environment is not set. Defaulting to 1 thread. (src/comm.cpp:98)
  using 1 OpenMP thread(s) per MPI task
Reading data file ...
  orthogonal box = (0 0 0) to (67.266653 66.57672 40.643788)
  5 by 2 by 2 MPI processor grid
  reading atoms ...
  8064 atoms
  read_data CPU = 0.047 seconds
**************** Begin of POD Potentials ****************
species: Hf 
periodic boundary conditions: 1 1 1
number of environment clusters: 8
number of principal compoments: 2
inner cut-off radius: 1
outer cut-off radius: 5
cut-off function type: 1
gaussian_exponents: 
polynomial_degrees: 
bessel polynomial degree: 4
inverse polynomial degree: 10
one-body potential: 1
two-body radial basis functions: 8
three-body radial basis functions: 8
three-body angular degree: 6
four-body radial basis functions: 7
four-body angular degree: 5
five-body radial basis functions: 0
five-body angular degree: 0
six-body radial basis functions: 0
six-body angular degree: 0
seven-body radial basis functions: 0
seven-body angular degree: 0
number of local descriptors per element for one-body potential: 1
number of local descriptors per element for two-body potential: 8
number of local descriptors per element for three-body potential: 56
number of local descriptors per element for four-body potential: 112
number of local descriptors per element for five-body potential: 0
number of local descriptors per element for six-body potential: 0
number of local descriptors per element for seven-body potential: 0
number of local descriptors per element for all potentials: 177
number of global descriptors: 1409
**************** End of POD Potentials ****************

**************** Begin of Model Coefficients ****************
total number of coefficients for POD potential: 1409
total number of elements for PCA projection matrix: 352
total number of elements for PCA centroids: 16
**************** End of Model Coefficients ****************


CITE-CITE-CITE-CITE-CITE-CITE-CITE-CITE-CITE-CITE-CITE-CITE-CITE

Your simulation uses code contributions which should be cited:
- Type Label Framework: https://doi.org/10.1021/acs.jpcb.3c08419
The log file lists these citations in BibTeX format.

CITE-CITE-CITE-CITE-CITE-CITE-CITE-CITE-CITE-CITE-CITE-CITE-CITE

Neighbor list info ...
  update: every = 1 steps, delay = 0 steps, check = no
  max neighbors/atom: 2000, page size: 100000
  master list distance cutoff = 7
  ghost atom cutoff = 7
  binsize = 3.5, bins = 20 20 12
  1 neighbor lists, perpetual/occasional/extra = 1 0 0
  (1) pair pod, perpetual
      attributes: full, newton on
      pair build: full/bin/atomonly
      stencil: full/bin/3d
      bin: standard
Setting up Verlet run ...
  Unit style    : metal
  Current step  : 0
  Time step     : 0.001
Per MPI rank memory allocation (min/avg/max) = 2.639 | 2.64 | 2.64 Mbytes
   Step          Temp          TotEng         PotEng         KinEng         Press          Volume    
         0   300           -58170.713     -58483.381      312.66736      27705.687      182018.86    
       100   318.37828     -58216.132     -58547.954      331.82166      9840.5622      182018.86    
       200   238.03666     -58232.095     -58480.183      248.08765      10717.141      182018.86    
       300   341.03399     -58216.705     -58572.139      355.43399      9325.5512      182018.86    
       400   343.2046      -58259.005     -58616.702      357.69626      9293.5861      182018.86    
       500   337.97972     -58294.364     -58646.615      352.25076      8428.7745      182018.86    
       600   298.59837     -58313.297     -58624.504      311.20655      8330.7962      182018.86    
       700   288.40703     -58320.452     -58621.037      300.58489      9029.1775      182018.86    
       800   295.61525     -58323.316     -58631.413      308.09747      8640.1075      182018.86    
       900   299.78794     -58320.865     -58633.312      312.44635      8399.0078      182018.86    
      1000   315.1342      -58313.974     -58642.415      328.4406       8329.8774      182018.86    
      1100   297.37611     -58311.358     -58621.29       309.93268      8841.7021      182018.86    
      1200   302.90084     -58310.091     -58625.782      315.69069      8804.1108      182018.86    
      1300   292.74783     -58315.901     -58621.01       305.10898      8421.6613      182018.86    
      1400   303.10159     -58317.283     -58633.183      315.89992      8609.1849      182018.86    
      1500   290.05047     -58323.171     -58625.468      302.29772      8670.5248      182018.86    
      1600   312.72209     -58314.724     -58640.65       325.92664      8402.1083      182018.86    
      1700   298.09551     -58310.323     -58621.006      310.68246      8651.9901      182018.86    
      1800   305.90074     -58305.853     -58624.671      318.81726      8758.4335      182018.86    
      1900   296.87003     -58314.665     -58624.07       309.40523      8946.4477      182018.86    
      2000   292.44361     -58323.419     -58628.21       304.79191      8474.193       182018.86    
      2100   311.51199     -58320.262     -58644.927      324.66544      8427.0385      182018.86    
      2200   288.74791     -58320.404     -58621.344      300.94016      8570.0049      182018.86    
      2300   307.40875     -58309.23      -58629.619      320.38895      8693.3557      182018.86    
      2400   290.82832     -58310.771     -58613.879      303.10842      8965.1416      182018.86    
      2500   310.39133     -58308.75      -58632.247      323.49746      8737.1747      182018.86    
      2600   299.11026     -58315.898     -58627.638      311.74006      8620.5565      182018.86    
      2700   298.53934     -58321.362     -58632.507      311.14503      8552.7168      182018.86    
      2800   293.79401     -58321.831     -58628.03       306.19933      8707.2733      182018.86    
      2900   304.2233      -58317.076     -58634.145      317.06899      8695.5111      182018.86    
      3000   294.07064     -58315.546     -58622.034      306.48764      8681.5124      182018.86    
      3100   308.837       -58309.538     -58631.416      321.8775       8830.28        182018.86    
      3200   296.50737     -58314.313     -58623.34       309.02726      8724.9883      182018.86    
      3300   303.28088     -58316.498     -58632.585      316.08678      8585.1893      182018.86    
      3400   297.19824     -58320.198     -58629.945      309.74731      8597.5117      182018.86    
      3500   301.24269     -58319.717     -58633.68       313.96253      8602.1636      182018.86    
      3600   300.30619     -58316.309     -58629.296      312.98649      8530.5415      182018.86    
      3700   300.59171     -58310.843     -58624.127      313.28406      8783.5233      182018.86    
      3800   301.40005     -58309.57      -58623.697      314.12653      8729.9598      182018.86    
      3900   306.56878     -58313.097     -58632.61       319.51351      8781.7376      182018.86    
      4000   292.80086     -58321.517     -58626.681      305.16425      8756.6584      182018.86    
      4100   302.66288     -58319.908     -58635.351      315.44268      8655.8313      182018.86    
      4200   296.19328     -58317.136     -58625.836      308.69991      8593.9656      182018.86    
      4300   301.26099     -58312.867     -58626.848      313.9816       8875.6813      182018.86    
      4400   306.00105     -58309.762     -58628.684      318.92181      8925.1574      182018.86    
      4500   296.35314     -58314.845     -58623.711      308.86651      8646.5283      182018.86    
      4600   294.67409     -58318.053     -58625.169      307.11657      8696.9607      182018.86    
      4700   310.23213     -58314.377     -58637.709      323.33154      8799.6143      182018.86    
      4800   293.11144     -58318.213     -58623.7        305.48793      8676.2551      182018.86    
      4900   300.68913     -58316.189     -58629.574      313.38559      8630.3652      182018.86    
      5000   304.01533     -58314.158     -58631.01       316.85224      8757.0004      182018.86    
      5100   299.59872     -58312.949     -58625.198      312.24914      8852.9344      182018.86    
      5200   306.05549     -58309.659     -58628.638      318.97855      8739.7132      182018.86    
      5300   301.83413     -58313.383     -58627.962      314.57894      8765.3532      182018.86    
      5400   301.73101     -58318.263     -58632.734      314.47146      8664.6747      182018.86    
      5500   292.661       -58321.528     -58626.546      305.01847      8814.1254      182018.86    
      5600   299.41722     -58317.873     -58629.933      312.05998      8871.869       182018.86    
      5700   300.27853     -58317.577     -58630.535      312.95766      8674.842       182018.86    
      5800   301.59132     -58316.814     -58631.14       314.32588      8716.2833      182018.86    
      5900   294.48614     -58315.432     -58622.353      306.92069      8747.3977      182018.86    
      6000   308.7575      -58308.409     -58630.204      321.79464      8887.4187      182018.86    
      6100   296.58553     -58312.587     -58621.696      309.10872      8770.1406      182018.86    
      6200   303.70486     -58313.119     -58629.648      316.52866      8734.3248      182018.86    
      6300   295.58867     -58315.826     -58623.896      308.06976      8843.0413      182018.86    
      6400   300.66428     -58316.439     -58629.799      313.3597       8681.8066      182018.86    
      6500   291.88923     -58323.837     -58628.051      304.21412      8762.1817      182018.86    
      6600   305.93224     -58321.972     -58640.822      318.85009      8679.3253      182018.86    
      6700   289.45592     -58321.961     -58623.639      301.67806      8773.3461      182018.86    
      6800   304.34855     -58317.271     -58634.471      317.19953      8652.6768      182018.86    
      6900   301.01624     -58317.642     -58631.369      313.72651      8730.7482      182018.86    
      7000   297.70654     -58316.537     -58626.815      310.27706      8844.3595      182018.86    
      7100   304.43586     -58312.19      -58629.48       317.29052      8834.6179      182018.86    
      7200   298.35049     -58313.135     -58624.084      310.94821      8827.4153      182018.86    
      7300   301.25012     -58315.719     -58629.689      313.97027      8812.8741      182018.86    
      7400   295.35479     -58323.039     -58630.865      307.82601      8736.5674      182018.86    
      7500   300.98352     -58319.593     -58633.285      313.69242      8839.1679      182018.86    
      7600   298.2684      -58318.119     -58628.981      310.86265      8795.1614      182018.86    
      7700   298.53075     -58316.266     -58627.402      311.13608      8715.7434      182018.86    
      7800   301.11338     -58311.989     -58625.817      313.82776      8865.2163      182018.86    
      7900   301.27682     -58312.168     -58626.166      313.9981       8910.048       182018.86    
      8000   300.61021     -58318.876     -58632.179      313.30334      8824.478       182018.86    
      8100   294.31312     -58323.034     -58629.775      306.74036      8665.2971      182018.86    
      8200   299.50455     -58320.223     -58632.374      312.15099      8758.102       182018.86    
      8300   299.51438     -58316.133     -58628.295      312.16124      8803.9728      182018.86    
      8400   302.77648     -58314.6       -58630.161      315.56108      8792.2577      182018.86    
      8500   296.23572     -58315.713     -58624.458      308.74414      8840.0075      182018.86    
      8600   303.25165     -58313.514     -58629.571      316.05631      8872.183       182018.86    
      8700   300.28136     -58315.636     -58628.597      312.96061      8841.4401      182018.86    
      8800   297.11805     -58322.168     -58631.832      309.66372      8642.2583      182018.86    
      8900   295.17356     -58322.421     -58630.058      307.63713      8830.3263      182018.86    
      9000   299.30885     -58317.747     -58629.694      311.94703      8934.4894      182018.86    
      9100   297.10155     -58316.014     -58625.661      309.64653      8867.4299      182018.86    
      9200   301.32102     -58314.78      -58628.824      314.04416      8795.0909      182018.86    
      9300   303.62279     -58315.508     -58631.951      316.44312      8853.4626      182018.86    
      9400   296.00134     -58320.473     -58628.972      308.49986      8764.6969      182018.86    
      9500   295.94091     -58324.694     -58633.131      308.43688      8714.4954      182018.86    
      9600   299.38078     -58322.168     -58634.19       312.022        8684.0291      182018.86    
      9700   300.82093     -58315.806     -58629.329      313.52296      8865.9849      182018.86    
      9800   299.69443     -58313.417     -58625.766      312.34889      8912.6561      182018.86    
      9900   305.01278     -58311.4       -58629.292      317.8918       8886.7122      182018.86    
     10000   296.74653     -58316.56      -58625.837      309.27652      8882.0802      182018.86    
     10100   296.92175     -58323.691     -58633.15       309.45914      8767.7598      182018.86    
     10200   295.77531     -58322.724     -58630.988      308.26429      8778.1989      182018.86    
     10300   299.92614     -58317.407     -58629.998      312.59038      8775.9283      182018.86    
     10400   303.04769     -58314.834     -58630.677      315.84375      8878.2585      182018.86    
     10500   297.23112     -58315.533     -58625.315      309.78157      8933.4892      182018.86    
     10600   304.17915     -58312.993     -58630.016      317.02297      8890.7745      182018.86    
     10700   297.02358     -58314.71      -58624.276      309.56526      8942.816       182018.86    
     10800   302.46929     -58316.262     -58631.503      315.24091      8705.8323      182018.86    
     10900   296.74555     -58320.877     -58630.153      309.2755       8783.4523      182018.86    
     11000   298.6065      -58322.232     -58633.447      311.21502      8820.5149      182018.86    
     11100   297.7213      -58317.707     -58628          310.29245      8877.0899      182018.86    
     11200   304.03549     -58311.879     -58628.752      316.87325      8932.7928      182018.86    
     11300   300.86078     -58313.828     -58627.393      313.56449      8926.1623      182018.86    
     11400   297.52325     -58317.283     -58627.369      310.08603      8928.8126      182018.86    
     11500   301.67619     -58318.881     -58633.295      314.41433      8816.2562      182018.86    
     11600   292.2904      -58324.843     -58629.475      304.63223      8798.5099      182018.86    
     11700   295.50706     -58323.729     -58631.714      307.98471      8876.8885      182018.86    
     11800   303.07803     -58317.188     -58633.063      315.87536      8873.7619      182018.86    
     11900   298.81687     -58315.189     -58626.623      311.43428      8876.2933      182018.86    
     12000   303.75532     -58312.088     -58628.669      316.58125      8858.1701      182018.86    
     12100   298.17089     -58314.337     -58625.098      310.76102      8960.6878      182018.86    
     12200   294.37911     -58321.825     -58628.634      306.80913      8885.1152      182018.86    
     12300   300.49179     -58320.835     -58634.014      313.17992      8830.7711      182018.86    
     12400   301.63694     -58317.859     -58632.233      314.37343      8815.4885      182018.86    
     12500   300.69731     -58315.946     -58629.34       313.39412      8894.5127      182018.86    
     12600   299.20618     -58313.275     -58625.115      311.84003      8858.9679      182018.86    
     12700   302.86189     -58307.662     -58623.312      315.6501       8907.1284      182018.86    
     12800   302.80423     -58310.118     -58625.708      315.59001      8975.1597      182018.86    
     12900   299.88316     -58315.967     -58628.513      312.54559      8835.8053      182018.86    
     13000   299.8054      -58317.521     -58629.986      312.46455      8818.013       182018.86    
     13100   298.13147     -58318.762     -58629.482      310.71994      8800.4472      182018.86    
     13200   299.7304      -58316.403     -58628.79       312.38638      8929.3545      182018.86    
     13300   302.38094     -58310.347     -58625.496      315.14884      8922.195       182018.86    
     13400   306.02157     -58309.071     -58628.014      318.94319      8998.0715      182018.86    
     13500   299.90196     -58315.836     -58628.402      312.56519      8865.6711      182018.86    
     13600   297.68806     -58318.223     -58628.48       310.25781      8911.1399      182018.86    
     13700   300.73857     -58318.033     -58631.47       313.43712      8821.6757      182018.86    
     13800   296.33546     -58318.61      -58627.458      308.84809      8922.9486      182018.86    
     13900   304.02521     -58313.121     -58629.984      316.86254      8913.4385      182018.86    
     14000   306.07527     -58309.594     -58628.593      318.99916      8918.2374      182018.86    
     14100   295.76403     -58315.147     -58623.399      308.25253      8996.7463      182018.86    
     14200   297.94812     -58320.055     -58630.584      310.52885      8880.3075      182018.86    
     14300   300.39439     -58319.549     -58632.628      313.07841      8821.4221      182018.86    
     14400   300.556       -58317.687     -58630.934      313.24684      8817.3844      182018.86    
     14500   299.81259     -58314.026     -58626.498      312.47204      8958.2511      182018.86    
     14600   303.20155     -58309.494     -58625.498      316.0041       8911.3462      182018.86    
     14700   303.08276     -58309.364     -58625.245      315.8803       9037.5819      182018.86    
     14800   304.13974     -58313.957     -58630.939      316.98191      8940.3812      182018.86    
     14900   298.69036     -58320.579     -58631.881      311.30243      8828.8055      182018.86    
     15000   297.22047     -58321.296     -58631.067      309.77047      8802.611       182018.86    
     15100   293.7167      -58317.753     -58623.872      306.11875      8975.5152      182018.86    
     15200   305.49966     -58311.914     -58630.313      318.39925      8906.2832      182018.86    
     15300   301.29776     -58314.291     -58628.311      314.01993      8884.7349      182018.86    
     15400   298.36554     -58316.269     -58627.233      310.96389      8968.0637      182018.86    
     15500   301.11087     -58317.416     -58631.241      313.82514      8974.0359      182018.86    
     15600   298.72671     -58323.623     -58634.963      311.34031      8783.9291      182018.86    
     15700   295.80856     -58325.285     -58633.584      308.29894      8814.9296      182018.86    
     15800   299.00347     -58316.526     -58628.155      311.62875      8862.3224      182018.86    
     15900   303.83195     -58313.242     -58629.903      316.66111      8912.4278      182018.86    
     16000   296.1682      -58315.979     -58624.653      308.67376      8973.8645      182018.86    
     16100   299.12793     -58316.964     -58628.722      311.75847      8994.7368      182018.86    
     16200   304.37894     -58318.557     -58635.788      317.2312       8795.2728      182018.86    
     16300   293.8429      -58324.032     -58630.282      306.25028      8817.6442      182018.86    
     16400   298.51942     -58319.776     -58630.901      311.12427      8884.9835      182018.86    
     16500   301.46918     -58316.705     -58630.904      314.19858      8878.5368      182018.86    
     16600   300.43857     -58316.119     -58629.243      313.12445      8833.5386      182018.86    
     16700   297.47941     -58316.392     -58626.433      310.04034      8919.255       182018.86    
     16800   299.92402     -58314.273     -58626.861      312.58818      8933.5226      182018.86    
     16900   304.05954     -58309.524     -58626.422      316.89832      8969.4838      182018.86    
     17000   303.58483     -58311.147     -58627.55       316.40356      8956.1531      182018.86    
     17100   298.69075     -58318.237     -58629.54       311.30283      8963.5451      182018.86    
     17200   297.28092     -58321.195     -58631.028      309.83348      8855.3043      182018.86    
     17300   299.53417     -58320.132     -58632.314      312.18186      8794.0044      182018.86    
     17400   302.12692     -58316.035     -58630.919      314.8841       8870.1501      182018.86    
     17500   302.62803     -58310.151     -58625.558      315.40636      8921.3963      182018.86    
     17600   302.31252     -58309.845     -58624.922      315.07753      9035.6783      182018.86    
     17700   300.36097     -58314.506     -58627.549      313.04358      8943.6848      182018.86    
     17800   298.43875     -58318.263     -58629.303      311.04019      8819.2816      182018.86    
     17900   302.71837     -58317.896     -58633.397      315.50052      8817.6432      182018.86    
     18000   299.7395      -58315.714     -58628.11       312.39587      8884.2948      182018.86    
     18100   302.45215     -58310.203     -58625.426      315.22305      8892.6527      182018.86    
     18200   301.78275     -58311.66      -58626.185      314.52539      9025.8392      182018.86    
     18300   296.8873      -58319.635     -58629.058      309.42323      8864.2118      182018.86    
     18400   302.17256     -58320.035     -58634.967      314.93166      8865.3602      182018.86    
     18500   297.9548      -58318.747     -58629.282      310.53581      8920.5888      182018.86    
     18600   298.82701     -58314.537     -58625.981      311.44484      9002.3522      182018.86    
     18700   301.19094     -58312.695     -58626.604      313.9086       8975.1241      182018.86    
     18800   297.13223     -58317.008     -58626.687      309.6785       8956.717       182018.86    
     18900   295.57782     -58324.172     -58632.23       308.05846      8819.8281      182018.86    
     19000   303.483       -58321.564     -58637.861      316.29743      8771.8619      182018.86    
     19100   297.31777     -58318.39      -58628.262      309.87188      8917.4853      182018.86    
     19200   301.14776     -58314.48      -58628.344      313.86359      8982.6663      182018.86    
     19300   300.16384     -58314.654     -58627.492      312.83812      8918.9583      182018.86    
     19400   302.99052     -58314.992     -58630.776      315.78415      8869.0224      182018.86    
     19500   299.72941     -58317.818     -58630.203      312.38535      8916.3868      182018.86    
     19600   292.66427     -58325.984     -58631.006      305.02189      8858.8403      182018.86    
     19700   295.88285     -58325.855     -58634.231      308.37637      8763.1944      182018.86    
     19800   300.31433     -58320.419     -58633.414      312.99497      8832.2933      182018.86    
     19900   297.91083     -58317.313     -58627.803      310.48998      8918.3837      182018.86    
     20000   304.63881     -58313.527     -58631.03       317.50205      8944.7425      182018.86    
     20100   298.62871     -58314.934     -58626.173      311.23818      8956.8645      182018.86    
     20200   297.15493     -58318.011     -58627.714      309.70216      9018.5572      182018.86    
     20300   295.68022     -58324.816     -58632.981      308.16518      8808.8129      182018.86    
     20400   299.415       -58323.481     -58635.539      312.05766      8836.7314      182018.86    
     20500   301.14325     -58319.049     -58632.908      313.85888      8863.66        182018.86    
     20600   293.03931     -58316.883     -58622.295      305.41276      9016.1771      182018.86    
     20700   300.39707     -58314.595     -58627.676      313.0812       8905.1072      182018.86    
     20800   303.76157     -58314.665     -58631.253      316.58777      8921.5438      182018.86    
     20900   304.73318     -58315.12      -58632.72       317.6004       8920.841       182018.86    
     21000   294.60441     -58320.233     -58627.277      307.04395      8946.788       182018.86    
     21100   297.10338     -58322.397     -58632.046      309.64843      8890.0068      182018.86    
     21200   299.86414     -58319.855     -58632.38       312.52577      8841.7574      182018.86    
     21300   302.04209     -58312.531     -58627.327      314.79568      8921.0045      182018.86    
     21400   303.52224     -58309.814     -58626.152      316.33833      9076.5837      182018.86    
     21500   299.83002     -58313.898     -58626.388      312.49021      9001.6722      182018.86    
     21600   300.30044     -58316.483     -58629.463      312.98049      8835.2238      182018.86    
     21700   300.72608     -58316.844     -58630.269      313.4241       8888.1754      182018.86    
     21800   297.30663     -58318.063     -58627.923      309.86027      8933.7437      182018.86    
     21900   300.03103     -58320.223     -58632.923      312.69971      8889.8548      182018.86    
     22000   293.67915     -58322.134     -58628.214      306.07962      8885.6805      182018.86    
     22100   301.56723     -58316.992     -58631.292      314.30077      8933.9836      182018.86    
     22200   303.81002     -58313.478     -58630.116      316.63826      8947.1971      182018.86    
     22300   299.61112     -58313.345     -58625.608      312.26207      8961.4424      182018.86    
     22400   297.18093     -58317.68      -58627.41       309.72926      8945.6835      182018.86    
     22500   298.61349     -58324.253     -58635.475      311.22231      8848.8982      182018.86    
     22600   296.81828     -58325.031     -58634.382      309.3513       8824.7524      182018.86    
     22700   299.11823     -58318.442     -58630.191      311.74837      8906.8331      182018.86    
     22800   301.34152     -58315.538     -58629.604      314.06553      8962.1194      182018.86    
     22900   298.47208     -58315.553     -58626.628      311.07493      9003.4227      182018.86    
     23000   300.62086     -58315.213     -58628.528      313.31444      8998.7177      182018.86    
     23100   301.40964     -58318.028     -58632.165      314.13652      8889.5546      182018.86    
     23200   295.60355     -58322.403     -58630.488      308.08528      8861.364       182018.86    
     23300   300.26621     -58319.012     -58631.957      312.94482      8934.2697      182018.86    
     23400   301.95487     -58314.126     -58628.831      314.70477      8907.0007      182018.86    
     23500   304.0103      -58307.812     -58624.659      316.847        8953.9636      182018.86    
     23600   304.64006     -58301.945     -58619.449      317.50335      9169.6178      182018.86    
     23700   306.10095     -58306.259     -58625.285      319.02593      9019.0817      182018.86    
     23800   299.93765     -58311.361     -58623.963      312.60238      8986.8461      182018.86    
     23900   301.13406     -58316.318     -58630.167      313.84931      8935.4615      182018.86    
     24000   298.35932     -58320.93      -58631.887      310.95741      8847.3232      182018.86    
     24100   298.36527     -58320.522     -58631.485      310.96361      8936.8632      182018.86    
     24200   300.85165     -58316.021     -58629.576      313.55497      8891.0914      182018.86    
     24300   303.82916     -58310.374     -58627.032      316.65821      8931.2488      182018.86    
     24400   302.10119     -58309.407     -58624.264      314.85727      9064.2123      182018.86    
     24500   297.93288     -58319.21      -58629.723      310.51296      8860.1533      182018.86    
     24600   299.53388     -58321.255     -58633.437      312.18157      8895.5165      182018.86    
     24700   298.82018     -58320.578     -58632.015      311.43773      8941.099       182018.86    
     24800   300.22714     -58316.314     -58629.218      312.90409      8964.7007      182018.86    
     24900   298.48156     -58312.815     -58623.899      311.08481      8982.2116      182018.86    
     25000   303.70011     -58310.787     -58627.311      316.52371      9027.5915      182018.86    
     25100   301.48506     -58316.055     -58630.27       314.21513      8916.0501      182018.86    
     25200   297.49116     -58321.985     -58632.038      310.05259      8877.1386      182018.86    
     25300   296.92033     -58320.633     -58630.09       309.45766      8878.8686      182018.86    
     25400   299.99245     -58316.004     -58628.663      312.65949      8917.3631      182018.86    
     25500   298.6311      -58313.391     -58624.632      311.24066      9031.9393      182018.86    
     25600   306.54099     -58308.889     -58628.373      319.48455      8973.1756      182018.86    
     25700   301.45508     -58309.289     -58623.472      314.18388      9027.0641      182018.86    
     25800   300.17539     -58316.335     -58629.185      312.85016      8984.4656      182018.86    
     25900   296.59939     -58320.182     -58629.305      309.12316      8888.6414      182018.86    
     26000   299.44287     -58318.529     -58630.616      312.08672      8891.2509      182018.86    
     26100   299.90714     -58316.192     -58628.763      312.57058      8975.3837      182018.86    
     26200   299.96804     -58314.457     -58627.091      312.63405      8978.1288      182018.86    
     26300   303.18607     -58308.679     -58624.667      315.98796      9122.5438      182018.86    
     26400   301.51389     -58310.285     -58624.531      314.24518      9021.5558      182018.86    
     26500   302.95303     -58316.16      -58631.905      315.74508      8833.5546      182018.86    
     26600   297.52275     -58321.463     -58631.549      310.08552      8858.0473      182018.86    
     26700   299.36432     -58319.643     -58631.648      312.00485      8957.0468      182018.86    
     26800   302.65043     -58314.369     -58629.799      315.42971      8979.4552      182018.86    
     26900   299.68229     -58314.67      -58627.007      312.33624      8948.3218      182018.86    
     27000   302.35436     -58315.477     -58630.598      315.12114      8877.8627      182018.86    
     27100   298.51226     -58318.256     -58629.373      311.1168       8935.6969      182018.86    
     27200   298.55691     -58323.46      -58634.623      311.16335      8885.226       182018.86    
     27300   292.10205     -58329.812     -58634.248      304.43592      8754.1378      182018.86    
     27400   295.12709     -58324.64      -58632.228      307.5887       8802.8446      182018.86    
     27500   298.24511     -58319.888     -58630.726      310.83838      8857.455       182018.86    
     27600   301.91401     -58315.567     -58630.229      314.66219      8916.3063      182018.86    
     27700   297.12776     -58313.798     -58623.472      309.67385      9030.8784      182018.86    
     27800   302.72134     -58311.562     -58627.065      315.50361      8953.8541      182018.86    
     27900   295.9352      -58316.852     -58625.283      308.43093      8987.2711      182018.86    
     28000   301.26697     -58320.418     -58634.406      313.98783      8799.707       182018.86    
     28100   299.36975     -58322.264     -58634.274      312.0105       8775.1075      182018.86    
     28200   295.89121     -58320.283     -58628.668      308.38509      8917.4823      182018.86    
     28300   298.27324     -58312.395     -58623.263      310.86769      8964.5875      182018.86    
     28400   303.15398     -58311.239     -58627.194      315.95452      8972.4295      182018.86    
     28500   302.7961      -58314.994     -58630.576      315.58153      8898.43        182018.86    
     28600   296.78936     -58320.083     -58629.404      309.32116      8914.0942      182018.86    
     28700   298.38666     -58319.638     -58630.624      310.9859       8932.8898      182018.86    
     28800   297.87152     -58318.884     -58629.333      310.44901      8909.8647      182018.86    
     28900   300.24653     -58317.243     -58630.167      312.9243       8953.9684      182018.86    
     29000   300.99595     -58316.345     -58630.05       313.70537      8873.1587      182018.86    
     29100   301.29136     -58316.095     -58630.108      314.01325      8915.1374      182018.86    
     29200   297.39056     -58316.888     -58626.836      309.94774      8964.0118      182018.86    
     29300   304.62112     -58314.871     -58632.355      317.48361      8886.6509      182018.86    
     29400   299.39968     -58315.898     -58627.94       312.0417       8983.5958      182018.86    
     29500   298.21003     -58318.12      -58628.922      310.80181      8904.0781      182018.86    
     29600   298.81012     -58319.783     -58631.21       311.42724      8848.7391      182018.86    
     29700   302.20076     -58317.436     -58632.397      314.96105      8915.6098      182018.86    
     29800   298.62642     -58313.601     -58624.837      311.23578      9041.4282      182018.86    
     29900   302.65022     -58309.947     -58625.377      315.42949      9025.2193      182018.86    
     30000   303.61643     -58310.524     -58626.961      316.4365       8976.8312      182018.86    
     30100   298.69924     -58318.777     -58630.089      311.31168      8895.2706      182018.86    
     30200   300.62285     -58320.761     -58634.078      313.31651      8894.1775      182018.86    
     30300   295.9944      -58320.215     -58628.708      308.49263      8883.3137      182018.86    
     30400   303.49548     -58313.746     -58630.057      316.31044      8945.6631      182018.86    
     30500   299.8673      -58312.122     -58624.651      312.52906      9034.6393      182018.86    
     30600   301.43472     -58313.594     -58627.757      314.16266      8887.2751      182018.86    
     30700   301.63789     -58316.518     -58630.892      314.37441      8920.3798      182018.86    
     30800   298.86539     -58317.117     -58628.602      311.48485      8926.9822      182018.86    
     30900   304.76894     -58316.267     -58633.904      317.63767      8888.6202      182018.86    
     31000   296.4167      -58318.832     -58627.765      308.93276      8894.7242      182018.86    
     31100   299.93273     -58315.707     -58628.305      312.59725      8900.2408      182018.86    
     31200   304.71688     -58308.304     -58625.888      317.58341      8989.5684      182018.86    
     31300   302.15056     -58309.774     -58624.682      314.90873      8916.2864      182018.86    
     31400   300.50798     -58315.282     -58628.479      313.19679      8903.7294      182018.86    
     31500   299.79119     -58318.763     -58631.212      312.44974      8969.3709      182018.86    
     31600   301.36125     -58319.097     -58633.183      314.08609      8866.8745      182018.86    
     31700   296.72634     -58318.632     -58627.888      309.25547      8815.7762      182018.86    
     31800   306.08405     -58312.144     -58631.152      319.00831      9020.848       182018.86    
     31900   300.01666     -58312.056     -58624.741      312.68473      9017.1399      182018.86    
     32000   303.06001     -58312.859     -58628.715      315.85659      8987.5799      182018.86    
     32100   300.84824     -58316.575     -58630.126      313.55142      8868.2587      182018.86    
     32200   297.88592     -58318.702     -58629.166      310.46402      8919.3606      182018.86    
     32300   297.95126     -58318.25      -58628.782      310.53212      9025.0241      182018.86    
     32400   299.96182     -58316.181     -58628.809      312.62758      8945.0477      182018.86    
     32500   302.98737     -58310.764     -58626.545      315.78088      8947.9187      182018.86    
     32600   303.05682     -58309.771     -58625.624      315.85325      9027.9817      182018.86    
     32700   300.34125     -58314.241     -58627.264      313.02302      8934.2553      182018.86    
     32800   300.49987     -58319.93      -58633.118      313.18834      8982.041       182018.86    
     32900   294.03589     -58321.396     -58627.848      306.45143      8905.2501      182018.86    
     33000   303.93887     -58317.249     -58634.021      316.77255      8861.5389      182018.86    
     33100   299.62285     -58316.572     -58628.847      312.27429      8932.5483      182018.86    
     33200   299.54233     -58314.099     -58626.289      312.19037      8960.4994      182018.86    
     33300   303.68        -58308.858     -58625.36       316.50275      9137.3723      182018.86    
     33400   306.65387     -58305.613     -58625.215      319.6022       9080.4377      182018.86    
     33500   301.09118     -58312.244     -58626.049      313.80462      8934.946       182018.86    
     33600   305.07283     -58316.71      -58634.664      317.9544       8924.0925      182018.86    
     33700   295.93662     -58320.992     -58629.424      308.43241      8867.0374      182018.86    
     33800   296.03084     -58320.051     -58628.582      308.53061      8922.7358      182018.86    
     33900   301.11103     -58314.126     -58627.951      313.82531      9020.296       182018.86    
     34000   302.91376     -58311.528     -58627.232      315.70416      8990.8479      182018.86    
     34100   301.83577     -58312.914     -58627.494      314.58065      8986.6329      182018.86    
     34200   300.02896     -58315.608     -58628.305      312.69755      8923.5898      182018.86    
     34300   300.744       -58318.342     -58631.785      313.44278      8876.3229      182018.86    
     34400   298.10294     -58319.536     -58630.226      310.69021      8861.0218      182018.86    
     34500   301.54138     -58314.369     -58628.643      314.27383      8936.7907      182018.86    
     34600   301.10011     -58307.275     -58621.089      313.81393      9061.4958      182018.86    
     34700   304.41306     -58308.928     -58626.194      317.26676      8937.3506      182018.86    
     34800   301.9787      -58314.956     -58629.685      314.72961      8902.2181      182018.86    
     34900   295.83323     -58318.219     -58626.543      308.32466      8972.4279      182018.86    
     35000   300.76239     -58317.151     -58630.613      313.46194      8975.4488      182018.86    
     35100   300.17962     -58317.691     -58630.546      312.85457      8838.4279      182018.86    
     35200   296.58244     -58321.188     -58630.293      309.1055       8879.6224      182018.86    
     35300   301.51926     -58319.495     -58633.746      314.25078      8846.3851      182018.86    
     35400   298.26283     -58315.226     -58626.083      310.85684      8970.704       182018.86    
     35500   305.21755     -58310.721     -58628.827      318.10523      9020.6289      182018.86    
     35600   303.30026     -58312.491     -58628.598      316.10698      8971.171       182018.86    
     35700   299.0527      -58317.894     -58629.575      311.68007      8972.0675      182018.86    
     35800   295.88472     -58323.207     -58631.586      308.37832      8988.3067      182018.86    
     35900   297.70613     -58321.542     -58631.819      310.27664      8864.2127      182018.86    
     36000   300.899       -58311.886     -58625.491      313.60433      8976.8932      182018.86    
     36100   298.99086     -58311.872     -58623.487      311.61562      9015.1921      182018.86    
     36200   300.81743     -58315.357     -58628.876      313.51931      9056.6053      182018.86    
     36300   298.93343     -58319.538     -58631.094      311.55576      8940.6014      182018.86    
     36400   296.71877     -58320.47      -58629.718      309.24758      8894.2893      182018.86    
     36500   298.58585     -58316.15      -58627.343      311.1935       9048.5036      182018.86    
     36600   301.509       -58311.108     -58625.348      314.24008      8943.9451      182018.86    
     36700   305.47003     -58311.886     -58630.255      318.36836      8950.8556      182018.86    
     36800   299.01498     -58315.149     -58626.79       311.64076      8949.3         182018.86    
     36900   296.23472     -58316.66      -58625.403      308.7431       8941.1325      182018.86    
     37000   298.81431     -58317.329     -58628.761      311.43161      8945.8268      182018.86    
     37100   301.76375     -58317.165     -58631.67       314.50559      8886.4983      182018.86    
     37200   301.3078      -58316.248     -58630.278      314.03039      8820.0111      182018.86    
     37300   296.45437     -58315.763     -58624.735      308.97202      8962.4827      182018.86    
     37400   302.70802     -58312.502     -58627.992      315.48973      8988.9078      182018.86    
     37500   303.8964      -58311.528     -58628.257      316.72829      8944.0884      182018.86    
     37600   299.06928     -58316.906     -58628.604      311.69735      8885.1526      182018.86    
     37700   300.38657     -58320.378     -58633.449      313.07025      8886.5967      182018.86    
     37800   299.91589     -58320.408     -58632.988      312.5797       8862.088       182018.86    
     37900   295.61059     -58318.263     -58626.356      308.09261      8914.1579      182018.86    
     38000   303.29063     -58309.449     -58625.546      316.09694      9029.6094      182018.86    
     38100   301.47105     -58311.24      -58625.441      314.20053      9022.6535      182018.86    
     38200   301.16918     -58315.633     -58629.518      313.88592      8941.8042      182018.86    
     38300   300.19012     -58319.928     -58632.794      312.86552      8815.4189      182018.86    
     38400   299.44809     -58320.979     -58633.071      312.09216      8975.6276      182018.86    
     38500   297.45082     -58319.208     -58629.219      310.01054      8955.2209      182018.86    
     38600   299.88834     -58316.647     -58629.198      312.55099      8912.1486      182018.86    
     38700   301.67396     -58315.287     -58629.699      314.41201      8979.2396      182018.86    
     38800   300.86184     -58315.386     -58628.951      313.5656       8983.8155      182018.86    
     38900   301.06568     -58317.709     -58631.487      313.77804      8907.6236      182018.86    
     39000   296.17166     -58322.324     -58631.001      308.67737      8911.9769      182018.86    
     39100   297.36788     -58320.39      -58630.314      309.9241       8925.9083      182018.86    
     39200   301.17364     -58313.195     -58627.085      313.89056      8991.8123      182018.86    
     39300   300.44543     -58312.254     -58625.386      313.1316       8998.6914      182018.86    
     39400   300.62574     -58315.399     -58628.718      313.31952      8915.59        182018.86    
     39500   300.04364     -58317.994     -58630.707      312.71284      8844.978       182018.86    
     39600   301.7573      -58317.864     -58632.363      314.49887      8900.0796      182018.86    
     39700   296.68685     -58318.421     -58627.635      309.21432      8940.6404      182018.86    
     39800   302.64402     -58315.62      -58631.043      315.42302      8888.593       182018.86    
     39900   297.95969     -58316.409     -58626.95       310.54091      8925.2111      182018.86    
     40000   301.10135     -58315.601     -58629.416      313.81522      8861.5215      182018.86    
     40100   300.00557     -58316.038     -58628.711      312.67317      8930.2846      182018.86    
     40200   298.34414     -58317.288     -58628.23       310.94158      8897.4211      182018.86    
     40300   299.20683     -58318.857     -58630.698      311.84071      8906.186       182018.86    
     40400   295.62415     -58321.695     -58629.802      308.10675      8905.2619      182018.86    
     40500   303.18507     -58318.394     -58634.381      315.98692      8891.5843      182018.86    
     40600   294.74818     -58315.114     -58622.308      307.19379      9012.8324      182018.86    
     40700   305.31972     -58309.48      -58627.692      318.21171      8965.8291      182018.86    
     40800   304.06206     -58312.14      -58629.041      316.90094      8893.092       182018.86    
     40900   301.32685     -58315.096     -58629.146      314.05024      8934.9242      182018.86    
     41000   296.95502     -58317.499     -58626.993      309.49381      8980.7371      182018.86    
     41100   301.30883     -58317.665     -58631.696      314.03146      8906.852       182018.86    
     41200   302.31371     -58316.372     -58631.451      315.07877      8956.0238      182018.86    
     41300   298.91146     -58309.854     -58621.387      311.53286      9118.3905      182018.86    
     41400   307.05847     -58307.581     -58627.604      320.02387      8986.65        182018.86    
     41500   301.08765     -58314.125     -58627.926      313.80094      8941.0006      182018.86    
     41600   301.39356     -58315.275     -58629.395      314.11977      8885.5286      182018.86    
     41700   299.52012     -58317.329     -58629.497      312.16722      8930.9423      182018.86    
     41800   296.55909     -58320.395     -58629.476      309.08117      8878.0821      182018.86    
     41900   301.54649     -58319.12      -58633.399      314.27916      8866.7998      182018.86    
     42000   300.5602      -58313.502     -58626.753      313.25122      8930.98        182018.86    
     42100   304.76808     -58310.117     -58627.754      317.63677      9022.0545      182018.86    
     42200   299.7139      -58313.654     -58626.023      312.36918      8931.2747      182018.86    
     42300   299.2783      -58317.9       -58629.815      311.91519      8920.2644      182018.86    
     42400   299.03677     -58322.166     -58633.829      311.66347      8866.1571      182018.86    
     42500   292.93421     -58324.343     -58629.647      305.30323      8906.5067      182018.86    
     42600   303.23561     -58314.748     -58630.787      316.0396       8964.3812      182018.86    
     42700   301.94826     -58312.709     -58627.406      314.69789      8957.1196      182018.86    
     42800   302.17638     -58313.332     -58628.267      314.93564      8981.0028      182018.86    
     42900   299.29186     -58317.569     -58629.498      311.92932      8890.4826      182018.86    
     43000   296.95776     -58320.447     -58629.943      309.49667      8944.4489      182018.86    
     43100   298.99668     -58319.686     -58631.308      311.62168      8921.7392      182018.86    
     43200   302.75222     -58315.623     -58631.158      315.5358       8916.2259      182018.86    
     43300   302.85095     -58310.082     -58625.721      315.63869      9048.371       182018.86    
     43400   303.3704      -58310.641     -58626.821      316.18008      8955.697       182018.86    
     43500   300.24121     -58315.509     -58628.428      312.91876      8992.5587      182018.86    
     43600   297.31654     -58318.737     -58628.607      309.87059      8946.481       182018.86    
     43700   304.7927      -58317.738     -58635.4        317.66244      8823.4443      182018.86    
     43800   298.70029     -58318.03      -58629.343      311.31278      8950.3654      182018.86    
     43900   297.64442     -58315.751     -58625.963      310.21232      8959.7788      182018.86    
     44000   305.77462     -58309.295     -58627.981      318.68582      8972.5612      182018.86    
     44100   303.56817     -58307.023     -58623.409      316.38619      9054.7214      182018.86    
     44200   298.19171     -58313.376     -58624.159      310.78272      8953.3099      182018.86    
     44300   305.5172      -58316.474     -58634.891      318.41752      8936.1675      182018.86    
     44400   296.05995     -58320.921     -58629.482      308.56095      8946.7439      182018.86    
     44500   297.70968     -58320.836     -58631.116      310.28034      8823.8927      182018.86    
     44600   302.01567     -58315.257     -58630.025      314.76814      8956.2184      182018.86    
     44700   301.58974     -58312.091     -58626.415      314.32423      8977.4336      182018.86    
     44800   303.55324     -58313.07      -58629.441      316.37064      8977.6431      182018.86    
     44900   298.30983     -58315.871     -58626.777      310.90583      8977.8514      182018.86    
     45000   299.18748     -58317.324     -58629.144      311.82053      8904.0221      182018.86    
     45100   300.94634     -58316.591     -58630.245      313.65366      8896.2017      182018.86    
     45200   299.28842     -58315.536     -58627.461      311.92574      8879.2152      182018.86    
     45300   302.26937     -58313.618     -58628.651      315.03255      8981.1594      182018.86    
     45400   302.87385     -58309.582     -58625.244      315.66256      9058.0734      182018.86    
     45500   300.66241     -58310.587     -58623.945      313.35774      9062.9334      182018.86    
     45600   299.94997     -58316.247     -58628.862      312.61522      8963.3383      182018.86    
     45700   300.94061     -58319.524     -58633.171      313.6477       8973.0084      182018.86    
     45800   300.14226     -58320.252     -58633.067      312.81563      8878.0688      182018.86    
     45900   299.7196      -58316.604     -58628.979      312.37512      8913.9607      182018.86    
     46000   299.34509     -58309.877     -58621.861      311.98481      9119.8272      182018.86    
     46100   301.49786     -58310.662     -58624.891      314.22847      9026.5044      182018.86    
     46200   302.83119     -58314.61      -58630.228      315.6181       9009.2931      182018.86    
     46300   300.49702     -58317.634     -58630.819      313.18537      8914.1996      182018.86    
     46400   298.01633     -58318.261     -58628.861      310.59994      8919.8561      182018.86    
     46500   300.5283      -58317.143     -58630.361      313.21797      8951.2853      182018.86    
     46600   298.2582      -58316.967     -58627.819      310.85202      8915.8747      182018.86    
     46700   301.73876     -58313.996     -58628.475      314.47954      8939.9729      182018.86    
     46800   302.22863     -58311.41      -58626.401      314.9901       9000.9365      182018.86    
     46900   299.69464     -58311.652     -58624.001      312.34912      9056.2871      182018.86    
     47000   300.98851     -58316.401     -58630.099      313.69761      9001.9779      182018.86    
     47100   297.07983     -58321.233     -58630.857      309.62389      8899.8371      182018.86    
     47200   301.58558     -58318.443     -58632.763      314.3199       8888.6115      182018.86    
     47300   297.31708     -58316.51      -58626.381      309.87116      8992.6274      182018.86    
     47400   303.75762     -58313.361     -58629.944      316.58365      9005.9772      182018.86    
     47500   303.21668     -58310.201     -58626.221      316.01987      9094.083       182018.86    
     47600   301.84198     -58308.188     -58622.775      314.58712      9108.671       182018.86    
     47700   297.39499     -58313.864     -58623.817      309.95236      9090.1094      182018.86    
     47800   302.18049     -58317.697     -58632.637      314.93993      8989.2861      182018.86    
     47900   298.44197     -58320.543     -58631.586      311.04355      8837.5207      182018.86    
     48000   301.02256     -58318.898     -58632.631      313.73311      9004.3831      182018.86    
     48100   301.57999     -58313.309     -58627.623      314.31407      9024.9706      182018.86    
     48200   303.92029     -58307.071     -58623.824      316.75319      9120.7449      182018.86    
     48300   300.45073     -58310.999     -58624.136      313.13713      8972.2886      182018.86    
     48400   305.54015     -58312.349     -58630.791      318.44144      8975.2291      182018.86    
     48500   297.34762     -58317.817     -58627.72       309.90299      8958.8587      182018.86    
     48600   301.17249     -58318.41      -58632.299      313.88936      8876.5523      182018.86    
     48700   301.93343     -58317.239     -58631.922      314.68243      8986.6928      182018.86    
     48800   297.27627     -58317.13      -58626.959      309.82863      9067.9097      182018.86    
     48900   299.34921     -58315.694     -58627.683      311.9891       8925.1577      182018.86    
     49000   301.27573     -58313.318     -58627.315      313.99696      9025.6034      182018.86    
     49100   306.72563     -58311.769     -58631.446      319.67698      8958.7562      182018.86    
     49200   296.86693     -58317.378     -58626.78       309.402        8985.545       182018.86    
     49300   298.94944     -58319.247     -58630.819      311.57244      8856.6893      182018.86    
     49400   296.74608     -58319.331     -58628.607      309.27605      8896.082       182018.86    
     49500   304.71614     -58312.303     -58629.886      317.58264      9034.2041      182018.86    
     49600   304.32452     -58309.789     -58626.963      317.17449      8917.5419      182018.86    
     49700   301.44651     -58313.425     -58627.6        314.17495      8953.185       182018.86    
     49800   295.99575     -58317.65      -58626.144      308.49403      8938.2573      182018.86    
     49900   301.52562     -58318.151     -58632.408      314.25741      8931.8768      182018.86    
     50000   300.51434     -58317.219     -58630.423      313.20343      8977.44        182018.86    
     50100   300.26979     -58315.716     -58628.665      312.94855      8925.2659      182018.86    
     50200   298.34247     -58315.932     -58626.872      310.93984      8962.9076      182018.86    
     50300   300.5567      -58316.001     -58629.249      313.24757      8896.1621      182018.86    
     50400   299.59416     -58319.489     -58631.734      312.24439      8891.9647      182018.86    
     50500   296.05336     -58321.554     -58630.108      308.55408      8876.1971      182018.86    
     50600   298.3056      -58319.288     -58630.19       310.90142      8931.0891      182018.86    
     50700   303.11218     -58314.278     -58630.189      315.91095      8926.046       182018.86    
     50800   302.7796      -58311.589     -58627.153      315.56433      8945.6904      182018.86    
     50900   299.24202     -58314.52      -58626.398      311.87738      9038.4789      182018.86    
     51000   297.78057     -58321.573     -58631.927      310.35422      8936.5421      182018.86    
     51100   296.89399     -58323.405     -58632.835      309.43021      8923.0709      182018.86    
     51200   300.5582      -58320.388     -58633.637      313.24914      8892.858       182018.86    
     51300   298.06524     -58317.5       -58628.151      310.65091      8884.334       182018.86    
     51400   302.33148     -58314.504     -58629.601      315.09729      8914.5026      182018.86    
     51500   299.1355      -58315.625     -58627.391      311.76636      8976.1363      182018.86    
     51600   296.43171     -58320.548     -58629.496      308.9484       8921.7966      182018.86    
     51700   298.41397     -58324.303     -58635.317      311.01437      8835.517       182018.86    
     51800   299.3732      -58322.649     -58634.663      312.0141       8800.1565      182018.86    
     51900   297.40885     -58314.865     -58624.831      309.96681      9028.8281      182018.86    
     52000   302.64546     -58312.977     -58628.401      315.42453      9022.2469      182018.86    
     52100   298.73413     -58315.711     -58627.059      311.34805      8883.8957      182018.86    
     52200   302.37615     -58317.621     -58632.764      315.14385      8915.7539      182018.86    
     52300   296.3016      -58323.599     -58632.412      308.8128       8832.9242      182018.86    
     52400   295.2407      -58323.741     -58631.448      307.70711      8853.1623      182018.86    
     52500   299.51307     -58318.063     -58630.223      312.15988      8860.6092      182018.86    
     52600   303.33598     -58315.367     -58631.511      316.14421      8911.6325      182018.86    
     52700   297.76408     -58316.709     -58627.046      310.33704      8898.4025      182018.86    
     52800   305.04352     -58315.856     -58633.78       317.92385      8827.9675      182018.86    
     52900   295.65646     -58318.376     -58626.517      308.14042      8940.5771      182018.86    
     53000   294.89454     -58320.817     -58628.163      307.34633      8964.4794      182018.86    
     53100   302.49875     -58318.544     -58633.816      315.27162      8913.5564      182018.86    
     53200   300.31089     -58314.505     -58627.496      312.99138      9008.5776      182018.86    
     53300   304.36684     -58310.588     -58627.807      317.21859      8972.404       182018.86    
     53400   296.55248     -58314.929     -58624.003      309.07427      8977.7689      182018.86    
     53500   298.78611     -58320.727     -58632.129      311.40222      8918.9697      182018.86    
     53600   299.65986     -58321.151     -58633.464      312.31286      8815.293       182018.86    
     53700   301.0925      -58318.101     -58631.907      313.80599      8934.182       182018.86    
     53800   299.04749     -58316.598     -58628.272      311.67464      8922.007       182018.86    
     53900   298.99372     -58315.426     -58627.045      311.6186       9002.0816      182018.86    
     54000   302.21846     -58312.083     -58627.063      314.9795       9028.5142      182018.86    
     54100   303.96735     -58309.28      -58626.082      316.80223      9046.7818      182018.86    
     54200   303.35608     -58311.497     -58627.662      316.16516      8958.1463      182018.86    
     54300   297.55761     -58317.758     -58627.879      310.12185      8844.9149      182018.86    
     54400   301.40202     -58318.398     -58632.526      314.12858      8825.3482      182018.86    
     54500   295.25526     -58320.616     -58628.338      307.72228      8852.9709      182018.86    
     54600   300.65866     -58316.986     -58630.34       313.35384      8891.8713      182018.86    
     54700   302.61974     -58311.336     -58626.733      315.39772      9001.9686      182018.86    
     54800   304.92865     -58311.376     -58629.181      317.80413      8921.364       182018.86    
     54900   300.38832     -58316.835     -58629.907      313.07208      8920.9602      182018.86    
     55000   297.00658     -58320.563     -58630.11       309.54755      8876.957       182018.86    
     55100   298.35155     -58319.087     -58630.036      310.94931      8934.7521      182018.86    
     55200   296.98026     -58317.426     -58626.946      309.52012      8893.8646      182018.86    
     55300   304.0282      -58313.84      -58630.705      316.86565      8916.404       182018.86    
     55400   303.6907      -58310.077     -58626.591      316.51391      9096.8683      182018.86    
     55500   300.69235     -58307.917     -58621.306      313.38895      9096.3825      182018.86    
     55600   299.72111     -58314.006     -58626.383      312.3767       8933.7374      182018.86    
     55700   300.86431     -58318.279     -58631.847      313.56817      8913.039       182018.86    
     55800   299.05929     -58319.645     -58631.332      311.68694      8895.5357      182018.86    
     55900   297.9455      -58318.765     -58629.291      310.52612      8907.4841      182018.86    
     56000   305.66702     -58313.211     -58631.785      318.57367      8941.7666      182018.86    
     56100   299.46544     -58312.385     -58624.495      312.11023      9086.6486      182018.86    
     56200   297.634       -58315.661     -58625.863      310.20146      8954.0688      182018.86    
     56300   302.24999     -58321.557     -58636.569      315.01236      8863.7895      182018.86    
     56400   293.17823     -58324.068     -58629.625      305.55755      8903.2383      182018.86    
     56500   300.27489     -58319.053     -58632.006      312.95387      8906.7023      182018.86    
     56600   302.69435     -58314.874     -58630.349      315.47548      8899.0471      182018.86    
     56700   296.56421     -58313.92      -58623.006      309.0865       8970.7213      182018.86    
     56800   302.53456     -58314.141     -58629.45       315.30894      8996.9072      182018.86    
     56900   302.00544     -58316.741     -58631.499      314.75748      8933.475       182018.86    
     57000   300.21235     -58318.11      -58630.999      312.88868      8884.3628      182018.86    
     57100   299.06259     -58317.666     -58629.357      311.69037      8985.5534      182018.86    
     57200   300.26231     -58316.737     -58629.677      312.94076      8934.8665      182018.86    
     57300   298.31854     -58316.593     -58627.508      310.91491      8920.5689      182018.86    
     57400   302.14584     -58315.1       -58630.003      314.90381      8992.8757      182018.86    
     57500   298.59586     -58316.671     -58627.875      311.20393      8927.0364      182018.86    
     57600   300.28779     -58316.308     -58629.275      312.96731      8900.1625      182018.86    
     57700   302.08641     -58315.703     -58630.545      314.84187      8889.1058      182018.86    
     57800   298.48256     -58316.18      -58627.266      311.08585      8962.4747      182018.86    
     57900   300.63046     -58315.523     -58628.847      313.32445      8907.8303      182018.86    
     58000   303.58938     -58317.091     -58633.499      316.40831      8808.454       182018.86    
     58100   298.10935     -58320.559     -58631.256      310.69688      8872.698       182018.86    
     58200   299.00474     -58321.261     -58632.891      311.63008      8885.7924      182018.86    
     58300   300.16245     -58316.746     -58629.583      312.83667      9029.6127      182018.86    
     58400   297.03821     -58311.843     -58621.424      309.58052      8988.9841      182018.86    
     58500   305.89406     -58310.349     -58629.16       318.8103       9037.949       182018.86    
     58600   303.8483      -58313.525     -58630.203      316.67815      8944.9129      182018.86    
     58700   300.041       -58315.918     -58628.628      312.7101       8927.5887      182018.86    
     58800   297.41176     -58317.511     -58627.481      309.96983      8994.8044      182018.86    
     58900   299.60952     -58317.406     -58629.666      312.2604       8991.7181      182018.86    
     59000   300.31975     -58315.371     -58628.372      313.00062      8903.2274      182018.86    
     59100   302.04152     -58309.586     -58624.381      314.79509      9127.3724      182018.86    
     59200   302.47625     -58310.598     -58625.846      315.24818      9008.1892      182018.86    
     59300   299.04517     -58315.797     -58627.469      311.67222      8953.4686      182018.86    
     59400   299.6534      -58317.866     -58630.172      312.30613      8949.1622      182018.86    
     59500   299.23127     -58318.418     -58630.284      311.86618      8964.4271      182018.86    
     59600   299.63149     -58318.351     -58630.635      312.2833       8935.6069      182018.86    
     59700   300.9657      -58316.372     -58630.046      313.67384      8924.8728      182018.86    
     59800   296.77665     -58316.388     -58625.696      309.30791      9018.4975      182018.86    
     59900   302.89922     -58315.183     -58630.872      315.68901      8908.5458      182018.86    
     60000   301.14175     -58315.752     -58629.609      313.85732      8965.7942      182018.86    
     60100   296.44486     -58318.598     -58627.56       308.96211      8914.6183      182018.86    
     60200   297.58278     -58321.651     -58631.8        310.14808      8923.5642      182018.86    
     60300   297.50528     -58323.858     -58633.926      310.0673       8833.384       182018.86    
     60400   294.60436     -58321.686     -58628.73       307.0439       8890.7104      182018.86    
     60500   301.08137     -58314.582     -58628.376      313.7944       9051.3686      182018.86    
     60600   298.82548     -58314.361     -58625.805      311.44325      8953.7543      182018.86    
     60700   301.90766     -58315.493     -58630.148      314.65557      8894.9419      182018.86    
     60800   296.14208     -58321.212     -58629.859      308.64654      8896.3372      182018.86    
     60900   294.18704     -58323.568     -58630.177      306.60896      8834.7161      182018.86    
     61000   299.85858     -58318.746     -58631.266      312.51997      8969.9582      182018.86    
     61100   302.52769     -58315.96      -58631.262      315.30178      8877.0631      182018.86    
     61200   299.17239     -58316.624     -58628.429      311.80481      8826.4703      182018.86    
     61300   298.88989     -58316.922     -58628.433      311.51038      8995.7868      182018.86    
     61400   298.4644      -58316.313     -58627.38       311.06692      8983.5855      182018.86    
     61500   301.47668     -58314.06      -58628.267      314.20639      8980.8541      182018.86    
     61600   303.28814     -58313.093     -58629.187      316.09434      8882.2579      182018.86    
     61700   301.48898     -58315.03      -58629.249      314.21922      8897.7493      182018.86    
     61800   296.04007     -58319.935     -58628.475      308.54023      8957.2888      182018.86    
     61900   296.65037     -58321.731     -58630.907      309.1763       8918.068       182018.86    
     62000   298.75314     -58318.084     -58629.452      311.36786      8883.8281      182018.86    
     62100   305.52059     -58311.268     -58629.689      318.42106      8909.1883      182018.86    
     62200   299.96337     -58313.017     -58625.646      312.62919      9060.9827      182018.86    
     62300   299.68473     -58316.985     -58629.324      312.33878      8965.2637      182018.86    
     62400   298.53159     -58320.862     -58631.999      311.13696      8841.3599      182018.86    
     62500   298.85152     -58319.574     -58631.045      311.47039      8921.8503      182018.86    
     62600   299.50699     -58318.092     -58630.246      312.15354      8879.3007      182018.86    
     62700   302.17854     -58315.997     -58630.935      314.93789      8951.5786      182018.86    
     62800   297.31488     -58317.001     -58626.87       309.86887      8999.3835      182018.86    
     62900   297.48655     -58318.747     -58628.795      310.04778      8957.3924      182018.86    
     63000   302.9391      -58318.873     -58634.604      315.73057      8822.9197      182018.86    
     63100   299.16485     -58318.357     -58630.154      311.79695      8953.143       182018.86    
     63200   300.3053      -58315.609     -58628.594      312.98555      8935.0353      182018.86    
     63300   301.54652     -58311.31      -58625.589      314.27919      9085.4507      182018.86    
     63400   299.99571     -58311.381     -58624.044      312.66289      8928.1218      182018.86    
     63500   301.22787     -58315.983     -58629.93       313.94708      8936.2791      182018.86    
     63600   299.22656     -58321.168     -58633.029      311.86127      8818.7041      182018.86    
     63700   296.80721     -58322.691     -58632.031      309.33976      8926.6517      182018.86    
     63800   297.70001     -58320.984     -58631.255      310.27026      8909.4456      182018.86    
     63900   300.47209     -58316.383     -58629.542      313.15939      8906.8844      182018.86    
     64000   301.88237     -58312.423     -58627.052      314.62922      9000.7564      182018.86    
     64100   301.79688     -58312.813     -58627.353      314.54012      9002.7328      182018.86    
     64200   299.51578     -58318.45      -58630.613      312.16269      8922.8451      182018.86    
     64300   296.86259     -58322.434     -58631.832      309.39748      8846.9705      182018.86    
     64400   299.33024     -58320.828     -58632.797      311.96932      8847.3702      182018.86    
     64500   297.66734     -58318.612     -58628.849      310.23621      8889.8327      182018.86    
     64600   299.9469      -58316.581     -58629.193      312.61203      8951.0106      182018.86    
     64700   301.92216     -58315.861     -58630.532      314.67069      8919.402       182018.86    
     64800   301.6417      -58315.242     -58629.62       314.37838      8961.2754      182018.86    
     64900   300.65113     -58314.296     -58627.642      313.34599      8968.4737      182018.86    
     65000   297.62353     -58315.192     -58625.382      310.19055      9071.1299      182018.86    
     65100   299.82048     -58316.836     -58629.316      312.48026      8942.2215      182018.86    
     65200   298.41019     -58319.26      -58630.271      311.01043      8927.6969      182018.86    
     65300   302.53141     -58316.03      -58631.335      315.30566      8853.7296      182018.86    
     65400   300.08992     -58312.388     -58625.149      312.76109      8966.5958      182018.86    
     65500   305.2         -58307.837     -58625.924      318.08693      9054.625       182018.86    
     65600   301.18253     -58310.741     -58624.641      313.89983      9040.2143      182018.86    
     65700   301.74507     -58317.095     -58631.581      314.48612      9005.5223      182018.86    
     65800   297.59577     -58320.385     -58630.547      310.16161      8919.6652      182018.86    
     65900   299.41521     -58319.183     -58631.241      312.05788      8872.3603      182018.86    
     66000   302.19823     -58314.778     -58629.736      314.95842      8902.318       182018.86    
     66100   300.22886     -58313.365     -58626.271      312.90589      9020.058       182018.86    
     66200   302.88488     -58313.584     -58629.258      315.67405      8975.2053      182018.86    
     66300   298.98017     -58316.825     -58628.429      311.60447      8903.3854      182018.86    
     66400   302.54796     -58316.995     -58632.318      315.32291      8837.2197      182018.86    
     66500   294.658       -58319.026     -58626.126      307.0998       8912.5468      182018.86    
     66600   302.88158     -58315.962     -58631.633      315.67062      8954.4907      182018.86    
     66700   302.30365     -58310.379     -58625.447      315.06828      9048.4981      182018.86    
     66800   302.51598     -58310.505     -58625.794      315.28958      9030.5861      182018.86    
     66900   300.96574     -58318.17      -58631.844      313.67389      8942.573       182018.86    
     67000   297.18453     -58320.908     -58630.641      309.73302      8890.069       182018.86    
     67100   298.48146     -58318.276     -58629.361      311.08471      8863.5267      182018.86    
     67200   303.95463     -58313.136     -58629.925      316.78898      8970.053       182018.86    
     67300   299.42692     -58313.432     -58625.502      312.07009      8948.0019      182018.86    
     67400   299.74291     -58316.778     -58629.178      312.39942      8887.2039      182018.86    
     67500   297.2029      -58323.866     -58633.618      309.75216      8902.4449      182018.86    
     67600   296.18884     -58323.998     -58632.693      308.69528      8893.9011      182018.86    
     67700   294.73824     -58322.07      -58629.253      307.18343      8868.7839      182018.86    
     67800   300.32286     -58316.451     -58629.455      313.00385      8965.8545      182018.86    
     67900   299.29531     -58314.868     -58626.801      311.93292      8923.3051      182018.86    
     68000   303.98        -58314.558     -58631.374      316.81542      8855.7597      182018.86    
     68100   295.94426     -58319.445     -58627.885      308.44037      8938.1648      182018.86    
     68200   296.46869     -58322.311     -58631.298      308.98694      8940.0112      182018.86    
     68300   297.97115     -58320.549     -58631.102      310.55284      8901.1323      182018.86    
     68400   302.5069      -58313.052     -58628.332      315.28011      8931.2655      182018.86    
     68500   304.33368     -58310.206     -58627.39       317.18403      9009.8578      182018.86    
     68600   298.87103     -58314.207     -58625.698      311.49073      9033.2699      182018.86    
     68700   299.3028      -58317.991     -58629.932      311.94072      8889.767       182018.86    
     68800   296.32035     -58321.686     -58630.519      308.83234      8871.5226      182018.86    
     68900   298.59619     -58320.351     -58631.555      311.20428      8890.9756      182018.86    
     69000   300.62332     -58316.679     -58629.996      313.317        8927.2942      182018.86    
     69100   300.36167     -58315.741     -58628.785      313.0443       8967.8173      182018.86    
     69200   300.4017      -58315.904     -58628.99       313.08602      8959.2381      182018.86    
     69300   299.22298     -58318.198     -58630.056      311.85753      8914.07        182018.86    
     69400   297.06993     -58320.621     -58630.235      309.61358      8934.7459      182018.86    
     69500   298.24917     -58318.292     -58629.135      310.84261      8895.3786      182018.86    
     69600   303.28872     -58312.961     -58629.056      316.09495      8974.8213      182018.86    
     69700   303.466       -58311.557     -58627.836      316.27972      8933.6821      182018.86    
     69800   299.01218     -58314.206     -58625.844      311.63784      9056.622       182018.86    
     69900   294.9344      -58321.964     -58629.352      307.38787      8835.2356      182018.86    
     70000   300.79911     -58319.936     -58633.436      313.50022      8938.9263      182018.86    
     70100   301.86608     -58317.156     -58631.768      314.61224      8903.1034      182018.86    
     70200   298.82368     -58314.659     -58626.1        311.44137      8975.3381      182018.86    
     70300   302.76904     -58308.366     -58623.919      315.55333      9081.7839      182018.86    
     70400   304.2558      -58306.814     -58623.917      317.10286      9043.9183      182018.86    
     70500   302.57975     -58315.809     -58631.165      315.35604      8901.5226      182018.86    
     70600   296.21831     -58320.667     -58629.393      308.72599      8909.4751      182018.86    
     70700   300.58635     -58318.833     -58632.112      313.27848      8933.6096      182018.86    
     70800   298.5283      -58315.616     -58626.75       311.13353      8977.8415      182018.86    
     70900   304.86292     -58310.327     -58628.063      317.73562      9011.1678      182018.86    
     71000   302.41539     -58311.955     -58627.14       315.18475      8960.4041      182018.86    
     71100   304.05707     -58314.987     -58631.883      316.89574      8945.8826      182018.86    
     71200   298.97322     -58316.444     -58628.041      311.59722      8948.5553      182018.86    
     71300   298.59982     -58317.636     -58628.844      311.20806      8963.368       182018.86    
     71400   296.90594     -58319.539     -58628.982      309.44265      8961.4151      182018.86    
     71500   299.9568      -58317.783     -58630.405      312.62235      8917.7773      182018.86    
     71600   302.93489     -58312.167     -58627.893      315.72618      8984.8186      182018.86    
     71700   304.42572     -58309.816     -58627.096      317.27996      8976.1533      182018.86    
     71800   299.97998     -58314.464     -58627.111      312.6465       8990.5886      182018.86    
     71900   297.64455     -58320.24      -58630.453      310.21246      8924.5616      182018.86    
     72000   296.81473     -58320.009     -58629.356      309.3476       8958.3425      182018.86    
     72100   299.82939     -58317.667     -58630.157      312.48955      8989.1521      182018.86    
     72200   301.12806     -58313.866     -58627.709      313.84305      8952.0486      182018.86    
     72300   305.98737     -58307.367     -58626.275      318.90755      9016.7944      182018.86    
     72400   300.18043     -58309.348     -58622.204      312.85542      9075.9286      182018.86    
     72500   300.18414     -58313.158     -58626.017      312.85928      9003.2095      182018.86    
     72600   302.84176     -58314.896     -58630.525      315.62912      8868.0905      182018.86    
     72700   299.75917     -58317.805     -58630.222      312.41636      8897.4716      182018.86    
     72800   301.69735     -58319.233     -58633.669      314.43638      8939.71        182018.86    
     72900   298.5755      -58321.386     -58632.569      311.18271      8873.0701      182018.86    
     73000   298.10979     -58319.731     -58630.428      310.69735      8856.5443      182018.86    
     73100   297.46357     -58314.614     -58624.637      310.02384      9011.015       182018.86    
     73200   301.49965     -58310.558     -58624.788      314.23033      9002.549       182018.86    
     73300   305.144       -58310.99      -58629.018      318.02857      8938.0803      182018.86    
     73400   301.79835     -58317.189     -58631.731      314.54165      8864.4882      182018.86    
     73500   292.98165     -58321.587     -58626.94       305.35267      8977.7895      182018.86    
     73600   300.4087      -58319.323     -58632.416      313.09333      8912.9727      182018.86    
     73700   298.69996     -58316.818     -58628.131      311.31243      8933.6951      182018.86    
     73800   302.72639     -58312.266     -58627.775      315.50888      9061.7077      182018.86    
     73900   305.02594     -58311.938     -58629.843      317.90552      8916.1912      182018.86    
     74000   296.46866     -58318.399     -58627.386      308.98691      8943.362       182018.86    
     74100   300.03026     -58320.663     -58633.361      312.69891      8889.0119      182018.86    
     74200   293.28848     -58321.269     -58626.941      305.67245      8869.6312      182018.86    
     74300   303.28066     -58318.405     -58634.492      316.08655      8832.6853      182018.86    
     74400   299.51511     -58319.076     -58631.238      312.162        8913.2513      182018.86    
     74500   299.64059     -58317.857     -58630.15       312.29278      8920.3198      182018.86    
     74600   296.54986     -58314.438     -58623.509      309.07155      8968.9767      182018.86    
     74700   307.72212     -58308.434     -58629.15       320.71555      9027.9103      182018.86    
     74800   298.80705     -58311.878     -58623.302      311.42404      9079.3122      182018.86    
     74900   305.76052     -58313.364     -58632.035      318.67112      8914.6439      182018.86    
     75000   301.90891     -58316.951     -58631.608      314.65688      8913.1922      182018.86    
     75100   297.21227     -58318.742     -58628.504      309.76192      8848.5805      182018.86    
     75200   301.65506     -58316.939     -58631.331      314.39231      8951.3431      182018.86    
     75300   298.0119      -58317.141     -58627.736      310.59532      8936.823       182018.86    
     75400   303.91887     -58316.916     -58633.668      316.75171      8892.2747      182018.86    
[...]
    181800   297.50049     -58324.845     -58634.908      310.06232      8844.7788      182018.86    
    181900   303.09292     -58322.938     -58638.829      315.89088      8734.6331      182018.86    
    182000   299.39255     -58321.83      -58633.865      312.03426      8843.9229      182018.86    
    182100   302.49041     -58318.342     -58633.605      315.26293      8845.3002      182018.86    
    182200   300.1288      -58317.758     -58630.56       312.80161      8842.9449      182018.86    
    182300   300.75544     -58324.741     -58638.196      313.4547       8733.2051      182018.86    
    182400   299.98788     -58327.966     -58640.62       312.65473      8712.8036      182018.86    
    182500   298.19005     -58326.791     -58637.572      310.78099      8811.4277      182018.86    
    182600   300.39973     -58321.638     -58634.722      313.08398      8841.5329      182018.86    
    182700   301.24862     -58319.62      -58633.588      313.96871      8865.6263      182018.86    
    182800   302.64922     -58320.302     -58635.73       315.42845      8852.5244      182018.86    
    182900   301.45891     -58322.91      -58637.097      314.18788      8823.0361      182018.86    
    183000   299.10406     -58325.23      -58636.964      311.7336       8794.6011      182018.86    
    183100   300.41345     -58323.758     -58636.857      313.09828      8764.5253      182018.86    
    183200   296.84278     -58323.685     -58633.061      309.37683      8878.906       182018.86    
    183300   299.85711     -58322.777     -58635.296      312.51844      8864.8861      182018.86    
    183400   300.59728     -58321.846     -58635.136      313.28986      8793.8334      182018.86    
    183500   301.73363     -58321.482     -58635.956      314.47419      8881.2926      182018.86    
    183600   299.34904     -58324.281     -58636.27       311.98892      8832.2992      182018.86    
    183700   294.66759     -58329.176     -58636.285      307.1098       8799.683       182018.86    
    183800   297.73051     -58328.307     -58638.609      310.30204      8646.5885      182018.86    
    183900   301.89678     -58321.875     -58636.519      314.64424      8833.6654      182018.86    
    184000   302.52514     -58319.061     -58634.36       315.29913      8876.8717      182018.86    
    184100   299.81473     -58320.944     -58633.418      312.47428      8744.1066      182018.86    
    184200   300.72192     -58323.313     -58636.733      313.41977      8870.0653      182018.86    
    184300   297.57293     -58326.17      -58636.308      310.13781      8712.0847      182018.86    
    184400   298.36734     -58325.412     -58636.378      310.96576      8805.4803      182018.86    
    184500   298.89983     -58318.382     -58629.903      311.52074      8902.0534      182018.86    
    184600   307.83605     -58314.727     -58635.561      320.83429      8834.6029      182018.86    
    184700   298.51421     -58318.936     -58630.055      311.11884      8902.8499      182018.86    
    184800   303.32755     -58322.528     -58638.663      316.13542      8829.7988      182018.86    
    184900   296.10652     -58326.191     -58634.8        308.60948      8794.8679      182018.86    
    185000   300.24        -58324.052     -58636.969      312.9175       8820.4815      182018.86    
    185100   300.91791     -58321.28      -58634.904      313.62404      8809.4227      182018.86    
    185200   304.26602     -58319.067     -58636.18       317.11351      8763.0816      182018.86    
    185300   294.06131     -58323.905     -58630.383      306.47792      8884.3757      182018.86    
    185400   298.27539     -58327.989     -58638.859      310.86993      8854.4857      182018.86    
    185500   297.56897     -58331.101     -58641.234      310.13369      8763.0514      182018.86    
    185600   300.39377     -58329.185     -58642.263      313.07776      8693.4101      182018.86    
    185700   297.15607     -58321.979     -58631.682      309.70335      8842.4435      182018.86    
    185800   304.81801     -58317.793     -58635.482      317.68882      8893.7094      182018.86    
    185900   299.21947     -58321.362     -58633.216      311.85388      8898.7596      182018.86    
    186000   296.8632      -58324.785     -58634.184      309.39811      8891.6865      182018.86    
    186100   299.60455     -58324.849     -58637.104      312.25521      8829.5136      182018.86    
    186200   306.55371     -58322.274     -58641.771      319.49781      8802.7593      182018.86    
    186300   298.15045     -58317.039     -58627.779      310.73972      8963.6131      182018.86    
    186400   302.53181     -58315.625     -58630.931      315.30608      8996.5495      182018.86    
    186500   300.12554     -58321.019     -58633.817      312.7982       8861.3547      182018.86    
    186600   300.08452     -58324.233     -58636.989      312.75545      8818.2253      182018.86    
    186700   299.40528     -58324.944     -58636.992      312.04753      8746.4511      182018.86    
    186800   300.82976     -58321.729     -58635.261      313.53216      8813.3775      182018.86    
    186900   298.71911     -58314.64      -58625.972      311.33239      8909.0073      182018.86    
    187000   305.69881     -58313.073     -58631.68       318.6068       8939.8446      182018.86    
    187100   301.50042     -58318.556     -58632.787      314.23114      8841.4756      182018.86    
    187200   307.01868     -58320.697     -58640.68       319.98241      8885.405       182018.86    
    187300   292.07189     -58326.098     -58630.503      304.40449      8827.856       182018.86    
    187400   302.76839     -58323.22      -58638.773      315.55264      8764.6545      182018.86    
    187500   298.82645     -58323.334     -58634.779      311.44426      8802.382       182018.86    
    187600   299.15833     -58323.854     -58635.644      311.79015      8859.0576      182018.86    
    187700   299.592       -58324.83      -58637.072      312.24214      8764.6647      182018.86    
    187800   301.90904     -58323.291     -58637.948      314.65702      8781.673       182018.86    
    187900   297.1603      -58322.031     -58631.739      309.70776      8883.4496      182018.86    
    188000   302.4305      -58318.303     -58633.504      315.20049      8914.5766      182018.86    
    188100   304.77879     -58317.727     -58635.375      317.64794      8838.4489      182018.86    
    188200   297.21553     -58324.464     -58634.23       309.76533      8865.0396      182018.86    
    188300   300.2646      -58327.102     -58640.045      312.94314      8733.4357      182018.86    
    188400   294.00943     -58327.485     -58633.909      306.42384      8844.5982      182018.86    
    188500   301.883       -58320.554     -58635.184      314.62987      8816.7773      182018.86    
    188600   302.44299     -58319.972     -58635.185      315.21351      8809.4986      182018.86    
    188700   299.3394      -58321.569     -58633.548      311.97887      8923.922       182018.86    
    188800   301.65848     -58323.28      -58637.676      314.39587      8790.05        182018.86    
    188900   297.8331      -58328.541     -58638.95       310.40897      8679.0834      182018.86    
    189000   293.28666     -58331.735     -58637.405      305.67056      8817.5679      182018.86    
    189100   297.27242     -58328.225     -58638.05       309.82461      8821.7968      182018.86    
    189200   300.02583     -58320.701     -58633.395      312.69428      8828.9635      182018.86    
    189300   307.65861     -58317.877     -58638.527      320.64935      8757.136       182018.86    
    189400   300.4291      -58322         -58635.115      313.11458      8748.5488      182018.86    
    189500   296.88168     -58325.916     -58635.333      309.41737      8820.3038      182018.86    
    189600   297.61124     -58326.658     -58636.836      310.17774      8781.8404      182018.86    
    189700   302.02709     -58320.44      -58635.22       314.78005      8850.944       182018.86    
    189800   304.64784     -58315.758     -58633.27       317.51146      8889.3809      182018.86    
    189900   302.25365     -58319.001     -58634.017      315.01617      8758.2627      182018.86    
    190000   297.17711     -58324.25      -58633.975      309.72528      8753.2831      182018.86    
    190100   298.28521     -58324.993     -58635.873      310.88016      8775.3923      182018.86    
    190200   301.55618     -58323.816     -58638.105      314.28926      8702.3617      182018.86    
    190300   297.67677     -58323         -58633.246      310.24603      8843.9489      182018.86    
    190400   303.76644     -58314.938     -58631.531      316.59284      8908.116       182018.86    
    190500   305.75209     -58313.275     -58631.938      318.66234      8850.5789      182018.86    
    190600   301.13495     -58317.378     -58631.228      313.85024      8839.4389      182018.86    
    190700   302.59142     -58321.159     -58636.527      315.36821      8738.5437      182018.86    
    190800   299.2594      -58325.318     -58637.214      311.89549      8677.9399      182018.86    
    190900   300.12392     -58325.136     -58637.932      312.79652      8755.7807      182018.86    
    191000   295.65517     -58324.653     -58632.792      308.13908      8762.9107      182018.86    
    191100   304.92246     -58318.041     -58635.839      317.79768      8756.9404      182018.86    
    191200   300.87323     -58316.572     -58630.149      313.57746      8843.5983      182018.86    
    191300   300.15088     -58319.886     -58632.71       312.82462      8792.2644      182018.86    
    191400   301.25733     -58325.642     -58639.62       313.97779      8705.3389      182018.86    
    191500   295.4368      -58327.284     -58635.196      307.91148      8679.2708      182018.86    
    191600   302.32392     -58324.163     -58639.253      315.08942      8700.8068      182018.86    
    191700   298.14742     -58323.006     -58633.743      310.73656      8706.9439      182018.86    
    191800   301.67282     -58319.003     -58633.414      314.41081      8863.3479      182018.86    
    191900   303.25969     -58316.994     -58633.058      316.0647       8821.3839      182018.86    
    192000   298.31945     -58323.027     -58633.943      310.91585      8798.9625      182018.86    
    192100   299.984       -58326.395     -58639.045      312.65069      8750.0117      182018.86    
    192200   298.28089     -58327.778     -58638.654      310.87567      8778.3296      182018.86    
    192300   299.15742     -58326.177     -58637.966      311.78921      8730.4155      182018.86    
    192400   299.78076     -58319.818     -58632.257      312.43887      8903.0453      182018.86    
    192500   303.0362      -58317.272     -58633.103      315.83177      8771.6241      182018.86    
    192600   300.96304     -58320.219     -58633.89       313.67107      8832.8623      182018.86    
    192700   297.56829     -58327.051     -58637.184      310.13298      8731.5701      182018.86    
    192800   298.23395     -58327.347     -58638.174      310.82675      8694.2736      182018.86    
    192900   298.49656     -58324.841     -58635.942      311.10044      8758.6234      182018.86    
    193000   302.68011     -58321.63      -58637.09       315.46065      8775.6906      182018.86    
    193100   300.52469     -58320.9       -58634.115      313.21421      8798.7874      182018.86    
    193200   304.73419     -58315.592     -58633.193      317.60145      8850.7419      182018.86    
    193300   302.98126     -58313.783     -58629.557      315.77451      8941.594       182018.86    
    193400   299.33053     -58319.878     -58631.847      311.96963      8901.1565      182018.86    
    193500   301.03868     -58323.735     -58637.484      313.7499       8722.0784      182018.86    
    193600   298.95563     -58324.704     -58636.283      311.57889      8770.7477      182018.86    
    193700   300.87178     -58322.755     -58636.331      313.57596      8827.273       182018.86    
    193800   302.08283     -58319.503     -58634.341      314.83814      8788.811       182018.86    
    193900   305.78142     -58314.864     -58633.557      318.6929       8906.3568      182018.86    
    194000   301.77682     -58316.647     -58631.167      314.51921      8900.2722      182018.86    
    194100   299.19337     -58324.126     -58635.953      311.82667      8830.3765      182018.86    
    194200   300.08674     -58324.895     -58637.653      312.75777      8818.7013      182018.86    
    194300   299.33769     -58324.705     -58636.682      311.97709      8820.7664      182018.86    
    194400   300.665       -58323.857     -58637.218      313.36044      8722.5833      182018.86    
    194500   300.15735     -58319.268     -58632.1        312.83136      8860.4305      182018.86    
    194600   302.89286     -58315.425     -58631.108      315.68237      8886.6837      182018.86    
    194700   302.21979     -58319.083     -58634.064      314.98088      8840.609       182018.86    
    194800   299.51115     -58324.265     -58636.423      312.15787      8746.6063      182018.86    
    194900   298.85531     -58325.28      -58636.754      311.47434      8769.334       182018.86    
    195000   302.39011     -58323.343     -58638.502      315.1584       8775.1943      182018.86    
    195100   298.13033     -58322.019     -58632.738      310.71875      8842.3509      182018.86    
    195200   303.37899     -58317.766     -58633.955      316.18903      8840.5494      182018.86    
    195300   305.30304     -58314.494     -58632.689      318.19432      8848.3897      182018.86    
    195400   301.1271      -58319.097     -58632.94       313.84205      8913.6883      182018.86    
    195500   300.57854     -58324.304     -58637.574      313.27033      8848.4258      182018.86    
    195600   297.43822     -58325.568     -58635.566      309.99741      8835.2477      182018.86    
    195700   300.02751     -58324.96      -58637.657      312.69604      8858.312       182018.86    
    195800   295.99721     -58325.591     -58634.087      308.49556      8857.5428      182018.86    
    195900   305.81247     -58320.294     -58639.019      318.72527      8806.3333      182018.86    
    196000   302.51896     -58318.398     -58633.691      315.29269      8856.104       182018.86    
    196100   300.00422     -58319.114     -58631.786      312.67177      8850.4901      182018.86    
    196200   295.24696     -58325.367     -58633.08       307.71363      8835.6129      182018.86    
    196300   300.65666     -58327.224     -58640.576      313.35175      8659.4839      182018.86    
    196400   300.40442     -58325.85      -58638.938      313.08886      8812.9056      182018.86    
    196500   302.21856     -58320.544     -58635.524      314.97961      8851.4278      182018.86    
    196600   301.66376     -58315.007     -58629.409      314.40137      8898.9126      182018.86    
    196700   307.26689     -58307.427     -58627.668      320.24109      8970.79        182018.86    
    196800   305.69681     -58307.212     -58625.816      318.60472      8982.9668      182018.86    
    196900   306.55346     -58314.706     -58634.204      319.49754      8891.2733      182018.86    
    197000   303.48311     -58320.637     -58636.934      316.29754      8882.2704      182018.86    
    197100   296.08283     -58326.401     -58634.986      308.5848       8864.6982      182018.86    
    197200   296.31232     -58327.587     -58636.411      308.82397      8734.3914      182018.86    
    197300   303.00703     -58323.565     -58639.366      315.80136      8716.0072      182018.86    
    197400   301.98283     -58319.849     -58634.583      314.73392      8849.5622      182018.86    
    197500   301.28592     -58318.674     -58632.682      314.00759      8825.4547      182018.86    
    197600   300.41416     -58321.863     -58634.962      313.09902      8872.2719      182018.86    
    197700   300.0031      -58328.265     -58640.936      312.6706       8778.2911      182018.86    
    197800   294.72661     -58330.287     -58637.459      307.17131      8677.7844      182018.86    
    197900   301.08403     -58324.687     -58638.484      313.79717      8760.2206      182018.86    
    198000   300.73399     -58321.332     -58634.764      313.43235      8901.7972      182018.86    
    198100   304.65087     -58320.209     -58637.724      317.51462      8811.7824      182018.86    
    198200   293.29461     -58323.727     -58629.406      305.67884      8901.5855      182018.86    
    198300   303.03279     -58322.395     -58638.223      315.82821      8860.2716      182018.86    
    198400   298.24957     -58323.644     -58634.487      310.84303      8898.7754      182018.86    
    198500   301.66144     -58322.914     -58637.313      314.39896      8782.5764      182018.86    
    198600   300.46711     -58323.088     -58636.242      313.1542       8884.3464      182018.86    
    198700   300.94671     -58322.023     -58635.677      313.65405      8817.4063      182018.86    
    198800   300.02144     -58320.868     -58633.558      312.68971      8994.3186      182018.86    
    198900   299.71656     -58322.995     -58635.367      312.37196      8821.5057      182018.86    
    199000   300.52212     -58326.037     -58639.249      313.21153      8777.7798      182018.86    
    199100   295.6903      -58329.28      -58637.456      308.17569      8832.6225      182018.86    
    199200   298.90678     -58327.272     -58638.8        311.52798      8732.4135      182018.86    
    199300   302.19404     -58320.354     -58635.308      314.95405      8965.8912      182018.86    
    199400   298.5226      -58318.947     -58630.075      311.12759      8881.0069      182018.86    
    199500   302.52453     -58318.954     -58634.253      315.29849      8826.4134      182018.86    
    199600   299.16761     -58325.701     -58637.5        311.79982      8854.4281      182018.86    
    199700   295.074       -58330.802     -58638.335      307.53337      8738.3636      182018.86    
    199800   295.88542     -58328.572     -58636.951      308.37904      8802.814       182018.86    
    199900   301.34497     -58323.05      -58637.119      314.06913      8783.8815      182018.86    
    200000   300.97636     -58321.78      -58635.465      313.68495      8804.615       182018.86    
Loop time of 26280.6 on 20 procs for 200000 steps with 8064 atoms

Performance: 0.658 ns/day, 36.501 hours/ns, 7.610 timesteps/s, 61.369 katom-step/s
100.0% CPU use with 20 MPI tasks x 1 OpenMP threads

MPI task timing breakdown:
Section |  min time  |  avg time  |  max time  |%varavg| %total
---------------------------------------------------------------
Pair    | 22812      | 24123      | 25887      | 664.7 | 91.79
Neigh   | 234.59     | 255.23     | 285.33     |  99.3 |  0.97
Comm    | 101.83     | 1895.7     | 3227.1     |2407.4 |  7.21
Output  | 0.48173    | 0.55967    | 0.6505     |   6.3 |  0.00
Modify  | 3.5356     | 4.278      | 5.1334     |  24.0 |  0.02
Other   |            | 1.928      |            |       |  0.01

Nlocal:          403.2 ave         433 max         382 min
Histogram: 8 0 0 1 3 3 1 0 0 4
Nghost:         1634.1 ave        1688 max        1598 min
Histogram: 8 3 1 0 0 0 0 0 4 4
Neighs:              0 ave           0 max           0 min
Histogram: 20 0 0 0 0 0 0 0 0 0
FullNghs:        23098 ave       24828 max       21869 min
Histogram: 6 2 0 2 2 2 2 0 0 4

Total # of neighbors = 461960
Ave neighs/atom = 57.286706
Neighbor list builds = 200000
Dangerous builds not checked
Total wall time: 7:18:00
