LAMMPS (27 Jun 2024)
OMP_NUM_THREADS environment is not set. Defaulting to 1 thread. (src/comm.cpp:98)
  using 1 OpenMP thread(s) per MPI task
Reading data file ...
  orthogonal box = (0 0 0) to (22.422218 22.19224 20.321894)
  5 by 2 by 2 MPI processor grid
  reading atoms ...
  448 atoms
  read_data CPU = 0.004 seconds
**************** Begin of POD Potentials ****************
species: Hf 
periodic boundary conditions: 1 1 1
number of environment clusters: 8
number of principal compoments: 2
inner cut-off radius: 1
outer cut-off radius: 5
cut-off function type: 1
gaussian_exponents: 
polynomial_degrees: 
bessel polynomial degree: 4
inverse polynomial degree: 10
one-body potential: 1
two-body radial basis functions: 8
three-body radial basis functions: 8
three-body angular degree: 6
four-body radial basis functions: 7
four-body angular degree: 5
five-body radial basis functions: 0
five-body angular degree: 0
six-body radial basis functions: 0
six-body angular degree: 0
seven-body radial basis functions: 0
seven-body angular degree: 0
number of local descriptors per element for one-body potential: 1
number of local descriptors per element for two-body potential: 8
number of local descriptors per element for three-body potential: 56
number of local descriptors per element for four-body potential: 112
number of local descriptors per element for five-body potential: 0
number of local descriptors per element for six-body potential: 0
number of local descriptors per element for seven-body potential: 0
number of local descriptors per element for all potentials: 177
number of global descriptors: 1409
**************** End of POD Potentials ****************

**************** Begin of Model Coefficients ****************
total number of coefficients for POD potential: 1409
total number of elements for PCA projection matrix: 352
total number of elements for PCA centroids: 16
**************** End of Model Coefficients ****************


CITE-CITE-CITE-CITE-CITE-CITE-CITE-CITE-CITE-CITE-CITE-CITE-CITE

Your simulation uses code contributions which should be cited:
- Type Label Framework: https://doi.org/10.1021/acs.jpcb.3c08419
The log file lists these citations in BibTeX format.

CITE-CITE-CITE-CITE-CITE-CITE-CITE-CITE-CITE-CITE-CITE-CITE-CITE

Neighbor list info ...
  update: every = 1 steps, delay = 0 steps, check = no
  max neighbors/atom: 2000, page size: 100000
  master list distance cutoff = 7
  ghost atom cutoff = 7
  binsize = 3.5, bins = 7 7 6
  1 neighbor lists, perpetual/occasional/extra = 1 0 0
  (1) pair pod, perpetual
      attributes: full, newton on
      pair build: full/bin/atomonly
      stencil: full/bin/3d
      bin: standard
Setting up Verlet run ...
  Unit style    : metal
  Current step  : 0
  Time step     : 0.001
Per MPI rank memory allocation (min/avg/max) = 2.586 | 2.586 | 2.586 Mbytes
   Step          Temp          TotEng         PotEng         KinEng         Press          Volume    
         0   300           -3231.7429     -3249.0767      17.333785      27701.818      10112.159    
       100   298.73262     -3235.9233     -3253.1839      17.260557      9338.2007      10112.159    
       200   244.19749     -3235.9094     -3250.019       14.109556      10433.037      10112.159    
       300   361.20607     -3234.0608     -3254.931       20.870228      9434.8088      10112.159    
       400   329.74085     -3237.0796     -3256.1317      19.05219       9279.5919      10112.159    
       500   327.30939     -3239.8751     -3258.7868      18.911702      8394.2741      10112.159    
       600   277.29752     -3241.4206     -3257.4427      16.022053      8446.571       10112.159    
       700   281.18615     -3241.0742     -3257.321       16.246735      8661.197       10112.159    
       800   299.28787     -3239.9261     -3257.2187      17.292639      8387.1765      10112.159    
       900   310.76153     -3238.7614     -3256.7169      17.955579      8494.2657      10112.159    
      1000   321.9234      -3238.4453     -3257.0458      18.600504      8491.092       10112.159    
      1100   294.88624     -3239.2473     -3256.2856      17.038316      9005.214       10112.159    
      1200   290.39701     -3240.5826     -3257.3615      16.778931      8627.8206      10112.159    
      1300   283.14        -3241.0165     -3257.3761      16.359626      8113.8302      10112.159    
      1400   305.86277     -3240.2302     -3257.9027      17.672532      8438.9058      10112.159    
      1500   301.94556     -3239.4794     -3256.9255      17.446199      8667.2247      10112.159    
      1600   326.73996     -3238.0849     -3256.9637      18.878801      8851.4078      10112.159    
      1700   292.45654     -3238.5028     -3255.4007      16.897929      9062.636       10112.159    
      1800   307.24351     -3239.0565     -3256.8088      17.75231       8792.7227      10112.159    
      1900   290.55966     -3239.9049     -3256.6932      16.78833       8916.2969      10112.159    
      2000   307.27047     -3240.0995     -3257.8533      17.753868      8338.5572      10112.159    
      2100   305.57926     -3240.0092     -3257.6653      17.656151      8309.7165      10112.159    
      2200   303.82466     -3239.384      -3256.9388      17.554771      8832.8922      10112.159    
      2300   300.59683     -3238.2289     -3255.5972      17.36827       9272.339       10112.159    
      2400   314.92743     -3237.7154     -3255.9117      18.196282      8850.4929      10112.159    
      2500   323.87201     -3238.9629     -3257.676       18.713093      8961.715       10112.159    
      2600   295.53479     -3240.2246     -3257.3004      17.075789      8525.7503      10112.159    
      2700   287.93625     -3240.3221     -3256.9589      16.636751      8637.5229      10112.159    
      2800   305.51861     -3239.6373     -3257.2899      17.652647      8810.2782      10112.159    
      2900   312.87661     -3238.9792     -3257.057       18.077787      8532.0085      10112.159    
      3000   313.24314     -3238.9389     -3257.0379      18.098964      8841.8803      10112.159    
      3100   295.27045     -3239.8415     -3256.902       17.060516      9115.0077      10112.159    
      3200   285.71327     -3240.8071     -3257.3154      16.508308      8800.4082      10112.159    
      3300   297.77606     -3240.9173     -3258.1226      17.205288      8494.8221      10112.159    
      3400   284.22018     -3240.3924     -3256.8144      16.422039      8412.5126      10112.159    
      3500   322.09626     -3238.6518     -3257.2623      18.610492      9004.5159      10112.159    
      3600   308.54225     -3238.8746     -3256.702       17.82735       8976.4259      10112.159    
      3700   286.93735     -3240.0137     -3256.5927      16.579035      9064.6376      10112.159    
      3800   284.46425     -3240.7578     -3257.1939      16.436141      8104.1113      10112.159    
      3900   292.69642     -3240.5033     -3257.4151      16.91179       8676.5897      10112.159    
      4000   326.01624     -3238.8265     -3257.6635      18.836985      9063.0549      10112.159    
      4100   311.4131      -3237.6478     -3255.641       17.993226      8916.1315      10112.159    
      4200   323.32894     -3238.1799     -3256.8616      18.681715      8586.2512      10112.159    
      4300   274.95588     -3239.4917     -3255.3784      15.886754      9481.9484      10112.159    
      4400   315.7446      -3239.6976     -3257.9411      18.243497      8672.1912      10112.159    
      4500   289.69614     -3240.842      -3257.5804      16.738436      8664.4717      10112.159    
      4600   306.26143     -3240.6685     -3258.3641      17.695567      8113.4524      10112.159    
      4700   293.15744     -3239.5825     -3256.5209      16.938427      9331.0992      10112.159    
      4800   305.23896     -3238.1869     -3255.8234      17.636489      9064.115       10112.159    
      4900   309.46302     -3238.665      -3256.5455      17.880552      8909.3119      10112.159    
      5000   303.88191     -3239.6894     -3257.2475      17.55808       8905.6591      10112.159    
      5100   294.80005     -3240.3389     -3257.3722      17.033336      8427.4006      10112.159    
      5200   284.58876     -3240.4974     -3256.9407      16.443335      8836.8945      10112.159    
      5300   304.96244     -3240.1455     -3257.766       17.620511      8628.1556      10112.159    
      5400   289.829       -3240.068      -3256.8142      16.746112      8403.0984      10112.159    
      5500   316.77183     -3239.584      -3257.8869      18.30285       8671.5316      10112.159    
      5600   287.1518      -3239.738      -3256.3294      16.591426      9258.2844      10112.159    
      5700   300.05922     -3239.3432     -3256.6804      17.337207      9008.3101      10112.159    
      5800   294.62029     -3239.7278     -3256.7507      17.02295       8499.4738      10112.159    
      5900   308.82079     -3240.2449     -3258.0883      17.843444      8265.9555      10112.159    
      6000   281.13366     -3241.1081     -3257.3518      16.243702      8887.9737      10112.159    
      6100   289.58355     -3240.5995     -3257.3314      16.73193       8866.2999      10112.159    
      6200   305.2696      -3239.2231     -3256.8614      17.638259      8990.0166      10112.159    
      6300   300.28893     -3238.9683     -3256.3188      17.350479      9067.5265      10112.159    
      6400   326.55801     -3238.9637     -3257.832       18.868288      8467.4338      10112.159    
      6500   286.44654     -3239.7949     -3256.3456      16.550676      8886.6216      10112.159    
      6600   299.44684     -3239.8105     -3257.1123      17.301824      9031.4799      10112.159    
      6700   298.69767     -3240.002      -3257.2606      17.258538      9023.6588      10112.159    
      6800   295.64526     -3240.2662     -3257.3483      17.082172      8477.3931      10112.159    
      6900   315.42274     -3240.1955     -3258.4204      18.2249        8296.5793      10112.159    
      7000   292.47989     -3240.029      -3256.9283      16.899279      9036.2864      10112.159    
      7100   301.1446      -3239.0295     -3256.4294      17.399919      9039.6934      10112.159    
      7200   300.73605     -3238.9488     -3256.3251      17.376314      9051.1908      10112.159    
      7300   309.10152     -3239.8434     -3257.7031      17.859665      8801.9176      10112.159    
      7400   281.62862     -3241.4839     -3257.7562      16.272301      8581.5256      10112.159    
      7500   292.77345     -3241.3574     -3258.2737      16.916241      8494.2734      10112.159    
      7600   284.21197     -3240.8528     -3257.2744      16.421564      8859.446       10112.159    
      7700   297.45535     -3240.1728     -3257.3595      17.186757      8596.3853      10112.159    
      7800   311.32291     -3239.6981     -3257.6861      17.988015      8857.2945      10112.159    
      7900   302.41386     -3239.4896     -3256.9628      17.473257      8988.0822      10112.159    
      8000   307.3498      -3238.572      -3256.3304      17.758452      9320.9992      10112.159    
      8100   317.0902      -3237.717      -3256.0382      18.321245      9025.7058      10112.159    
      8200   306.09217     -3238.6342     -3256.32        17.685787      8944.9144      10112.159    
      8300   306.29225     -3240.1971     -3257.8944      17.697347      8537.2006      10112.159    
      8400   301.08713     -3240.7209     -3258.1175      17.396599      8540.14        10112.159    
      8500   282.33628     -3240.461      -3256.7742      16.313188      9027.2492      10112.159    
      8600   307.49005     -3239.2177     -3256.9843      17.766555      9108.8503      10112.159    
      8700   313.7758      -3238.961      -3257.0907      18.129741      8810.1995      10112.159    
      8800   306.87111     -3239.4213     -3257.1521      17.730793      8523.0973      10112.159    
      8900   298.35688     -3239.8893     -3257.1281      17.238847      9023.5858      10112.159    
      9000   293.84888     -3239.9883     -3256.9666      16.978378      9140.1864      10112.159    
      9100   300.67359     -3239.721      -3257.0937      17.372705      8700.325       10112.159    
      9200   324.09144     -3238.7272     -3257.453       18.725771      8957.0001      10112.159    
      9300   314.84314     -3238.2952     -3256.4866      18.191412      9013.1864      10112.159    
      9400   285.1303      -3239.5888     -3256.0634      16.474625      9012.3548      10112.159    
      9500   298.09466     -3240.2769     -3257.5006      17.223696      8854.517       10112.159    
      9600   301.27047     -3240.6508     -3258.058       17.407192      8567.7877      10112.159    
      9700   301.93223     -3240.5916     -3258.0371      17.445428      8769.4694      10112.159    
      9800   294.59687     -3238.9551     -3255.9766      17.021596      9088.7405      10112.159    
      9900   309.87408     -3238.2835     -3256.1878      17.904303      9174.0002      10112.159    
     10000   304.44932     -3239.3306     -3256.9214      17.590864      8913.9723      10112.159    
     10100   304.27531     -3240.1241     -3257.705       17.58081       8833.7767      10112.159    
     10200   292.77423     -3240.6298     -3257.5461      16.916286      8477.5622      10112.159    
     10300   278.97134     -3240.8234     -3256.9422      16.118764      9020.5991      10112.159    
     10400   323.78499     -3238.9778     -3257.6859      18.708065      9070.8813      10112.159    
     10500   311.10675     -3238.6415     -3256.617       17.975525      9016.0961      10112.159    
     10600   300.09698     -3239.1224     -3256.4618      17.339389      9136.3984      10112.159    
     10700   295.52893     -3240.3539     -3257.4293      17.07545       8740.6062      10112.159    
     10800   285.54062     -3241.4592     -3257.9575      16.498333      8587.3419      10112.159    
     10900   297.11846     -3241.0633     -3258.2306      17.167292      8500.072       10112.159    
     11000   285.99941     -3240.4226     -3256.9474      16.524841      8552.9522      10112.159    
     11100   310.8509      -3239.8179     -3257.7786      17.960743      8472.7361      10112.159    
     11200   297.81701     -3239.7051     -3256.9128      17.207654      9026.7648      10112.159    
     11300   303.60063     -3239.4191     -3256.9609      17.541827      8918.6651      10112.159    
     11400   286.9318      -3240.5197     -3257.0985      16.578714      8737.3836      10112.159    
     11500   287.95059     -3241.2764     -3257.914       16.637579      8600.5799      10112.159    
     11600   302.77175     -3240.6933     -3258.1872      17.493935      8389.1819      10112.159    
     11700   309.86311     -3239.3568     -3257.2604      17.903669      8919.5781      10112.159    
     11800   310.13667     -3238.2993     -3256.2188      17.919475      9367.5605      10112.159    
     11900   305.10616     -3238.8424     -3256.4712      17.628816      9406.5434      10112.159    
     12000   295.37579     -3239.5747     -3256.6413      17.066602      8759.3924      10112.159    
     12100   302.32403     -3239.8187     -3257.2867      17.468066      8855.3672      10112.159    
     12200   300.69157     -3240.4297     -3257.8035      17.373744      8553.5719      10112.159    
     12300   276.49545     -3241.763      -3257.7387      15.975709      8383.5596      10112.159    
     12400   288.62098     -3241.4932     -3258.1695      16.676314      8606.8308      10112.159    
     12500   313.56911     -3239.4806     -3257.5984      18.117799      9146.0367      10112.159    
     12600   293.15063     -3239.0691     -3256.0072      16.938034      8908.8226      10112.159    
     12700   315.0485      -3238.6887     -3256.8919      18.203277      9176.0337      10112.159    
     12800   297.63885     -3239.9141     -3257.1114      17.19736       8783.9927      10112.159    
     12900   303.02047     -3240.7708     -3258.2791      17.508306      8748.8661      10112.159    
     13000   291.57256     -3240.9182     -3257.765       16.846854      8919.7205      10112.159    
     13100   294.00357     -3240.2084     -3257.1957      16.987316      8795.1697      10112.159    
     13200   306.58841     -3239.5372     -3257.2517      17.714459      8909.7669      10112.159    
     13300   310.8231      -3239.7151     -3257.6742      17.959136      8696.2475      10112.159    
     13400   294.04065     -3240.273      -3257.2624      16.989458      8822.8574      10112.159    
     13500   293.35513     -3240.1481     -3257.0979      16.949849      8756.9048      10112.159    
     13600   302.52169     -3239.2043     -3256.6838      17.479487      9377.8583      10112.159    
     13700   307.905       -3238.4477     -3256.2382      17.790531      8796.3883      10112.159    
     13800   324.12179     -3237.9879     -3256.7154      18.727525      9431.0625      10112.159    
     13900   284.08435     -3239.5604     -3255.9746      16.414191      9037.0699      10112.159    
     14000   293.47857     -3240.4101     -3257.3671      16.956982      8955.6083      10112.159    
     14100   301.15702     -3240.6243     -3258.0249      17.400637      8432.1756      10112.159    
     14200   300.17444     -3240.3747     -3257.7186      17.343865      8391.132       10112.159    
     14300   308.86082     -3238.5114     -3256.3572      17.845757      9125.1275      10112.159    
     14400   303.94185     -3238.247      -3255.8085      17.561542      9350.6713      10112.159    
     14500   319.07179     -3239.0516     -3257.4874      18.43574       8914.9259      10112.159    
     14600   292.70864     -3240.2649     -3257.1774      16.912496      8618.4806      10112.159    
     14700   302.47276     -3240.3623     -3257.839       17.47666       8653.2226      10112.159    
     14800   291.15337     -3240.2103     -3257.0329      16.822634      8921.0695      10112.159    
     14900   299.44454     -3239.1636     -3256.4653      17.301691      8849.5073      10112.159    
     15000   335.95714     -3237.2281     -3256.6394      19.411363      9237.8276      10112.159    
     15100   316.43772     -3237.9248     -3256.2083      18.283545      9503.4819      10112.159    
     15200   295.7299      -3239.3196     -3256.4067      17.087062      9352.0029      10112.159    
     15300   307.20298     -3239.8751     -3257.6251      17.749968      8394.5206      10112.159    
     15400   294.06449     -3240.5618     -3257.5527      16.990836      8741.3603      10112.159    
     15500   293.97577     -3240.8541     -3257.8398      16.98571       8632.4735      10112.159    
     15600   280.90356     -3240.6542     -3256.8846      16.230407      8995.0446      10112.159    
     15700   311.67525     -3239.1881     -3257.1965      18.008373      8986.3112      10112.159    
     15800   311.67268     -3239.0983     -3257.1065      18.008224      8669.0195      10112.159    
     15900   295.62807     -3239.5749     -3256.6561      17.081178      8891.3543      10112.159    
     16000   277.95647     -3240.5167     -3256.5769      16.060126      9450.2063      10112.159    
     16100   301.19701     -3241.2459     -3258.6489      17.402948      8488.6502      10112.159    
     16200   293.03931     -3241.1665     -3258.0981      16.931602      8252.0498      10112.159    
     16300   317.32998     -3239.069      -3257.4041      18.335099      8741.9263      10112.159    
     16400   294.3489      -3239.2524     -3256.2597      17.007269      9211.3569      10112.159    
     16500   296.7574      -3239.7611     -3256.9075      17.14643       8973.0268      10112.159    
     16600   303.11795     -3240.2609     -3257.7749      17.513939      8474.6602      10112.159    
     16700   293.54442     -3241.1        -3258.0608      16.960787      8722.3836      10112.159    
     16800   271.74015     -3241.763      -3257.464       15.700951      8732.8738      10112.159    
     16900   297.10548     -3240.337      -3257.5036      17.166542      8861.7141      10112.159    
     17000   305.78938     -3239.0521     -3256.7204      17.668292      9278.6267      10112.159    
     17100   317.96419     -3239.0219     -3257.3937      18.371743      8882.7306      10112.159    
     17200   292.16306     -3240.0307     -3256.9117      16.880973      9295.5503      10112.159    
     17300   303.25104     -3240.3037     -3257.8254      17.521628      8540.7423      10112.159    
     17400   287.46913     -3240.4954     -3257.1052      16.609761      9234.6014      10112.159    
     17500   316.56615     -3239.4525     -3257.7435      18.290966      9036.2928      10112.159    
     17600   297.21658     -3239.069      -3256.242       17.172961      9218.9806      10112.159    
     17700   295.31057     -3239.0002     -3256.063       17.062834      9626.1692      10112.159    
     17800   312.74759     -3239.4232     -3257.4935      18.070332      8978.0998      10112.159    
     17900   281.92601     -3240.9478     -3257.2373      16.289483      9067.6478      10112.159    
     18000   298.46106     -3240.759      -3258.0038      17.244867      8745.033       10112.159    
     18100   291.83154     -3240.1849     -3257.0467      16.861817      9223.9265      10112.159    
     18200   309.25549     -3238.5117     -3256.3802      17.868561      9333.7291      10112.159    
     18300   320.95512     -3238.1705     -3256.7151      18.544557      9094.9793      10112.159    
     18400   300.8052      -3238.9768     -3256.3571      17.380309      9343.3952      10112.159    
     18500   299.15038     -3239.8139     -3257.0986      17.284695      9026.9339      10112.159    
     18600   289.30064     -3240.6224     -3257.338       16.715584      8400.8535      10112.159    
     18700   307.42358     -3240.5366     -3258.2993      17.762715      8889.2776      10112.159    
     18800   291.44063     -3239.8431     -3256.6824      16.839231      9122.6053      10112.159    
     18900   330.38955     -3238.2753     -3257.365       19.089672      8994.8156      10112.159    
     19000   293.07937     -3238.9143     -3255.8483      16.933916      9443.7422      10112.159    
     19100   298.6622      -3240.0894     -3257.3459      17.256488      8880.6988      10112.159    
     19200   288.09627     -3240.7526     -3257.3986      16.645996      8334.844       10112.159    
     19300   296.06599     -3240.4001     -3257.5065      17.106481      9228.7091      10112.159    
     19400   303.9579      -3239.7615     -3257.324       17.56247       8980.9723      10112.159    
     19500   314.16129     -3239.11       -3257.262       18.152015      8928.5026      10112.159    
     19600   305.2433      -3238.8961     -3256.5328      17.636739      9626.2289      10112.159    
     19700   295.87266     -3239.4862     -3256.5815      17.09531       9263.9545      10112.159    
     19800   303.27507     -3240.2665     -3257.7895      17.523017      8862.3139      10112.159    
     19900   287.38697     -3241.1418     -3257.7468      16.605014      9117.8625      10112.159    
     20000   294.72881     -3240.9758     -3258.005       17.02922       8773.7878      10112.159    
     20100   292.17216     -3239.4073     -3256.2888      16.881498      9218.615       10112.159    
     20200   318.59727     -3238.479      -3256.8873      18.408322      9027.0698      10112.159    
     20300   295.69375     -3239.2255     -3256.3105      17.084973      9466.0836      10112.159    
     20400   293.97652     -3240.0291     -3257.0148      16.985753      9067.3403      10112.159    
     20500   304.54398     -3240.7979     -3258.3942      17.596333      8547.3821      10112.159    
     20600   292.39184     -3240.9287     -3257.8229      16.894192      8740.6674      10112.159    
     20700   308.72413     -3238.783      -3256.6208      17.83786       9074.0566      10112.159    
     20800   305.40949     -3238.4592     -3256.1055      17.646342      9584.6551      10112.159    
     20900   310.07969     -3239.1968     -3257.113       17.916182      9187.627       10112.159    
     21000   285.96391     -3240.2906     -3256.8134      16.52279       9133.4978      10112.159    
     21100   311.44422     -3240.358      -3258.353       17.995024      8890.3796      10112.159    
     21200   274.78321     -3240.9682     -3256.8449      15.876777      8657.4927      10112.159    
     21300   305.02745     -3239.4254     -3257.0496      17.624268      9308.4279      10112.159    
     21400   323.85821     -3238.3389     -3257.0512      18.712296      8978.3836      10112.159    
     21500   309.15744     -3239.0188     -3256.8817      17.862896      9356.4242      10112.159    
     21600   298.05155     -3239.9818     -3257.203       17.221205      8862.0341      10112.159    
     21700   297.94475     -3240.6615     -3257.8765      17.215035      8892.2758      10112.159    
     21800   284.31237     -3240.9643     -3257.3916      16.427365      8742.4926      10112.159    
     21900   302.07194     -3240.3997     -3257.8532      17.453501      8778.065       10112.159    
     22000   292.50269     -3240.093      -3256.9936      16.900596      9044.0115      10112.159    
     22100   304.81405     -3239.5297     -3257.1416      17.611938      9111.7651      10112.159    
     22200   312.56496     -3239.2512     -3257.311       18.05978       9161.5236      10112.159    
     22300   302.25381     -3239.4483     -3256.9123      17.464009      9198.2534      10112.159    
     22400   296.47909     -3240.435      -3257.5654      17.13035       8970.2673      10112.159    
     22500   282.30264     -3241.4457     -3257.7569      16.311245      8602.8416      10112.159    
     22600   286.08091     -3241.0247     -3257.5542      16.529551      8967.9935      10112.159    
     22700   307.97534     -3239.2127     -3257.0073      17.794595      8832.8231      10112.159    
     22800   306.9221      -3238.7807     -3256.5144      17.733739      9427.1289      10112.159    
     22900   294.49221     -3239.4933     -3256.5088      17.015549      8956.8305      10112.159    
     23000   300.63926     -3240.0449     -3257.4156      17.370722      8853.0972      10112.159    
     23100   309.69176     -3240.0721     -3257.9659      17.893768      8716.9792      10112.159    
     23200   289.45858     -3240.6473     -3257.372       16.72471       9163.9816      10112.159    
     23300   280.41362     -3242.0833     -3258.2854      16.202098      8598.9819      10112.159    
     23400   282.47156     -3242.0639     -3258.3849      16.321005      8271.086       10112.159    
     23500   290.94963     -3240.5031     -3257.314       16.810861      8795.7711      10112.159    
     23600   304.58819     -3239.713      -3257.3119      17.598888      8976.1413      10112.159    
     23700   303.56004     -3239.5743     -3257.1138      17.539482      8816.1251      10112.159    
     23800   305.90411     -3239.6039     -3257.2788      17.674921      9337.9947      10112.159    
     23900   274.4597      -3240.436      -3256.2941      15.858085      9084.7057      10112.159    
     24000   298.71958     -3240.8122     -3258.072       17.259804      8919.7524      10112.159    
     24100   304.31731     -3240.5087     -3258.092       17.583236      8380.9299      10112.159    
     24200   314.44656     -3239.0214     -3257.1899      18.168497      9352.6664      10112.159    
     24300   301.92006     -3238.7676     -3256.2123      17.444725      9301.2903      10112.159    
     24400   321.67428     -3239.1763     -3257.7624      18.58611       9047.9345      10112.159    
     24500   287.83094     -3240.6881     -3257.3188      16.630666      8863.7594      10112.159    
     24600   290.66066     -3240.7618     -3257.556       16.794165      8970.623       10112.159    
     24700   286.54458     -3240.3125     -3256.8688      16.556341      9124.2179      10112.159    
     24800   310.66496     -3239.2344     -3257.1844      17.949999      9289.6831      10112.159    
     24900   317.82697     -3239.0759     -3257.4397      18.363815      9184.4944      10112.159    
     25000   286.26893     -3240.4451     -3256.9855      16.540414      9129.7123      10112.159    
     25100   286.73768     -3241.9732     -3258.5407      16.567498      8607.1421      10112.159    
     25200   279.2113      -3241.9528     -3258.0854      16.132629      8528.9335      10112.159    
     25300   279.3266      -3241.0499     -3257.1892      16.139291      9005.4737      10112.159    
     25400   298.69263     -3239.9336     -3257.1919      17.258247      9014.965       10112.159    
     25500   304.25815     -3239.3733     -3256.9531      17.579818      9368.9396      10112.159    
     25600   312.89585     -3239.1553     -3257.2342      18.078898      9209.8126      10112.159    
     25700   297.93674     -3239.9076     -3257.1222      17.214572      8818.8649      10112.159    
     25800   289.21815     -3241.2237     -3257.9345      16.710818      8736.9866      10112.159    
     25900   274.05092     -3241.6345     -3257.469       15.834466      8908.8227      10112.159    
     26000   311.76131     -3240.3683     -3258.3817      18.013345      8530.8788      10112.159    
     26100   297.75005     -3239.8162     -3257.02        17.203785      8577.5208      10112.159    
     26200   300.22289     -3239.592      -3256.9387      17.346664      8960.058       10112.159    
     26300   301.11148     -3239.9205     -3257.3185      17.398006      9216.7903      10112.159    
     26400   289.1123      -3240.5962     -3257.3009      16.704702      9172.474       10112.159    
     26500   289.74803     -3240.8704     -3257.6118      16.741434      8894.1438      10112.159    
     26600   297.45567     -3240.6006     -3257.7874      17.186776      9218.9873      10112.159    
     26700   297.1044      -3239.8104     -3256.9769      17.16648       8819.191       10112.159    
     26800   311.09516     -3238.769      -3256.7438      17.974856      9528.5646      10112.159    
     26900   297.17977     -3238.7001     -3255.8709      17.170835      9305.1373      10112.159    
     27000   305.53692     -3239.8024     -3257.4561      17.653705      9058.6987      10112.159    
     27100   306.11146     -3240.9431     -3258.63        17.686901      8704.4455      10112.159    
     27200   286.48949     -3241.2694     -3257.8226      16.553158      8579.4007      10112.159    
     27300   303.20276     -3240.165      -3257.6838      17.518839      9043.9662      10112.159    
     27400   300.75944     -3239.1071     -3256.4848      17.377665      9414.807       10112.159    
     27500   311.13126     -3238.8736     -3256.8506      17.976942      9254.089       10112.159    
     27600   299.82164     -3239.8376     -3257.161       17.32348       8843.1392      10112.159    
     27700   290.68962     -3240.0571     -3256.8529      16.795838      8802.1503      10112.159    
     27800   316.47102     -3239.6787     -3257.9641      18.285469      9090.8896      10112.159    
     27900   292.88037     -3240.2637     -3257.1861      16.922418      9121.3829      10112.159    
     28000   284.43552     -3240.5748     -3257.0093      16.434481      8792.7882      10112.159    
     28100   315.98796     -3239.6827     -3257.9403      18.257558      8849.4437      10112.159    
     28200   289.72052     -3238.974      -3255.7139      16.739844      9117.4361      10112.159    
     28300   319.96739     -3238.5561     -3257.0436      18.487487      9288.5534      10112.159    
     28400   316.3041      -3239.4623     -3257.7381      18.275825      8999.7663      10112.159    
     28500   282.66124     -3241.0368     -3257.3687      16.331964      8504.3932      10112.159    
     28600   290.56184     -3241.084      -3257.8724      16.788455      8718.9394      10112.159    
     28700   302.72898     -3240.4259     -3257.9174      17.491464      8738.7697      10112.159    
     28800   302.26092     -3239.5928     -3257.0572      17.46442       8880.9489      10112.159    
     28900   304.99902     -3238.8909     -3256.5135      17.622625      9515.2826      10112.159    
     29000   298.73134     -3239.0618     -3256.3222      17.260483      9421.0493      10112.159    
     29100   312.54491     -3239.343      -3257.4016      18.058621      8816.6347      10112.159    
     29200   304.54657     -3240.301      -3257.8975      17.596483      8651.3189      10112.159    
     29300   299.11101     -3240.7851     -3258.0675      17.28242       8607.6806      10112.159    
     29400   283.47268     -3240.2793     -3256.6581      16.378849      9091.3777      10112.159    
     29500   306.55457     -3238.6567     -3256.3692      17.712504      9632.6607      10112.159    
     29600   305.251       -3238.8323     -3256.4695      17.637185      8865.2253      10112.159    
     29700   310.17823     -3239.2972     -3257.2191      17.921876      8603.3092      10112.159    
     29800   292.08142     -3240.3214     -3257.1977      16.876256      8825.7304      10112.159    
     29900   269.89642     -3242.4279     -3258.0223      15.594422      8848.5836      10112.159    
     30000   286.27901     -3241.9748     -3258.5158      16.540996      8599.2484      10112.159    
     30100   298.86648     -3240.4905     -3257.7587      17.268291      8829.9521      10112.159    
     30200   294.09211     -3239.7653     -3256.7577      16.992432      9230.7711      10112.159    
     30300   310.41041     -3239.0268     -3256.9621      17.935292      9045.1146      10112.159    
     30400   290.9938      -3239.3069     -3256.1203      16.813414      9214.2495      10112.159    
     30500   295.65637     -3240.6065     -3257.6893      17.082814      8832.6477      10112.159    
     30600   282.74127     -3241.8002     -3258.1368      16.336588      8761.412       10112.159    
     30700   286.8147      -3241.3126     -3257.8845      16.571948      8783.8906      10112.159    
     30800   288.21393     -3240.485      -3257.1378      16.652795      8982.808       10112.159    
     30900   312.81131     -3239.7841     -3257.8581      18.074014      9120.802       10112.159    
     31000   300.19687     -3239.8066     -3257.1517      17.34516       8892.7947      10112.159    
     31100   304.2564      -3239.3364     -3256.9161      17.579717      8920.2999      10112.159    
     31200   307.9932      -3238.1684     -3255.9641      17.795627      9559.9382      10112.159    
     31300   325.22422     -3237.8806     -3256.6718      18.791223      9616.8234      10112.159    
     31400   298.47225     -3239.6873     -3256.9329      17.245513      8953.5851      10112.159    
     31500   287.213       -3240.5371     -3257.1321      16.594962      8877.0189      10112.159    
     31600   297.95909     -3240.2897     -3257.5055      17.215863      9071.6424      10112.159    
     31700   304.17329     -3239.6165     -3257.1914      17.574915      8798.8329      10112.159    
     31800   315.80111     -3238.2654     -3256.5122      18.246763      9178.4439      10112.159    
     31900   307.63898     -3238.0617     -3255.8369      17.77516       9784.8026      10112.159    
     32000   299.78309     -3239.1232     -3256.4445      17.321252      9188.0204      10112.159    
     32100   300.18295     -3239.5201     -3256.8644      17.344356      8989.024       10112.159    
     32200   302.79107     -3239.8741     -3257.3691      17.495051      8707.9297      10112.159    
     32300   304.01472     -3240.2526     -3257.8184      17.565753      8817.0955      10112.159    
     32400   284.17387     -3241.2934     -3257.7127      16.419363      8938.1772      10112.159    
     32500   280.45046     -3241.9996     -3258.2039      16.204227      8626.3782      10112.159    
     32600   295.38052     -3240.7151     -3257.782       17.066875      9168.5822      10112.159    
     32700   304.44609     -3239.5854     -3257.1761      17.590677      8916.0618      10112.159    
     32800   306.89899     -3239.1954     -3256.9278      17.732404      9060.1403      10112.159    
     32900   288.63264     -3239.3564     -3256.0334      16.676988      9443.6861      10112.159    
     33000   308.34977     -3239.6751     -3257.4914      17.816229      9166.3927      10112.159    
     33100   290.86273     -3241.3877     -3258.1936      16.80584       8427.7451      10112.159    
     33200   285.6237      -3241.6413     -3258.1445      16.503133      8857.177       10112.159    
     33300   297.12767     -3240.3945     -3257.5623      17.167824      8757.9765      10112.159    
     33400   299.63321     -3239.8583     -3257.1709      17.312593      9367.9368      10112.159    
     33500   299.86967     -3239.7317     -3257.0579      17.326255      8934.4113      10112.159    
     33600   305.91892     -3239.4965     -3257.1722      17.675777      9385.8563      10112.159    
     33700   300.71488     -3239.3396     -3256.7146      17.375091      8984.8191      10112.159    
     33800   306.91306     -3239.4436     -3257.1768      17.733217      9333.7394      10112.159    
     33900   311.61368     -3240.1086     -3258.1134      18.004815      9069.3813      10112.159    
     34000   279.62488     -3241.111      -3257.2675      16.156525      8570.3946      10112.159    
     34100   301.49994     -3240.7478     -3258.1683      17.420451      8900.1194      10112.159    
     34200   288.29599     -3239.2753     -3255.9329      16.657536      9493.5912      10112.159    
     34300   331.68287     -3238.0866     -3257.251       19.164399      9393.6907      10112.159    
     34400   293.21954     -3239.1415     -3256.0835      16.942015      9416.9624      10112.159    
     34500   319.44955     -3239.7447     -3258.2022      18.457566      9131.967       10112.159    
     34600   281.50329     -3241.0788     -3257.3439      16.265059      9101.7973      10112.159    
     34700   289.91811     -3240.7001     -3257.4514      16.751261      8878.7301      10112.159    
     34800   301.06956     -3239.8183     -3257.2138      17.395584      9171.3769      10112.159    
     34900   303.18502     -3239.473      -3256.9908      17.517813      9058.3848      10112.159    
     35000   306.67851     -3239.7659     -3257.4856      17.719665      9228.2505      10112.159    
     35100   290.19365     -3240.492      -3257.2591      16.767182      9012.1463      10112.159    
     35200   298.69592     -3241.0652     -3258.3237      17.258436      8766.8014      10112.159    
     35300   273.69379     -3241.7501     -3257.5639      15.813832      8709.223       10112.159    
     35400   299.6587      -3240.6182     -3257.9322      17.314065      8994.389       10112.159    
     35500   316.4825      -3239.5329     -3257.819       18.286132      9009.4919      10112.159    
     35600   299.08555     -3239.3476     -3256.6285      17.280949      9099.1181      10112.159    
     35700   309.84876     -3239.0104     -3256.9132      17.90284       9598.1554      10112.159    
     35800   289.43622     -3239.7791     -3256.5025      16.723418      9052.77        10112.159    
     35900   296.43374     -3240.9779     -3258.1056      17.12773       8472.064       10112.159    
     36000   288.87768     -3241.2878     -3257.9789      16.691146      8975.7709      10112.159    
     36100   300.64959     -3240.2322     -3257.6035      17.371318      8982.5663      10112.159    
     36200   312.31946     -3239.0042     -3257.0498      18.045595      9242.6888      10112.159    
     36300   297.26572     -3239.0089     -3256.1847      17.175801      9167.1947      10112.159    
     36400   306.96686     -3239.4202     -3257.1565      17.736326      9255.5007      10112.159    
     36500   289.41754     -3240.5749     -3257.2973      16.722338      8643.691       10112.159    
     36600   307.12324     -3240.4146     -3258.16        17.745361      9001.3267      10112.159    
     36700   281.7446      -3239.9493     -3256.2283      16.279001      9101.4745      10112.159    
     36800   318.09985     -3238.1856     -3256.5652      18.379582      9453.1358      10112.159    
     36900   321.05059     -3237.9941     -3256.5441      18.550074      9431.0849      10112.159    
     37000   301.51603     -3240.2778     -3257.6992      17.421381      8898.054       10112.159    
     37100   281.67457     -3240.9207     -3257.1956      16.274955      8858.117       10112.159    
     37200   296.74868     -3240.3036     -3257.4495      17.145926      8995.3185      10112.159    
     37300   300.95111     -3239.3559     -3256.7446      17.38874       9078.3358      10112.159    
     37400   316.97075     -3238.5277     -3256.8421      18.314343      9273.2464      10112.159    
     37500   307.26919     -3239.1052     -3256.859       17.753794      9195.2492      10112.159    
     37600   297.37515     -3240.878      -3258.0602      17.182124      8894.1415      10112.159    
     37700   267.59352     -3241.468      -3256.9294      15.461362      8821.8151      10112.159    
     37800   298.56404     -3240.3271     -3257.578       17.250816      8690.3644      10112.159    
     37900   309.32112     -3239.504      -3257.3763      17.872353      9123.6999      10112.159    
     38000   294.31646     -3239.4685     -3256.4739      17.005395      9126.081       10112.159    
     38100   310.16644     -3239.4021     -3257.3233      17.921195      8864.0631      10112.159    
     38200   304.30641     -3240.6163     -3258.1989      17.582607      8596.9353      10112.159    
     38300   278.75227     -3241.9085     -3258.0146      16.106107      8638.3566      10112.159    
     38400   271.54061     -3241.281      -3256.9705      15.689422      8995.0748      10112.159    
     38500   309.78162     -3239.8077     -3257.7067      17.898961      8815.2011      10112.159    
     38600   313.97553     -3239.4298     -3257.5711      18.141282      9042.7341      10112.159    
     38700   294.41966     -3239.5876     -3256.5989      17.011357      8920.4178      10112.159    
     38800   298.09405     -3239.8294     -3257.0531      17.223661      9099.9679      10112.159    
     38900   279.10893     -3241.1885     -3257.3152      16.126714      8836.6464      10112.159    
     39000   302.80293     -3241.0642     -3258.5599      17.495737      8449.366       10112.159    
     39100   286.83484     -3240.1131     -3256.6862      16.573112      9259.6693      10112.159    
     39200   315.22604     -3238.3512     -3256.5647      18.213535      9228.6595      10112.159    
     39300   308.65892     -3238.8515     -3256.6856      17.834092      9107.0799      10112.159    
     39400   293.76016     -3240.0656     -3257.0388      16.973252      8820.3356      10112.159    
     39500   308.32175     -3240.4067     -3258.2213      17.81461       8862.9744      10112.159    
     39600   282.23693     -3240.9997     -3257.3072      16.307448      9082.1485      10112.159    
     39700   294.61754     -3240.7748     -3257.7976      17.022791      8845.6976      10112.159    
     39800   303.82713     -3239.1473     -3256.7022      17.554914      8971.2157      10112.159    
     39900   308.07872     -3238.6339     -3256.4345      17.800568      9138.1068      10112.159    
     40000   304.18587     -3239.4948     -3257.0705      17.575642      8833.05        10112.159    
     40100   306.45758     -3240.5343     -3258.2412      17.7069        8757.0426      10112.159    
     40200   285.38152     -3240.9999     -3257.489       16.48914       8760.3941      10112.159    
     40300   296.87108     -3240.5        -3257.653       17.152999      9149.6849      10112.159    
     40400   287.65351     -3240.1967     -3256.8171      16.620414      8936.0789      10112.159    
     40500   294.5856      -3239.6208     -3256.6418      17.020945      9039.1958      10112.159    
     40600   325.38645     -3238.962      -3257.7626      18.800597      9528.6411      10112.159    
     40700   288.84014     -3240.4297     -3257.1187      16.688977      8981.3903      10112.159    
     40800   286.38076     -3241.3703     -3257.9171      16.546875      8442.7699      10112.159    
     40900   309.44024     -3240.6088     -3258.4881      17.879236      8605.0064      10112.159    
     41000   285.88071     -3240.0801     -3256.5981      16.517983      9251.7311      10112.159    
     41100   289.60083     -3239.6009     -3256.3339      16.732929      9446.286       10112.159    
     41200   318.21546     -3239.1551     -3257.5413      18.386261      8955.6897      10112.159    
     41300   313.23691     -3239.2758     -3257.3745      18.098605      8879.8606      10112.159    
     41400   296.66565     -3239.8799     -3257.0211      17.141129      8806.7534      10112.159    
     41500   300.62739     -3240.2064     -3257.5765      17.370036      8795.3334      10112.159    
     41600   286.70884     -3240.4288     -3256.9946      16.565831      9427.6405      10112.159    
     41700   318.70239     -3239.1815     -3257.5959      18.414396      8921.2297      10112.159    
     41800   325.59304     -3237.8474     -3256.66        18.812533      9213.8544      10112.159    
     41900   298.81657     -3238.6169     -3255.8823      17.265408      9199.8533      10112.159    
     42000   303.83465     -3239.5132     -3257.0685      17.555349      9155.8122      10112.159    
     42100   298.15453     -3239.8        -3257.0271      17.227155      8878.7571      10112.159    
     42200   314.05886     -3240.1714     -3258.3175      18.146096      8769.4819      10112.159    
     42300   284.21882     -3241.134      -3257.556       16.42196       8661.3735      10112.159    
     42400   295.86943     -3240.5341     -3257.6293      17.095124      9208.8981      10112.159    
     42500   282.62326     -3240.1027     -3256.4325      16.32977       8880.9953      10112.159    
     42600   310.45805     -3239.6322     -3257.5703      17.938044      8934.1433      10112.159    
     42700   293.73995     -3239.7977     -3256.7698      16.972084      8935.3856      10112.159    
     42800   297.59717     -3240.1269     -3257.3219      17.194951      8793.9574      10112.159    
     42900   294.18754     -3240.8953     -3257.8932      16.997945      8712.5538      10112.159    
     43000   288.4752      -3240.9949     -3257.6628      16.66789       8854.1412      10112.159    
     43100   295.75955     -3239.904      -3256.9927      17.088775      8989.8351      10112.159    
     43200   295.16568     -3238.7772     -3255.8316      17.054462      9324.2217      10112.159    
     43300   324.98948     -3238.0446     -3256.8222      18.77766       9027.7101      10112.159    
     43400   300.28464     -3239.2509     -3256.6012      17.350232      8977.8633      10112.159    
     43500   304.19866     -3240.3546     -3257.931       17.576381      8861.1118      10112.159    
     43600   297.74406     -3240.3603     -3257.5638      17.203439      8932.593       10112.159    
     43700   293.98532     -3240.0434     -3257.0297      16.986262      8924.4081      10112.159    
     43800   289.29399     -3239.5004     -3256.2156      16.7152        9321.2877      10112.159    
     43900   330.46258     -3238.3262     -3257.4201      19.093891      8902.6751      10112.159    
     44000   324.37838     -3238.5682     -3257.3106      18.742351      8841.7577      10112.159    
     44100   291.3631      -3240.5024     -3257.3371      16.834752      8827.2605      10112.159    
     44200   269.39411     -3241.3343     -3256.8997      15.565399      8736.5901      10112.159    
     44300   296.64032     -3240.4201     -3257.5597      17.139665      8624.533       10112.159    
     44400   309.72223     -3239.5001     -3257.3956      17.895529      8863.3236      10112.159    
     44500   323.09089     -3238.8823     -3257.5503      18.667961      8789.9013      10112.159    
     44600   305.74602     -3239.3495     -3257.0153      17.665786      9258.6877      10112.159    
     44700   278.1379      -3240.0918     -3256.1624      16.070609      9140.4772      10112.159    
     44800   306.21403     -3239.8764     -3257.5692      17.692828      8934.8041      10112.159    
     44900   309.08305     -3240.0517     -3257.9103      17.858597      8354.2811      10112.159    
     45000   305.94676     -3240.3032     -3257.9806      17.677385      8455.0287      10112.159    
     45100   301.24087     -3240.188      -3257.5935      17.405482      8839.1851      10112.159    
     45200   297.18303     -3239.3959     -3256.567       17.171023      8964.5536      10112.159    
     45300   292.53886     -3238.689      -3255.5917      16.902686      9434.149       10112.159    
     45400   324.80892     -3238.2725     -3257.0397      18.767227      8974.9038      10112.159    
     45500   313.31459     -3239.8975     -3258.0006      18.103093      8610.2082      10112.159    
     45600   294.5696      -3240.7144     -3257.7344      17.020021      8607.3291      10112.159    
     45700   281.35102     -3240.5815     -3256.8378      16.256261      8895.0773      10112.159    
     45800   298.59059     -3239.6204     -3256.8728      17.252351      8961.6083      10112.159    
     45900   314.44855     -3238.7796     -3256.9482      18.168612      8765.1617      10112.159    
     46000   313.33991     -3238.7185     -3256.8231      18.104556      9074.5398      10112.159    
     46100   298.36736     -3239.6616     -3256.901       17.239453      8833.7328      10112.159    
     46200   290.62942     -3240.5296     -3257.3219      16.79236       8756.137       10112.159    
     46300   292.91188     -3240.4919     -3257.4162      16.924239      8617.1611      10112.159    
     46400   294.39295     -3240.1287     -3257.1385      17.009814      9330.1375      10112.159    
     46500   314.27307     -3239.0663     -3257.2248      18.158473      9192.7556      10112.159    
     46600   314.09734     -3238.3153     -3256.4636      18.148319      9572.7204      10112.159    
     46700   291.55418     -3238.9221     -3255.7679      16.845792      9236.2589      10112.159    
     46800   292.19003     -3240.7061     -3257.5887      16.882531      8783.8378      10112.159    
     46900   303.92346     -3240.978      -3258.5385      17.56048       8743.3506      10112.159    
     47000   289.90133     -3240.661      -3257.4113      16.750292      8760.757       10112.159    
     47100   304.56029     -3239.5553     -3257.1526      17.597275      8804.3203      10112.159    
     47200   308.5192      -3238.7857     -3256.6117      17.826019      9504.1813      10112.159    
     47300   322.2366      -3238.0106     -3256.6292      18.6186        9666.9856      10112.159    
     47400   312.028       -3238.1526     -3256.1813      18.028755      9133.4784      10112.159    
     47500   296.42266     -3239.5117     -3256.6388      17.127089      9060.1772      10112.159    
     47600   302.92283     -3240.5058     -3258.0085      17.502664      8629.4135      10112.159    
     47700   301.48761     -3241.0956     -3258.5153      17.419739      8463.5897      10112.159    
     47800   286.60602     -3240.9983     -3257.5582      16.559891      8892.911       10112.159    
     47900   300.25543     -3239.1532     -3256.5018      17.348544      9491.1611      10112.159    
     48000   303.34492     -3238.6702     -3256.1973      17.527053      9193.5097      10112.159    
     48100   306.65462     -3239.0416     -3256.7599      17.718284      8877.9841      10112.159    
     48200   285.66558     -3240.1811     -3256.6866      16.505553      8948.3071      10112.159    
     48300   307.54565     -3240.9284     -3258.6982      17.769768      8610.9019      10112.159    
     48400   265.7717      -3242.5922     -3257.9483      15.356099      8550.5959      10112.159    
     48500   299.44568     -3241.83       -3259.1317      17.301757      8516.2288      10112.159    
     48600   297.88195     -3239.8002     -3257.0116      17.211406      8615.6304      10112.159    
     48700   291.8856      -3238.9836     -3255.8486      16.864941      9377.1483      10112.159    
     48800   312.43207     -3238.3249     -3256.377       18.052101      9693.4593      10112.159    
     48900   303.80903     -3239.269      -3256.8228      17.553869      8960.2876      10112.159    
     49000   300.41154     -3240.5268     -3257.8843      17.357564      8835.8747      10112.159    
     49100   282.51408     -3240.8269     -3257.1503      16.323462      9117.7512      10112.159    
     49200   300.31003     -3240.1718     -3257.5235      17.351699      8849.6965      10112.159    
     49300   305.72519     -3239.859      -3257.5235      17.664583      8978.815       10112.159    
     49400   301.3173      -3239.5453     -3256.9552      17.409898      9190.8039      10112.159    
     49500   297.77282     -3239.3338     -3256.5389      17.2051        9150.2026      10112.159    
     49600   311.71475     -3239.3947     -3257.4054      18.010655      9100.3241      10112.159    
     49700   302.03251     -3239.8662     -3257.3175      17.451223      9065.7658      10112.159    
     49800   305.02039     -3240.0171     -3257.641       17.62386       8920.323       10112.159    
     49900   296.73355     -3240.2904     -3257.4355      17.145052      9227.8119      10112.159    
     50000   274.24951     -3241.1722     -3257.0181      15.845941      8908.0007      10112.159    
     50100   306.88831     -3240.7348     -3258.4666      17.731787      8765.7242      10112.159    
     50200   299.32832     -3239.836      -3257.131       17.294976      9145.3559      10112.159    
     50300   311.32691     -3238.6101     -3256.5983      17.988246      9010.4269      10112.159    
     50400   303.25799     -3238.2898     -3255.8118      17.52203       9524.4316      10112.159    
     50500   300.75903     -3240.0116     -3257.3892      17.377642      8872.5867      10112.159    
     50600   280.90243     -3241.1028     -3257.3332      16.230341      8522.6524      10112.159    
     50700   304.43033     -3240.2937     -3257.8835      17.589767      9018.6778      10112.159    
     50800   296.26299     -3239.4466     -3256.5645      17.117864      9026.7226      10112.159    
     50900   316.66451     -3238.5713     -3256.868       18.296649      9375.818       10112.159    
     51000   307.75243     -3239.3513     -3257.133       17.781715      8905.4175      10112.159    
     51100   288.47807     -3240.8738     -3257.5418      16.668057      8856.7991      10112.159    
     51200   297.66786     -3240.6519     -3257.8509      17.199036      8741.7606      10112.159    
     51300   311.51158     -3239.7022     -3257.7012      17.998916      8484.5751      10112.159    
     51400   292.91747     -3239.4216     -3256.3462      16.924562      9251.3846      10112.159    
     51500   302.55211     -3239.4286     -3256.9098      17.481244      9211.4821      10112.159    
     51600   294.45073     -3240.4018     -3257.415       17.013153      8658.3031      10112.159    
     51700   298.28694     -3241.6523     -3258.8871      17.234806      8594.3685      10112.159    
     51800   283.74863     -3241.6632     -3258.058       16.394793      8464.2623      10112.159    
     51900   293.9258      -3240.1571     -3257.14        16.982822      8852.1116      10112.159    
     52000   302.30974     -3239.4155     -3256.8828      17.467241      9111.8338      10112.159    
     52100   299.3373      -3239.3266     -3256.6221      17.295495      9197.8958      10112.159    
     52200   295.24253     -3240.2531     -3257.312       17.058902      8943.6467      10112.159    
     52300   307.80774     -3241.0983     -3258.8832      17.784911      8315.7039      10112.159    
     52400   278.09982     -3241.083      -3257.1514      16.068408      8944.6414      10112.159    
     52500   296.32966     -3240.1102     -3257.2319      17.121716      8993.6716      10112.159    
     52600   300.86968     -3239.9054     -3257.2894      17.384035      8936.4489      10112.159    
     52700   297.61859     -3239.7017     -3256.8979      17.196189      9328.6072      10112.159    
     52800   303.93515     -3239.5849     -3257.146       17.561156      8999.4619      10112.159    
     52900   287.66603     -3240.3746     -3256.9958      16.621137      8822.1345      10112.159    
     53000   293.59303     -3240.8137     -3257.7773      16.963595      8870.7127      10112.159    
     53100   283.75603     -3241.216      -3257.6113      16.395221      8866.7167      10112.159    
     53200   305.08796     -3240.1725     -3257.8002      17.627764      8690.808       10112.159    
     53300   298.90274     -3239.1383     -3256.4087      17.270386      9236.7496      10112.159    
     53400   310.17673     -3238.7971     -3256.7189      17.92179       9109.8219      10112.159    
     53500   287.87886     -3240.0443     -3256.6777      16.633435      9057.5075      10112.159    
     53600   290.21601     -3241.2804     -3258.0488      16.768474      8635.4705      10112.159    
     53700   299.24417     -3241.1984     -3258.4885      17.290114      8616.324       10112.159    
     53800   293.91473     -3240.5824     -3257.5646      16.982183      8829.1501      10112.159    
     53900   301.98305     -3239.6806     -3257.129       17.448365      8762.0864      10112.159    
     54000   311.75838     -3239.2429     -3257.2561      18.013176      8708.9846      10112.159    
     54100   301.48157     -3239.5376     -3256.957       17.419389      8822.7767      10112.159    
     54200   285.4855      -3241.3393     -3257.8344      16.495148      8743.091       10112.159    
     54300   291.23355     -3241.7205     -3258.5477      16.827266      8396.9447      10112.159    
     54400   276.20762     -3240.6773     -3256.6364      15.959079      8736.6595      10112.159    
     54500   309.38231     -3239.512      -3257.3879      17.875889      9034.7849      10112.159    
     54600   294.97585     -3239.9229     -3256.9664      17.043494      8919.6947      10112.159    
     54700   303.8598      -3240.197      -3257.7538      17.556802      8650.9152      10112.159    
     54800   309.16219     -3239.9981     -3257.8613      17.86317       8720.1973      10112.159    
     54900   297.2041      -3239.3444     -3256.5167      17.17224       9202.7827      10112.159    
     55000   298.96279     -3238.504      -3255.7779      17.273856      9420.126       10112.159    
     55100   316.26758     -3238.3555     -3256.6292      18.273715      8872.7687      10112.159    
     55200   297.85469     -3239.8407     -3257.0506      17.209831      8699.6621      10112.159    
     55300   304.47058     -3240.4059     -3257.998       17.592092      8854.6472      10112.159    
     55400   288.28141     -3240.6645     -3257.3211      16.656694      8832.4103      10112.159    
     55500   302.68591     -3240.2137     -3257.7027      17.488976      9142.9389      10112.159    
     55600   300.3345      -3240.048      -3257.4011      17.353112      8809.0211      10112.159    
     55700   302.29274     -3239.6801     -3257.1463      17.466258      9154.5367      10112.159    
     55800   309.56495     -3239.4249     -3257.3113      17.886441      9263.004       10112.159    
     55900   293.37685     -3240.0012     -3256.9524      16.951104      9282.7946      10112.159    
     56000   287.24594     -3241.0212     -3257.6181      16.596865      8825.0914      10112.159    
     56100   298.77734     -3241.1335     -3258.3967      17.263141      8704.1618      10112.159    
     56200   306.86433     -3239.3097     -3257.0401      17.730402      9011.8818      10112.159    
     56300   304.35458     -3238.359      -3255.9444      17.58539       9483.3698      10112.159    
     56400   297.59121     -3238.9637     -3256.1583      17.194607      9590.5884      10112.159    
     56500   290.77272     -3240.1352     -3256.9359      16.80064       9185.8288      10112.159    
     56600   317.44471     -3240.4275     -3258.7692      18.341728      8446.1757      10112.159    
     56700   296.05138     -3240.8151     -3257.9207      17.105637      8864.7047      10112.159    
     56800   285.71701     -3240.0685     -3256.577       16.508524      8837.8355      10112.159    
     56900   306.18716     -3238.2754     -3255.9666      17.691275      9629.8029      10112.159    
     57000   310.23867     -3238.5331     -3256.4585      17.925368      9331.1727      10112.159    
     57100   308.00285     -3239.6734     -3257.4696      17.796185      8839.2381      10112.159    
     57200   304.30085     -3240.5833     -3258.1656      17.582285      8778.499       10112.159    
     57300   284.16395     -3240.9645     -3257.3833      16.41879       8890.6706      10112.159    
     57400   283.99515     -3240.3315     -3256.7406      16.409037      9128.1827      10112.159    
     57500   313.20629     -3238.8813     -3256.9782      18.096835      9354.5573      10112.159    
     57600   307.5659      -3238.8228     -3256.5937      17.770938      9594.5477      10112.159    
     57700   299.90346     -3239.0028     -3256.331       17.328208      9434.8856      10112.159    
     57800   300.35338     -3239.6838     -3257.0381      17.354203      8922.6831      10112.159    
     57900   290.94906     -3240.6151     -3257.426       16.810828      8990.3627      10112.159    
     58000   288.35357     -3241.0642     -3257.7251      16.660863      8563.2193      10112.159    
     58100   304.24755     -3240.9949     -3258.5741      17.579206      8660.3611      10112.159    
     58200   303.17053     -3239.5032     -3257.0202      17.516976      9125.3198      10112.159    
     58300   307.32677     -3238.7046     -3256.4617      17.757121      9197.7095      10112.159    
     58400   292.31499     -3239.1888     -3256.0785      16.889751      9556.7044      10112.159    
     58500   293.1336      -3240.4396     -3257.3767      16.93705       8995.3161      10112.159    
     58600   290.82447     -3241.2321     -3258.0357      16.80363       8504.6527      10112.159    
     58700   305.00099     -3240.8098     -3258.4325      17.622739      8540.6517      10112.159    
     58800   299.50676     -3240.5882     -3257.8935      17.305287      8912.919       10112.159    
     58900   274.22738     -3240.1993     -3256.044       15.844662      9154.3303      10112.159    
     59000   315.05512     -3239.0312     -3257.2349      18.20366       9200.4242      10112.159    
     59100   306.80076     -3239.124      -3256.8508      17.726729      9429.063       10112.159    
     59200   308.58139     -3239.6525     -3257.4821      17.829612      8918.8063      10112.159    
     59300   300.00584     -3240.2183     -3257.5524      17.334123      8932.2309      10112.159    
     59400   294.43546     -3240.2886     -3257.3009      17.01227       9127.5334      10112.159    
     59500   302.50226     -3239.9606     -3257.4389      17.478364      8844.3043      10112.159    
     59600   298.86711     -3240.0092     -3257.2775      17.268328      9273.0585      10112.159    
     59700   298.43763     -3240.091      -3257.3345      17.243513      8981.0591      10112.159    
     59800   306.28284     -3239.0408     -3256.7376      17.696803      9109.5121      10112.159    
     59900   299.4709      -3238.3907     -3255.6939      17.303214      9754.7661      10112.159    
     60000   316.93853     -3238.8416     -3257.1541      18.312482      9062.7684      10112.159    
     60100   298.83131     -3240.5121     -3257.7783      17.266259      8780.3848      10112.159    
     60200   294.89611     -3240.8857     -3257.9246      17.038886      8802.6747      10112.159    
     60300   299.39959     -3240.4671     -3257.7662      17.299094      8652.1283      10112.159    
     60400   304.61013     -3238.8792     -3256.4794      17.600156      9360.8729      10112.159    
     60500   307.41922     -3238.3866     -3256.149       17.762463      9419.4756      10112.159    
     60600   301.5251      -3239.0169     -3256.4388      17.421905      9294.1887      10112.159    
     60700   297.69494     -3239.8719     -3257.0725      17.200601      8989.4854      10112.159    
     60800   309.07352     -3240.5624     -3258.4205      17.858047      8874.0979      10112.159    
     60900   293.61821     -3240.8302     -3257.7953      16.96505       8818.2521      10112.159    
     61000   284.98543     -3240.481      -3256.9472      16.466255      9065.083       10112.159    
     61100   296.7887      -3240.0337     -3257.1819      17.148239      9477.7729      10112.159    
     61200   295.09216     -3240.0284     -3257.0786      17.050214      8567.9376      10112.159    
     61300   322.70237     -3239.2241     -3257.8696      18.645512      8806.8775      10112.159    
     61400   304.81731     -3238.6386     -3256.2507      17.612126      9367.0755      10112.159    
     61500   292.21265     -3239.6375     -3256.5214      16.883838      8820.6055      10112.159    
     61600   301.52245     -3241.1143     -3258.536       17.421751      8364.7587      10112.159    
     61700   284.05132     -3241.238      -3257.6503      16.412282      8174.3826      10112.159    
     61800   287.39123     -3240.2615     -3256.8668      16.60526       8856.9467      10112.159    
     61900   303.15361     -3239.3989     -3256.9149      17.515999      9195.378       10112.159    
     62000   300.90195     -3239.3877     -3256.7736      17.3859        8886.3419      10112.159    
     62100   311.81614     -3239.6315     -3257.648       18.016514      9103.3649      10112.159    
     62200   286.03994     -3241.2672     -3257.7944      16.527183      8655.5457      10112.159    
     62300   285.49234     -3241.8537     -3258.3493      16.495543      8561.5554      10112.159    
     62400   302.60418     -3240.7651     -3258.2493      17.484253      9085.2209      10112.159    
     62500   283.59967     -3239.9022     -3256.2884      16.386186      9194.6077      10112.159    
     62600   295.05399     -3239.5682     -3256.6162      17.048009      9141.7217      10112.159    
     62700   316.30377     -3239.257      -3257.5328      18.275806      9280.6394      10112.159    
     62800   293.44401     -3239.8985     -3256.8535      16.954985      8972.9798      10112.159    
     62900   294.15847     -3241.2526     -3258.2489      16.996266      8981.4664      10112.159    
     63000   287.54594     -3241.677      -3258.2912      16.614199      8251.8376      10112.159    
     63100   289.91629     -3240.1453     -3256.8964      16.751156      9009.8132      10112.159    
     63200   309.13171     -3239.2074     -3257.0688      17.861409      9126.2481      10112.159    
     63300   298.82623     -3239.4638     -3256.7298      17.265966      8958.0625      10112.159    
     63400   308.27019     -3239.7163     -3257.5279      17.811631      9181.1597      10112.159    
     63500   289.62195     -3240.5413     -3257.2755      16.734149      8830.3902      10112.159    
     63600   279.74942     -3241.3156     -3257.4793      16.163721      9188.1409      10112.159    
     63700   297.30694     -3241.2345     -3258.4127      17.178182      8269.7876      10112.159    
     63800   312.77262     -3239.4415     -3257.5133      18.071779      8643.4063      10112.159    
     63900   305.14783     -3238.8165     -3256.4477      17.631223      9435.55        10112.159    
     64000   298.94289     -3239.1116     -3256.3843      17.272706      9137.5423      10112.159    
     64100   300.60878     -3240.1054     -3257.4743      17.36896       9015.4514      10112.159    
     64200   294.05993     -3241.097      -3258.0876      16.990572      8761.4616      10112.159    
     64300   295.97256     -3240.9765     -3258.0776      17.101083      8656.3707      10112.159    
     64400   287.61998     -3240.6525     -3257.271       16.618477      8757.688       10112.159    
     64500   305.07182     -3239.8199     -3257.4467      17.626831      9180.3711      10112.159    
     64600   302.45223     -3239.3164     -3256.7918      17.475474      9191.8327      10112.159    
     64700   307.23333     -3238.7876     -3256.5393      17.751722      9156.8119      10112.159    
     64800   318.51725     -3238.3832     -3256.7869      18.403699      9385.5855      10112.159    
     64900   304.32597     -3239.5824     -3257.1661      17.583737      9068.5379      10112.159    
     65000   287.21914     -3240.7336     -3257.329       16.595316      8477.6065      10112.159    
     65100   288.01202     -3240.5725     -3257.2136      16.641129      8931.002       10112.159    
     65200   311.88776     -3239.6958     -3257.7165      18.020652      8819.9474      10112.159    
     65300   313.7645      -3238.5446     -3256.6737      18.129088      9069.5966      10112.159    
     65400   316.96865     -3237.2171     -3255.5314      18.314222      9614.9726      10112.159    
     65500   313.30136     -3238.2206     -3256.323       18.102329      9200.2658      10112.159    
     65600   309.54544     -3239.2445     -3257.1298      17.885314      9041.6316      10112.159    
     65700   292.12034     -3240.3374     -3257.2159      16.878504      8937.3041      10112.159    
     65800   311.8477      -3240.286      -3258.3043      18.018337      8166.6899      10112.159    
     65900   279.12662     -3240.25       -3256.3777      16.127737      9418.9696      10112.159    
     66000   306.66974     -3238.9201     -3256.6393      17.719159      9380.0413      10112.159    
     66100   305.25744     -3238.057      -3255.6946      17.637557      9404.8828      10112.159    
     66200   325.57925     -3238.5463     -3257.358       18.811736      9079.6586      10112.159    
     66300   287.2331      -3240.6642     -3257.2604      16.596123      9327.9865      10112.159    
     66400   278.33189     -3240.8792     -3256.9611      16.081818      8599.7025      10112.159    
     66500   302.13601     -3240.0339     -3257.4911      17.457203      8900.7512      10112.159    
     66600   313.50273     -3238.9885     -3257.1025      18.113964      8973.5192      10112.159    
     66700   308.16533     -3238.52       -3256.3256      17.805572      9212.1584      10112.159    
     66800   290.67604     -3239.4677     -3256.2627      16.795054      9169.163       10112.159    
     66900   293.0018      -3241.0206     -3257.95        16.929435      8576.9658      10112.159    
     67000   305.31439     -3240.9917     -3258.6325      17.640847      8724.4605      10112.159    
     67100   298.02446     -3240.2233     -3257.443       17.21964       8777.7363      10112.159    
     67200   301.61372     -3239.0661     -3256.4932      17.427025      8863.2808      10112.159    
     67300   304.48197     -3239.0657     -3256.6584      17.59275       9090.7169      10112.159    
     67400   304.98991     -3239.6603     -3257.2824      17.622099      8531.7154      10112.159    
     67500   297.83257     -3240.0769     -3257.2855      17.208553      8613.3765      10112.159    
     67600   300.86995     -3240.1567     -3257.5407      17.384051      8755.5933      10112.159    
     67700   288.00535     -3240.6153     -3257.2561      16.640743      8705.7495      10112.159    
     67800   292.56886     -3240.9494     -3257.8538      16.904419      8406.2367      10112.159    
     67900   293.51717     -3240.658      -3257.6172      16.959212      8676.7105      10112.159    
     68000   338.91784     -3239.2462     -3258.8287      19.58243       8613.5211      10112.159    
     68100   281.34002     -3239.5208     -3255.7764      16.255625      9086.6904      10112.159    
     68200   307.36166     -3238.9419     -3256.7011      17.759137      9284.4479      10112.159    
     68300   293.21716     -3239.9512     -3256.8931      16.941878      9043.8089      10112.159    
     68400   292.19426     -3241.0219     -3257.9047      16.882775      8545.0233      10112.159    
     68500   300.61648     -3240.8101     -3258.1795      17.369405      8575.4769      10112.159    
     68600   304.7917      -3239.7874     -3257.3981      17.610646      8606.881       10112.159    
     68700   295.85811     -3238.8544     -3255.9489      17.09447       9113.1838      10112.159    
     68800   314.01176     -3238.9521     -3257.0955      18.143375      8980.1393      10112.159    
     68900   287.89756     -3239.7236     -3256.3582      16.634515      9091.3099      10112.159    
     69000   306.56288     -3239.9367     -3257.6497      17.712984      8752.4561      10112.159    
     69100   286.4819      -3240.7961     -3257.3488      16.55272       8547.4369      10112.159    
     69200   272.70008     -3242.327      -3258.0835      15.756416      8123.486       10112.159    
     69300   286.76883     -3242.007      -3258.5763      16.569298      8501.0615      10112.159    
     69400   296.66843     -3240.7873     -3257.9286      17.14129       8709.6408      10112.159    
     69500   297.86605     -3239.9863     -3257.1968      17.210487      9138.8139      10112.159    
     69600   296.55321     -3239.4829     -3256.6176      17.134633      8869.3485      10112.159    
     69700   303.90553     -3239.4078     -3256.9672      17.559444      9118.6092      10112.159    
     69800   291.84626     -3240.4371     -3257.2997      16.862668      9046.4711      10112.159    
     69900   293.31483     -3241.2857     -3258.2332      16.947521      8500.6282      10112.159    
     70000   288.64379     -3241.1032     -3257.7808      16.677632      8816.0156      10112.159    
     70100   312.41142     -3239.4057     -3257.4566      18.050909      8697.05        10112.159    
     70200   300.65435     -3238.6365     -3256.0081      17.371593      9494.9478      10112.159    
     70300   317.79775     -3238.935      -3257.2971      18.362127      8810.6291      10112.159    
     70400   308.059       -3239.9116     -3257.7111      17.799429      9152.8147      10112.159    
     70500   296.02979     -3240.1776     -3257.282       17.104389      8831.3088      10112.159    
     70600   309.51568     -3239.8648     -3257.7484      17.883595      8918.9286      10112.159    
     70700   289.46331     -3240.2301     -3256.9551      16.724983      8799.7496      10112.159    
     70800   286.78656     -3241.3333     -3257.9036      16.570322      8420.8466      10112.159    
     70900   288.22942     -3241.755      -3258.4087      16.653689      8546.8201      10112.159    
     71000   309.26349     -3240.373      -3258.242       17.869023      8704.938       10112.159    
     71100   284.72144     -3239.6951     -3256.1462      16.451001      9212.5228      10112.159    
     71200   306.67998     -3239.2167     -3256.9365      17.71975       9055.5593      10112.159    
     71300   309.34077     -3239.5813     -3257.4548      17.873488      9130.366       10112.159    
     71400   271.08843     -3241.3671     -3257.0304      15.663295      8885.7017      10112.159    
     71500   291.91009     -3241.23       -3258.0964      16.866356      8772.1679      10112.159    
     71600   300.16175     -3240.5257     -3257.8688      17.343131      8528.1602      10112.159    
     71700   315.1653      -3239.8057     -3258.0157      18.210026      8651.8008      10112.159    
     71800   282.04381     -3239.9125     -3256.2088      16.29629       9310.8644      10112.159    
     71900   303.61294     -3239.6214     -3257.1639      17.542539      9068.7561      10112.159    
     72000   300.28394     -3239.9194     -3257.2696      17.350191      8725.1508      10112.159    
     72100   298.0777      -3240.2676     -3257.4903      17.222717      8591.2421      10112.159    
     72200   298.51963     -3240.2076     -3257.4559      17.248251      9196.1528      10112.159    
     72300   291.37245     -3240.3289     -3257.1642      16.835292      8760.597       10112.159    
     72400   303.21536     -3239.9328     -3257.4524      17.519567      8935.1282      10112.159    
     72500   298.49559     -3239.2787     -3256.5256      17.246861      8965.2451      10112.159    
     72600   326.20925     -3238.3147     -3257.1628      18.848137      9065.3037      10112.159    
     72700   310.50956     -3238.9123     -3256.8534      17.94102       9078.0362      10112.159    
     72800   285.98155     -3240.7279     -3257.2518      16.523809      9114.9208      10112.159    
     72900   296.84764     -3241.1886     -3258.3402      17.151644      8808.4136      10112.159    
     73000   286.05138     -3240.9595     -3257.4873      16.527844      9094.0014      10112.159    
     73100   307.04942     -3239.595      -3257.3361      17.741096      8834.4289      10112.159    
     73200   309.49371     -3239.166      -3257.0483      17.882325      9128.2656      10112.159    
     73300   299.30847     -3239.4949     -3256.7887      17.293829      9428.8811      10112.159    
     73400   285.73447     -3239.9914     -3256.501       16.509533      9104.1128      10112.159    
     73500   300.63784     -3240.1261     -3257.4967      17.370639      8801.2284      10112.159    
     73600   300.53798     -3240.9222     -3258.2871      17.36487       9039.1474      10112.159    
     73700   289.73912     -3241.5948     -3258.3357      16.740919      8389.0373      10112.159    
     73800   285.01341     -3240.9971     -3257.4649      16.467871      8672.9571      10112.159    
     73900   288.56803     -3239.4977     -3256.171       16.673254      9532.1055      10112.159    
     74000   310.30903     -3238.7813     -3256.7108      17.929434      9411.3125      10112.159    
     74100   298.22094     -3239.2758     -3256.5068      17.230993      9166.7415      10112.159    
     74200   302.18767     -3240.2593     -3257.7194      17.460187      8952.9603      10112.159    
     74300   291.22561     -3241.1917     -3258.0185      16.826808      8655.959       10112.159    
     74400   280.92959     -3241.2503     -3257.4823      16.231911      8897.9524      10112.159    
     74500   301.94225     -3239.0286     -3256.4746      17.446007      9237.7255      10112.159    
     74600   316.58802     -3238.1219     -3256.4142      18.29223       9372.6853      10112.159    
     74700   323.69946     -3238.5004     -3257.2035      18.703123      8766.858       10112.159    
     74800   290.84562     -3239.9428     -3256.7477      16.804852      9288.5589      10112.159    
     74900   289.99572     -3240.6652     -3257.4209      16.755746      8928.4668      10112.159    
     75000   299.88864     -3240.9339     -3258.2613      17.327351      8570.218       10112.159    
     75100   286.35279     -3240.5406     -3257.0858      16.545259      9021.5727      10112.159    
     75200   322.64971     -3238.6626     -3257.305       18.642469      8763.1366      10112.159    
     75300   300.05761     -3238.8847     -3256.2218      17.337114      9009.0461      10112.159    
     75400   316.44645     -3239.1869     -3257.471       18.284049      8937.9805      10112.159    
[...]
    281800   305.21845     -3240.5294     -3258.1647      17.635304      8716.0133      10112.159    
    281900   300.81227     -3239.7914     -3257.1721      17.380718      9187.8864      10112.159    
    282000   303.32768     -3239.2013     -3256.7273      17.526056      9103.9349      10112.159    
    282100   304.68747     -3238.9107     -3256.5153      17.604624      9048.1272      10112.159    
    282200   309.27325     -3239.1077     -3256.9773      17.869587      9084.1214      10112.159    
    282300   297.86562     -3240.4279     -3257.6384      17.210462      8583.6772      10112.159    
    282400   303.50591     -3240.7746     -3258.3109      17.536355      9098.1136      10112.159    
    282500   292.20767     -3240.5458     -3257.4293      16.88355       8991.4103      10112.159    
    282600   303.70068     -3238.8876     -3256.4352      17.547608      9530.1255      10112.159    
    282700   306.5943      -3238.4612     -3256.176       17.714799      9459.3621      10112.159    
    282800   323.34908     -3238.8917     -3257.5746      18.682878      8874.1231      10112.159    
    282900   296.23504     -3240.0563     -3257.1726      17.116249      9081.3193      10112.159    
    283000   298.72143     -3240.1861     -3257.446       17.259911      9069.3338      10112.159    
    283100   305.3851      -3240.1049     -3257.7498      17.644933      8758.8723      10112.159    
    283200   298.36096     -3240.1212     -3257.3603      17.239083      9057.5988      10112.159    
    283300   312.12035     -3239.1983     -3257.2324      18.034091      9158.5679      10112.159    
    283400   295.31472     -3238.4583     -3255.5214      17.063073      9644.2631      10112.159    
    283500   310.23733     -3238.5421     -3256.4674      17.925291      9446.4809      10112.159    
    283600   293.67932     -3240.4037     -3257.3723      16.968581      8745.0084      10112.159    
    283700   300.65999     -3240.7735     -3258.1454      17.371919      9066.134       10112.159    
    283800   298.62449     -3240.6385     -3257.8929      17.254309      8660.2856      10112.159    
    283900   290.92994     -3239.6154     -3256.4251      16.809724      8934.5167      10112.159    
    284000   317.35226     -3238.247      -3256.5833      18.336387      9136.4181      10112.159    
    284100   313.43116     -3238.9057     -3257.0155      18.109828      9222.054       10112.159    
    284200   284.29549     -3240.1921     -3256.6185      16.42639       8913.8616      10112.159    
    284300   309.06871     -3240.1667     -3258.0245      17.857769      9031.7315      10112.159    
    284400   300.47917     -3240.2026     -3257.5641      17.361472      8947.7574      10112.159    
    284500   299.45192     -3240.0973     -3257.3994      17.302118      8615.937       10112.159    
    284600   302.90201     -3239.6903     -3257.1917      17.501461      8730.3022      10112.159    
    284700   302.91659     -3238.9355     -3256.4378      17.502304      9088.9719      10112.159    
    284800   306.31815     -3239.3024     -3257.0012      17.698844      9056.5412      10112.159    
    284900   297.07711     -3240.3079     -3257.4728      17.164903      8619.3228      10112.159    
    285000   278.47598     -3241.326      -3257.4161      16.090143      8573.4104      10112.159    
    285100   299.14096     -3241.6043     -3258.8885      17.28415       8390.6089      10112.159    
    285200   302.06751     -3239.8717     -3257.3249      17.453244      8960.6097      10112.159    
    285300   297.43887     -3238.8483     -3256.0341      17.185805      9321.547       10112.159    
    285400   319.45688     -3238.8756     -3257.3336      18.45799       8883.3555      10112.159    
    285500   294.08797     -3240.104      -3257.0962      16.992193      8536.9858      10112.159    
    285600   295.02906     -3240.4533     -3257.4998      17.046568      8623.7676      10112.159    
    285700   284.90694     -3240.6576     -3257.1194      16.461719      8883.5541      10112.159    
    285800   298.26341     -3240.2201     -3257.4535      17.233447      8876.101       10112.159    
    285900   309.95647     -3239.1262     -3257.0353      17.909063      8963.3985      10112.159    
    286000   320.78074     -3238.2271     -3256.7616      18.534482      9376.4733      10112.159    
    286100   306.23358     -3238.9718     -3256.6658      17.693957      9356.1611      10112.159    
    286200   297.28988     -3240.2965     -3257.4737      17.177197      8771.4981      10112.159    
    286300   295.13902     -3240.5118     -3257.5647      17.052921      8879.5092      10112.159    
    286400   303.35924     -3240.217      -3257.7449      17.52788       8528.4207      10112.159    
    286500   325.93254     -3239.0173     -3257.8494      18.832149      8896.4757      10112.159    
    286600   287.62338     -3238.6325     -3255.2512      16.618673      9512.0717      10112.159    
    286700   314.58891     -3238.9438     -3257.1205      18.176722      9019.1023      10112.159    
    286800   296.87196     -3239.8684     -3257.0215      17.153049      8846.0885      10112.159    
    286900   299.17118     -3240.1375     -3257.4234      17.285897      8927.5344      10112.159    
    287000   297.77702     -3240.3028     -3257.5082      17.205343      8683.3244      10112.159    
    287100   297.77817     -3240.0651     -3257.2705      17.20541       8686.6368      10112.159    
    287200   310.22426     -3239.0467     -3256.9712      17.924536      9288.5234      10112.159    
    287300   304.55109     -3238.4473     -3256.044       17.596744      9446.6915      10112.159    
    287400   301.6874      -3239.4693     -3256.9006      17.431282      9243.878       10112.159    
    287500   307.71022     -3240.8889     -3258.6682      17.779276      8729.9652      10112.159    
    287600   292.11462     -3240.8422     -3257.7204      16.878174      8579.681       10112.159    
    287700   293.36471     -3240.1609     -3257.1113      16.950403      9164.0165      10112.159    
    287800   288.75444     -3239.6075     -3256.2915      16.684025      9006.2873      10112.159    
    287900   326.10393     -3238.3632     -3257.2052      18.842052      9214.9969      10112.159    
    288000   318.71986     -3237.7886     -3256.204       18.415406      9215.5019      10112.159    
    288100   306.28844     -3238.6647     -3256.3618      17.697127      8948.5271      10112.159    
    288200   302.94308     -3240.4873     -3257.9912      17.503835      8878.8915      10112.159    
    288300   280.1174      -3241.1181     -3257.3031      16.184983      8680.4407      10112.159    
    288400   303.54025     -3240.1122     -3257.6506      17.538338      8671.1346      10112.159    
    288500   301.38079     -3239.4032     -3256.8167      17.413566      9008.1018      10112.159    
    288600   304.72806     -3239.1637     -3256.7707      17.606969      8889.0076      10112.159    
    288700   294.28502     -3239.8923     -3256.8959      17.003578      8965.7148      10112.159    
    288800   292.40177     -3241.1208     -3258.0156      16.894765      8548.8641      10112.159    
    288900   283.14356     -3241.2744     -3257.6342      16.359832      8392.8563      10112.159    
    289000   307.0858      -3240.0502     -3257.7934      17.743198      8662.8254      10112.159    
    289100   308.83319     -3238.8785     -3256.7226      17.844161      9178.9755      10112.159    
    289200   313.14972     -3238.9147     -3257.0083      18.093567      8939.4634      10112.159    
    289300   291.03395     -3239.3861     -3256.2018      16.815734      9108.3707      10112.159    
    289400   302.87787     -3239.5301     -3257.0302      17.500067      9319.3611      10112.159    
    289500   301.00445     -3240.3999     -3257.7918      17.391822      8658.6133      10112.159    
    289600   292.81884     -3241.8581     -3258.7769      16.918863      8225.246       10112.159    
    289700   273.43479     -3242.219      -3258.0178      15.798866      8310.8679      10112.159    
    289800   295.31459     -3240.2363     -3257.2994      17.063066      8985.9195      10112.159    
    289900   291.14463     -3239.7609     -3256.583       16.822128      8880.5508      10112.159    
    290000   313.50785     -3239.075      -3257.1893      18.114259      8976.8691      10112.159    
    290100   312.01899     -3239.2621     -3257.2903      18.028234      8887.2495      10112.159    
    290200   285.83926     -3240.4074     -3256.923       16.515588      8921.8341      10112.159    
    290300   292.27141     -3240.7457     -3257.633       16.887233      8823.7075      10112.159    
    290400   299.93764     -3240.4013     -3257.7315      17.330182      8639.2867      10112.159    
    290500   308.04908     -3239.0087     -3256.8076      17.798855      9241.9147      10112.159    
    290600   306.04681     -3238.4796     -3256.1627      17.683166      9449.411       10112.159    
    290700   301.5101      -3239.2837     -3256.7047      17.421038      9279.7203      10112.159    
    290800   291.04248     -3240.6852     -3257.5014      16.816226      8507.3152      10112.159    
    290900   294.93055     -3240.6229     -3257.6638      17.040876      8796.1144      10112.159    
    291000   290.61964     -3240.1818     -3256.9736      16.791795      8753.2494      10112.159    
    291100   308.9821      -3239.2005     -3257.0533      17.852765      9148.5211      10112.159    
    291200   314.83606     -3238.5949     -3256.7859      18.191002      9091.1476      10112.159    
    291300   307.38567     -3238.8997     -3256.6602      17.760524      9047.3016      10112.159    
    291400   294.03323     -3240.008      -3256.9971      16.98903       8846.0496      10112.159    
    291500   287.23437     -3240.8774     -3257.4736      16.596196      8899.8459      10112.159    
    291600   296.80051     -3241.0185     -3258.1674      17.148921      8510.6674      10112.159    
    291700   300.92288     -3239.9578     -3257.3449      17.387109      8959.1782      10112.159    
    291800   313.12968     -3238.8854     -3256.9778      18.092409      8711.5859      10112.159    
    291900   309.15086     -3238.9627     -3256.8253      17.862516      8733.5832      10112.159    
    292000   290.93805     -3239.689      -3256.4992      16.810193      9299.8358      10112.159    
    292100   292.87367     -3241.1186     -3258.0407      16.922031      8773.431       10112.159    
    292200   294.20697     -3241.9247     -3258.9237      16.999068      8058.5346      10112.159    
    292300   280.75232     -3241.5284     -3257.75        16.221668      8567.9153      10112.159    
    292400   289.37496     -3240.3077     -3257.0275      16.719878      8802.7082      10112.159    
    292500   311.29412     -3239.5336     -3257.5199      17.986352      8816.9419      10112.159    
    292600   307.28035     -3239.5776     -3257.3321      17.754439      9048.6189      10112.159    
    292700   284.73306     -3240.1036     -3256.5553      16.451672      8970.1737      10112.159    
    292800   279.04222     -3241.048      -3257.1708      16.12286       8599.9438      10112.159    
    292900   302.83337     -3241.2714     -3258.7689      17.497495      8682.3005      10112.159    
    293000   286.46086     -3241.1004     -3257.6519      16.551504      8485.6302      10112.159    
    293100   295.86042     -3239.5182     -3256.6128      17.094603      9269.1479      10112.159    
    293200   316.18158     -3238.84       -3257.1088      18.268746      8660.9975      10112.159    
    293300   319.12092     -3238.9733     -3257.4119      18.438579      8895.037       10112.159    
    293400   288.34986     -3240.3758     -3257.0365      16.660649      8638.1858      10112.159    
    293500   281.54136     -3241.161      -3257.4283      16.267258      8744.9371      10112.159    
    293600   292.52619     -3240.7122     -3257.6142      16.901954      8887.2522      10112.159    
    293700   293.07388     -3240.2687     -3257.2023      16.933599      8764.4153      10112.159    
    293800   318.82576     -3239.2164     -3257.6379      18.421524      8533.2298      10112.159    
    293900   299.79178     -3238.9539     -3256.2757      17.321755      8851.9082      10112.159    
    294000   285.15301     -3239.4784     -3255.9544      16.475937      9279.94        10112.159    
    294100   294.17637     -3241.8171     -3258.8144      16.9973        8196.4303      10112.159    
    294200   290.60062     -3241.9632     -3258.7539      16.790696      8446.5134      10112.159    
    294300   288.20146     -3240.6778     -3257.3298      16.652074      8824.9631      10112.159    
    294400   308.49658     -3239.3789     -3257.2036      17.824712      8849.5577      10112.159    
    294500   296.85486     -3239.2989     -3256.451       17.152061      8909.1024      10112.159    
    294600   300.6374      -3239.6605     -3257.0311      17.370614      8708.8166      10112.159    
    294700   290.48993     -3240.817      -3257.6013      16.7843        8623.2667      10112.159    
    294800   295.49984     -3241.6465     -3258.7203      17.073769      8255.2301      10112.159    
    294900   285.25716     -3241.6228     -3258.1048      16.481955      8390.9141      10112.159    
    295000   300.5942      -3239.6198     -3256.9879      17.368118      9172.6206      10112.159    
    295100   281.68054     -3239.1572     -3255.4325      16.2753        9406.7725      10112.159    
    295200   318.0639      -3238.6706     -3257.0481      18.377505      9160.6462      10112.159    
    295300   316.20579     -3239.7066     -3257.9768      18.270145      8482.0155      10112.159    
    295400   283.85333     -3240.9445     -3257.3453      16.400842      8665.5069      10112.159    
    295500   287.51473     -3240.7909     -3257.4033      16.612395      8772.6816      10112.159    
    295600   300.81423     -3239.9811     -3257.362       17.380831      8621.949       10112.159    
    295700   304.57691     -3238.9412     -3256.5394      17.598236      9099.4065      10112.159    
    295800   316.07777     -3238.8191     -3257.0818      18.262748      9290.4364      10112.159    
    295900   304.65555     -3239.3        -3256.9028      17.60278       8865.7463      10112.159    
    296000   299.58807     -3239.8274     -3257.1373      17.309985      9364.3474      10112.159    
    296100   284.20684     -3240.6435     -3257.0647      16.421268      8857.857       10112.159    
    296200   297.73343     -3240.7981     -3258.0009      17.202825      8527.7089      10112.159    
    296300   304.81098     -3239.7438     -3257.3555      17.61176       8841.7925      10112.159    
    296400   314.80887     -3238.5638     -3256.7533      18.189432      9204.1806      10112.159    
    296500   295.2941      -3239.2133     -3256.2751      17.061882      9298.9489      10112.159    
    296600   304.97324     -3240.2162     -3257.8373      17.621136      8809.9796      10112.159    
    296700   288.80103     -3240.8747     -3257.5614      16.686717      8774.1742      10112.159    
    296800   299.48254     -3240.517      -3257.8209      17.303887      8742.6596      10112.159    
    296900   300.6878      -3240.0557     -3257.4293      17.373526      8939.3575      10112.159    
    297000   289.39433     -3239.6875     -3256.4085      16.720997      9134.1193      10112.159    
    297100   297.94571     -3239.2333     -3256.4484      17.21509       9310.2305      10112.159    
    297200   310.1114      -3239.3692     -3257.2872      17.918015      9059.3803      10112.159    
    297300   297.51654     -3240.5173     -3257.7076      17.190293      8432.467       10112.159    
    297400   297.97668     -3240.8012     -3258.018       17.216879      8945.7426      10112.159    
    297500   284.35077     -3240.1872     -3256.6168      16.429584      9189.8714      10112.159    
    297600   312.34454     -3238.7197     -3256.7667      18.047044      9203.8251      10112.159    
    297700   306.02708     -3238.8361     -3256.5182      17.682026      9183.3973      10112.159    
    297800   300.24322     -3239.6963     -3257.0441      17.347839      8789.5626      10112.159    
    297900   289.12556     -3241.0009     -3257.7064      16.705468      8785.5268      10112.159    
    298000   293.37117     -3241.2993     -3258.25        16.950776      8604.3179      10112.159    
    298100   285.53783     -3240.7702     -3257.2683      16.498171      9022.6797      10112.159    
    298200   300.41552     -3240.0275     -3257.3853      17.357794      8972.6864      10112.159    
    298300   297.27027     -3239.5348     -3256.7108      17.176064      8733.3608      10112.159    
    298400   335.43628     -3238.6519     -3258.0332      19.381268      8938.9713      10112.159    
    298500   285.75493     -3239.6076     -3256.1183      16.510715      9450.6142      10112.159    
    298600   285.29717     -3240.569      -3257.0533      16.484266      8816.5428      10112.159    
    298700   277.9803      -3242.0262     -3258.0878      16.061503      8591.1815      10112.159    
    298800   305.60045     -3241.6498     -3259.3072      17.657375      8164.2482      10112.159    
    298900   278.609       -3241.187      -3257.2848      16.097829      8769.3419      10112.159    
    299000   292.62344     -3239.9471     -3256.8547      16.907573      9108.7104      10112.159    
    299100   304.47369     -3239.3472     -3256.9394      17.592272      9179.6809      10112.159    
    299200   308.51082     -3239.7729     -3257.5984      17.825535      8596.9684      10112.159    
    299300   287.29074     -3240.7235     -3257.323       16.599453      8662.3401      10112.159    
    299400   306.49212     -3240.6362     -3258.3451      17.708896      8567.7554      10112.159    
    299500   293.91827     -3240.0741     -3257.0565      16.982387      9189.6209      10112.159    
    299600   292.22635     -3239.0552     -3255.9399      16.884629      9404.9974      10112.159    
    299700   309.38801     -3238.5077     -3256.384       17.876218      9147.8997      10112.159    
    299800   307.29087     -3238.9399     -3256.6949      17.755047      9109.8018      10112.159    
    299900   299.34019     -3240.881      -3258.1766      17.295662      8577.5725      10112.159    
    300000   296.70285     -3241.0615     -3258.2047      17.143278      8631.3903      10112.159    
Loop time of 2316.62 on 20 procs for 300000 steps with 448 atoms

Performance: 11.189 ns/day, 2.145 hours/ns, 129.499 timesteps/s, 58.016 katom-step/s
99.9% CPU use with 20 MPI tasks x 1 OpenMP threads

MPI task timing breakdown:
Section |  min time  |  avg time  |  max time  |%varavg| %total
---------------------------------------------------------------
Pair    | 1706.9     | 1992.7     | 2237.7     | 407.9 | 86.02
Neigh   | 19.979     | 25.287     | 36.242     |  85.5 |  1.09
Comm    | 39.481     | 295.45     | 586.64     |1082.8 | 12.75
Output  | 0.3351     | 0.53212    | 0.59393    |   7.1 |  0.02
Modify  | 2.0745     | 2.3705     | 2.6027     |   9.3 |  0.10
Other   |            | 0.2567     |            |       |  0.01

Nlocal:           22.4 ave          25 max          18 min
Histogram: 2 1 2 0 1 2 0 1 10 1
Nghost:          495.8 ave         523 max         465 min
Histogram: 4 0 0 6 2 0 0 0 3 5
Neighs:              0 ave           0 max           0 min
Histogram: 20 0 0 0 0 0 0 0 0 0
FullNghs:       1281.2 ave        1450 max        1024 min
Histogram: 2 1 2 0 1 2 1 0 10 1

Total # of neighbors = 25624
Ave neighs/atom = 57.196429
Neighbor list builds = 300000
Dangerous builds not checked
Total wall time: 0:38:36
