ITEM: TIMESTEP
0
ITEM: NUMBER OF ATOMS
12
ITEM: BOX BOUNDS xy xz yz pp pp pp
-8.8344296827430302e-01 5.1364755065543157e+00 0.0000000000000000e+00
0.0000000000000000e+00 5.1934133375444702e+00 -8.8344296827430302e-01
0.0000000000000000e+00 5.2461598045212767e+00 0.0000000000000000e+00
ITEM: ATOMS id element x y z fx fy fz
   1 Hf    0.79296806000000031    2.37891959000000064    3.71379300999999984   -0.08135566478624390    1.34178602893847465    0.20357703412199496
   2 Hf    3.01834094000000119    4.97562677999999980    4.15544258999999983    0.08136973857507618    1.34178357941149673   -0.20356266810437756
   3 Hf    3.46006344999999982    2.81449477000000003    1.53236421999999983    0.08135455205582587   -1.34178633221174870   -0.20357740470877705
   4 Hf    1.23469005999999992    0.21778759000000000    1.09071465000000023   -0.08136854428292700   -1.34178362411889118    0.20356265631170939
   5  O    1.43661056000000009    3.85624494000000029    5.13377423000000022    0.90067890436821851   -0.35913949268176415    1.52763698114418345
   6  O    2.37469844000000174    1.25953776000000017    2.73546187999999990   -0.90066680979241842   -0.35913176666535257   -1.52762214737499047
   7  O    2.81642043999999991    1.33716941999999994    0.11238299999999998   -0.90067817996817257    0.35913956113667700   -1.52763697745842397
   8  O    1.87833256000000004    3.93387661000000044    2.51069536000000149    0.90066665059277318    0.35913174878146575    1.52762202543675762
   9  O    0.04523848000000007    1.71776788000000002    1.81649659000000008    0.39103021017167172    0.53682079347686495   -1.07784698946388668
  10  O    4.64951502999999988    4.31447506000000036    0.80658229000000026   -0.39103967503560427    0.53681707269721568    1.07784948909067202
  11  O    4.20779251999999993    3.47564649000000037    3.42966065000000020   -0.39103064493135259   -0.53682103139181225    1.07784735226992701
  12  O   -0.39648402999999999    0.87893931000000036    4.43957494999999991    0.39103946303315162   -0.53681653737262558   -1.07784935126478865
