LAMMPS (15 Jun 2023 - Development - patch_2Jun2022-5531-g0ba557ed1e)
units          metal
boundary       p p p
atom_style     atomic
neighbor       0.5 bin
neigh_modify  delay 0 every 1 check no
region main prism 0.0 2.0 0.0 2.0 0.0 2.0 0.0 0.0 0.0
create_box 2 main
Created triclinic box = (0 0 0) to (2 2 2) with tilt (0 0 0)
  1 by 1 by 1 MPI processor grid
mass 1 178.49
mass 2 15.999
pair_style    zero 10.0
pair_coeff    * * 
compute dd all podd/atom ../HfO2_FPOD_020224_param.pod "" "" Hf O
**************** Begin of POD Potentials ****************
species: Hf O 
periodic boundary conditions: 1 1 1
number of enviroment clusters: 1
number of principal compoments: 1
inner cut-off radius: 1
outer cut-off radius: 5.5
bessel polynomial degree: 4
inverse polynomial degree: 8
one-body potential: 1
two-body radial basis functions: 8
three-body radial basis functions: 6
three-body angular degree: 4
four-body radial basis functions: 4
four-body angular degree: 2
five-body radial basis functions: 4
five-body angular degree: 2
six-body radial basis functions: 3
six-body angular degree: 2
seven-body radial basis functions: 0
seven-body angular degree: 0
number of local descriptors per element for one-body potential: 1
number of local descriptors per element for two-body potential: 16
number of local descriptors per element for three-body potential: 90
number of local descriptors per element for four-body potential: 64
number of local descriptors per element for five-body potential: 192
number of local descriptors per element for six-body potential: 198
number of local descriptors per element for seven-body potential: 0
number of local descriptors per element for all potentials: 561
number of global descriptors: 1122
**************** End of POD Potentials ****************

dump 		     mydump_dd all custom 1 dump_dd id type c_dd[*]
ERROR: Invalid attribute c_dd[*] in dump custom command (src/dump_custom.cpp:1467)
Last command: dump 		     mydump_dd all custom 1 dump_dd id type c_dd[*]
Total wall time: 0:00:01
