LAMMPS (27 Jun 2024)
OMP_NUM_THREADS environment is not set. Defaulting to 1 thread. (src/comm.cpp:98)
  using 1 OpenMP thread(s) per MPI task
Reading data file ...
  orthogonal box = (0 0 0) to (22.422218 22.19224 20.321894)
  5 by 2 by 2 MPI processor grid
  reading atoms ...
  448 atoms
  read_data CPU = 0.004 seconds
**************** Begin of POD Potentials ****************
species: Hf 
periodic boundary conditions: 1 1 1
number of environment clusters: 8
number of principal compoments: 2
inner cut-off radius: 1
outer cut-off radius: 5
cut-off function type: 1
gaussian_exponents: 
polynomial_degrees: 
bessel polynomial degree: 4
inverse polynomial degree: 10
one-body potential: 1
two-body radial basis functions: 8
three-body radial basis functions: 8
three-body angular degree: 6
four-body radial basis functions: 7
four-body angular degree: 5
five-body radial basis functions: 0
five-body angular degree: 0
six-body radial basis functions: 0
six-body angular degree: 0
seven-body radial basis functions: 0
seven-body angular degree: 0
number of local descriptors per element for one-body potential: 1
number of local descriptors per element for two-body potential: 8
number of local descriptors per element for three-body potential: 56
number of local descriptors per element for four-body potential: 112
number of local descriptors per element for five-body potential: 0
number of local descriptors per element for six-body potential: 0
number of local descriptors per element for seven-body potential: 0
number of local descriptors per element for all potentials: 177
number of global descriptors: 1409
**************** End of POD Potentials ****************

**************** Begin of Model Coefficients ****************
total number of coefficients for POD potential: 1409
total number of elements for PCA projection matrix: 352
total number of elements for PCA centroids: 16
**************** End of Model Coefficients ****************


CITE-CITE-CITE-CITE-CITE-CITE-CITE-CITE-CITE-CITE-CITE-CITE-CITE

Your simulation uses code contributions which should be cited:
- Type Label Framework: https://doi.org/10.1021/acs.jpcb.3c08419
The log file lists these citations in BibTeX format.

CITE-CITE-CITE-CITE-CITE-CITE-CITE-CITE-CITE-CITE-CITE-CITE-CITE

Neighbor list info ...
  update: every = 1 steps, delay = 0 steps, check = no
  max neighbors/atom: 2000, page size: 100000
  master list distance cutoff = 7
  ghost atom cutoff = 7
  binsize = 3.5, bins = 7 7 6
  1 neighbor lists, perpetual/occasional/extra = 1 0 0
  (1) pair pod, perpetual
      attributes: full, newton on
      pair build: full/bin/atomonly
      stencil: full/bin/3d
      bin: standard
Setting up Verlet run ...
  Unit style    : metal
  Current step  : 0
  Time step     : 0.001
Per MPI rank memory allocation (min/avg/max) = 2.586 | 2.586 | 2.586 Mbytes
   Step          Temp          TotEng         PotEng         KinEng         Press          Volume    
         0   300           -3263.9145     -3281.2483      17.333785      1830.9177      10112.159    
       100   92.41547      -3263.0418     -3268.3815      5.3396997      3888.0675      10112.159    
       200   156.72913     -3259.7701     -3268.8258      9.055697       4837.0752      10112.159    
       300   215.72625     -3255.8587     -3268.3232      12.464508      4948.7485      10112.159    
       400   289.02094     -3251.8115     -3268.5109      16.699423      5028.3517      10112.159    
       500   302.56276     -3247.9976     -3265.4795      17.48186       6206.459       10112.159    
       600   297.06204     -3244.9486     -3262.1126      17.164032      7500.5613      10112.159    
       700   306.19516     -3243.7858     -3261.4776      17.691737      7988.3639      10112.159    
       800   291.96513     -3245.6248     -3262.4944      16.869536      7089.867       10112.159    
       900   300.35915     -3247.0046     -3264.3591      17.354537      6513.1155      10112.159    
      1000   311.04662     -3248.0408     -3266.0128      17.972051      6135.6204      10112.159    
      1100   291.91515     -3248.1318     -3264.9984      16.866649      6469.887       10112.159    
      1200   275.58816     -3246.746      -3262.6693      15.923287      6967.5593      10112.159    
      1300   302.53611     -3245.2892     -3262.7695      17.48032       7658.8166      10112.159    
      1400   305.67415     -3245.1286     -3262.7902      17.661634      7116.0661      10112.159    
      1500   308.44581     -3245.9135     -3263.7352      17.821778      6752.7996      10112.159    
      1600   309.26971     -3246.8404     -3264.7097      17.869383      6591.7969      10112.159    
      1700   291.19883     -3247.6006     -3264.4259      16.82526       6751.5295      10112.159    
      1800   252.18255     -3248.0577     -3262.6287      14.570927      6605.859       10112.159    
      1900   325.27306     -3246.3506     -3265.1447      18.794045      6689.0596      10112.159    
      2000   315.21497     -3245.7438     -3263.9567      18.212896      6591.278       10112.159    
      2100   314.72252     -3245.4969     -3263.6814      18.184442      7006.6446      10112.159    
      2200   287.18332     -3246.0672     -3262.6605      16.593247      7070.3029      10112.159    
      2300   261.30448     -3246.9946     -3262.0926      15.097986      7193.9009      10112.159    
      2400   336.95871     -3246.7931     -3266.2623      19.469233      6209.8045      10112.159    
      2500   282.43598     -3247.6136     -3263.9325      16.318949      6591.2149      10112.159    
      2600   311.24226     -3246.2253     -3264.2087      17.983355      6820.3461      10112.159    
      2700   278.41232     -3246.1318     -3262.2183      16.086465      7363.9673      10112.159    
      2800   281.20067     -3246.4852     -3262.7328      16.247573      7128.3575      10112.159    
      2900   320.21085     -3246.5942     -3265.0957      18.501554      6447.1457      10112.159    
      3000   318.4715      -3247.1221     -3265.5231      18.401056      6227.2625      10112.159    
      3100   271.54638     -3248.0355     -3263.7253      15.689755      7112.2072      10112.159    
      3200   277.76618     -3247.5552     -3263.6043      16.049131      6715.876       10112.159    
      3300   307.79185     -3245.9794     -3263.7634      17.783993      6894.722       10112.159    
      3400   306.08339     -3245.6863     -3263.3716      17.685279      7075.4279      10112.159    
      3500   313.23158     -3245.6247     -3263.723       18.098297      7118.9209      10112.159    
      3600   294.04736     -3246.7963     -3263.7862      16.989846      6859.1195      10112.159    
      3700   282.84883     -3248.0539     -3264.3968      16.342803      6864.8377      10112.159    
      3800   286.84834     -3247.615      -3264.1889      16.573892      6493.4709      10112.159    
      3900   302.56205     -3246.5871     -3264.0689      17.481819      6782.0926      10112.159    
      4000   301.84408     -3245.9494     -3263.3898      17.440335      7161.2739      10112.159    
      4100   300.54438     -3246          -3263.3653      17.36524       6993.7425      10112.159    
      4200   303.84111     -3246.2786     -3263.8343      17.555722      7108.2572      10112.159    
      4300   278.19443     -3246.9733     -3263.0472      16.073875      7098.4129      10112.159    
      4400   305.35773     -3246.7864     -3264.4298      17.643351      6519.6416      10112.159    
      4500   315.32772     -3246.6053     -3264.8247      18.21941       6537.1869      10112.159    
      4600   272.74967     -3246.8696     -3262.6289      15.759281      7193.0633      10112.159    
      4700   314.78933     -3245.9354     -3264.1237      18.188302      6953.6938      10112.159    
      4800   293.37224     -3246.0416     -3262.9924      16.950838      7197.7681      10112.159    
      4900   301.89832     -3246.5431     -3263.9865      17.443469      6720.0095      10112.159    
      5000   299.46961     -3247.2699     -3264.573       17.30314       6624.893       10112.159    
      5100   292.1231      -3247.6465     -3264.5251      16.878664      6510.8377      10112.159    
      5200   291.19549     -3247.5261     -3264.3512      16.825067      6752.551       10112.159    
      5300   297.3084      -3245.9619     -3263.1402      17.178267      7009.1692      10112.159    
      5400   296.00967     -3245.6097     -3262.713       17.103227      7119.7343      10112.159    
      5500   327.20106     -3245.4687     -3264.3741      18.905443      6696.0619      10112.159    
      5600   293.61853     -3246.5261     -3263.4912      16.965069      7000.6464      10112.159    
      5700   277.25338     -3248.4761     -3264.4956      16.019502      6582.6807      10112.159    
      5800   284.17049     -3248.4624     -3264.8816      16.419168      6466.5141      10112.159    
      5900   277.26203     -3247.4955     -3263.5155      16.020002      6722.5804      10112.159    
      6000   315.7801      -3246.192      -3264.4375      18.245548      6758.2112      10112.159    
      6100   303.65937     -3245.8121     -3263.3574      17.545221      7011.8626      10112.159    
      6200   315.33909     -3245.5875     -3263.8075      18.220067      7109.1542      10112.159    
      6300   273.77425     -3247.1569     -3262.9754      15.818481      6914.2503      10112.159    
      6400   301.05467     -3247.4399     -3264.8347      17.394723      6536.3205      10112.159    
      6500   295.52939     -3247.2723     -3264.3477      17.075477      6543.3845      10112.159    
      6600   304.38905     -3246.6209     -3264.2083      17.587382      6853.2048      10112.159    
      6700   292.62741     -3246.3885     -3263.2963      16.907802      7039.6751      10112.159    
      6800   307.99114     -3246.0736     -3263.8691      17.795508      7116.1275      10112.159    
      6900   287.13284     -3246.7337     -3263.324       16.59033       7052.2616      10112.159    
      7000   282.54743     -3248.0023     -3264.3277      16.325389      6546.7118      10112.159    
      7100   304.66705     -3248.9424     -3266.5459      17.603444      6035.2465      10112.159    
      7200   277.95059     -3248.3379     -3264.3977      16.059787      6639.0848      10112.159    
      7300   293.98788     -3246.6395     -3263.6259      16.98641       6917.9241      10112.159    
      7400   312.95969     -3246.0418     -3264.1243      18.082587      6661.495       10112.159    
      7500   302.35532     -3245.8286     -3263.2984      17.469874      7155.1376      10112.159    
      7600   283.57495     -3246.1381     -3262.5228      16.384758      7128.1354      10112.159    
      7700   332.46489     -3246.3327     -3265.5423      19.209584      6515.9314      10112.159    
      7800   277.39815     -3247.8751     -3263.903       16.027867      6874.2225      10112.159    
      7900   286.92555     -3247.9261     -3264.5044      16.578353      6726.0044      10112.159    
      8000   306.56906     -3246.999      -3264.7124      17.713341      6644.1407      10112.159    
      8100   304.03685     -3246.408      -3263.975       17.567032      6908.1386      10112.159    
      8200   294.70676     -3246.488      -3263.5159      17.027946      6749.5214      10112.159    
      8300   313.53975     -3246.3726     -3264.4887      18.116103      6755.5145      10112.159    
      8400   286.05321     -3246.7865     -3263.3144      16.52795       6884.2086      10112.159    
      8500   307.25501     -3246.7803     -3264.5332      17.752975      6615.608       10112.159    
      8600   288.28671     -3246.8568     -3263.5138      16.657         6995.5549      10112.159    
      8700   299.74929     -3246.5644     -3263.8837      17.3193        6787.6764      10112.159    
      8800   325.11638     -3245.5023     -3264.2873      18.784992      6916.5         10112.159    
      8900   298.88167     -3245.5758     -3262.845       17.269169      6962.7982      10112.159    
      9000   291.61964     -3246.6439     -3263.4934      16.849574      6909.5541      10112.159    
      9100   283.5097      -3248.0743     -3264.4553      16.380988      6241.7469      10112.159    
      9200   303.25553     -3248.0309     -3265.5528      17.521887      6386.3392      10112.159    
      9300   285.62055     -3247.4905     -3263.9934      16.502951      6439.5279      10112.159    
      9400   302.84558     -3246.7849     -3264.2831      17.498201      6772.1417      10112.159    
      9500   294.64578     -3246.4439     -3263.4684      17.024423      6883.4217      10112.159    
      9600   295.12102     -3246.2246     -3263.2765      17.051882      6825.631       10112.159    
      9700   305.6138      -3246.0796     -3263.7377      17.658147      6878.9061      10112.159    
      9800   314.23903     -3245.7529     -3263.9094      18.156506      7005.0855      10112.159    
      9900   303.292       -3246.4606     -3263.9846      17.523995      6704.0622      10112.159    
     10000   286.67541     -3247.7228     -3264.2867      16.5639        6542.0388      10112.159    
     10100   292.90724     -3247.7929     -3264.7169      16.923971      6355.1624      10112.159    
     10200   292.96977     -3246.4176     -3263.3452      16.927584      7075.613       10112.159    
     10300   314.1173      -3245.3845     -3263.534       18.149473      6916.3587      10112.159    
     10400   302.66001     -3245.8173     -3263.3048      17.487479      7011.5924      10112.159    
     10500   316.31743     -3246.2958     -3264.5724      18.276595      6695.5747      10112.159    
     10600   281.60976     -3247.6982     -3263.9694      16.27121       6408.6663      10112.159    
     10700   295.10306     -3247.5183     -3264.5691      17.050844      6559.7693      10112.159    
     10800   285.89603     -3246.9014     -3263.4202      16.518868      6849.8116      10112.159    
     10900   315.60868     -3246.4134     -3264.6491      18.235644      6626.1214      10112.159    
     11000   302.52606     -3246.5092     -3263.9889      17.479739      6812.7315      10112.159    
     11100   292.04276     -3246.4229     -3263.2969      16.874022      6932.2892      10112.159    
     11200   300.97716     -3245.9655     -3263.3558      17.390245      6964.2884      10112.159    
     11300   329.94248     -3245.2364     -3264.3003      19.06384       6646.5235      10112.159    
     11400   300.32712     -3245.6777     -3263.0304      17.352686      7126.8752      10112.159    
     11500   287.75256     -3246.9553     -3263.5814      16.626137      6830.3465      10112.159    
     11600   281.87939     -3247.5583     -3263.8451      16.28679       6822.0375      10112.159    
     11700   317.24627     -3246.8332     -3265.1635      18.330263      6210.4359      10112.159    
     11800   281.34096     -3246.6023     -3262.858       16.25568       6815.9241      10112.159    
     11900   318.43725     -3245.5055     -3263.9046      18.399077      7132.6075      10112.159    
     12000   304.31678     -3245.8302     -3263.4134      17.583206      7195.7126      10112.159    
     12100   299.93155     -3246.1777     -3263.5075      17.329831      6826.1539      10112.159    
     12200   306.64914     -3246.2999     -3264.0179      17.717968      6775.4483      10112.159    
     12300   285.39893     -3246.9656     -3263.4558      16.490146      6731.869       10112.159    
     12400   301.87244     -3247.3771     -3264.8191      17.441974      6521.728       10112.159    
     12500   293.74076     -3247.5141     -3264.4862      16.972131      6538.0388      10112.159    
     12600   300.93574     -3246.1291     -3263.5169      17.387852      7099.6397      10112.159    
     12700   295.69325     -3245.4954     -3262.5803      17.084944      7341.3544      10112.159    
     12800   297.08401     -3245.5028     -3262.6681      17.165302      7215.5528      10112.159    
     12900   305.59014     -3246.4491     -3264.1059      17.65678       6616.0098      10112.159    
     13000   303.25785     -3247.6981     -3265.2202      17.522022      6397.4405      10112.159    
     13100   275.37464     -3247.892      -3263.8029      15.91095       6614.9188      10112.159    
     13200   300.57491     -3246.6494     -3264.0164      17.367003      6905.0318      10112.159    
     13300   298.45888     -3245.735      -3262.9798      17.244741      7273.836       10112.159    
     13400   299.59837     -3245.5708     -3262.8814      17.31058       7183.3135      10112.159    
     13500   319.08531     -3245.8481     -3264.2847      18.436521      6522.4895      10112.159    
     13600   298.87868     -3246.6452     -3263.9142      17.268997      6930.8675      10112.159    
     13700   301.90839     -3246.7218     -3264.1659      17.444051      6824.4884      10112.159    
     13800   291.16146     -3246.8031     -3263.6262      16.823101      6857.282       10112.159    
     13900   306.5835      -3246.0707     -3263.7849      17.714175      6895.5284      10112.159    
     14000   306.93268     -3244.1219     -3261.8562      17.734351      7693.7097      10112.159    
     14100   317.80425     -3244.4999     -3262.8624      18.362502      7188.3614      10112.159    
     14200   312.76021     -3246.0513     -3264.1223      18.071061      6893.3891      10112.159    
     14300   293.5843      -3246.6633     -3263.6264      16.963091      6730.3402      10112.159    
     14400   304.19367     -3246.4756     -3264.0517      17.576093      6648.4974      10112.159    
     14500   292.08031     -3246.6986     -3263.5748      16.876191      6976.6514      10112.159    
     14600   310.63718     -3246.6199     -3264.5682      17.948394      6676.4662      10112.159    
     14700   298.50846     -3246.3534     -3263.601       17.247605      6932.1955      10112.159    
     14800   287.74076     -3246.0309     -3262.6564      16.625455      7398.0734      10112.159    
     14900   320.053       -3245.3044     -3263.7969      18.492434      6983.5168      10112.159    
     15000   296.5063      -3246.0792     -3263.2112      17.131922      7009.7112      10112.159    
     15100   296.53651     -3247.4944     -3264.6281      17.133668      6684.4042      10112.159    
     15200   278.80488     -3248.055      -3264.1642      16.109147      6552.4271      10112.159    
     15300   280.29634     -3247.4384     -3263.6337      16.195322      6701.0292      10112.159    
     15400   320.05852     -3246.5592     -3265.052       18.492752      6402.5872      10112.159    
     15500   287.3547      -3246.5531     -3263.1563      16.603149      6858.352       10112.159    
     15600   297.152       -3246.104      -3263.2732      17.16923       7101.3095      10112.159    
     15700   304.80023     -3245.762      -3263.3731      17.611139      6844.316       10112.159    
     15800   329.34746     -3244.9417     -3263.9712      19.029461      7002.5749      10112.159    
     15900   304.64923     -3245.6319     -3263.2343      17.602415      6992.9076      10112.159    
     16000   273.15148     -3247.0469     -3262.8294      15.782497      6912.7914      10112.159    
     16100   291.56283     -3247.133      -3263.9793      16.846292      6667.1725      10112.159    
     16200   323.60427     -3246.5366     -3265.2342      18.697624      6510.8743      10112.159    
     16300   309.17219     -3245.6974     -3263.5612      17.863748      6971.649       10112.159    
     16400   300.29829     -3244.696      -3262.047       17.35102       7346.3622      10112.159    
     16500   308.24828     -3245.2823     -3263.0926      17.810365      7337.3377      10112.159    
     16600   304.96978     -3246.9051     -3264.526       17.620936      6716.2818      10112.159    
     16700   286.5237      -3247.2246     -3263.7797      16.555134      6829.2555      10112.159    
     16800   306.00435     -3246.6362     -3264.3169      17.680712      6880.6498      10112.159    
     16900   301.819       -3246.0777     -3263.5166      17.438886      7037.0498      10112.159    
     17000   304.65478     -3245.0243     -3262.6271      17.602736      7296.2665      10112.159    
     17100   319.75094     -3244.0815     -3262.5565      18.47498       7493.5321      10112.159    
     17200   317.44584     -3244.7785     -3263.1203      18.341793      7196.8205      10112.159    
     17300   306.51251     -3246.6811     -3264.3912      17.710074      6820.4171      10112.159    
     17400   296.49982     -3247.2515     -3264.3831      17.131547      6251.1828      10112.159    
     17500   294.78574     -3246.8083     -3263.8408      17.032509      7069.615       10112.159    
     17600   300.70514     -3245.8478     -3263.2223      17.374528      7180.5499      10112.159    
     17700   325.09967     -3245.0249     -3263.8089      18.784026      7054.885       10112.159    
     17800   311.25377     -3245.2421     -3263.2261      17.98402       7222.5704      10112.159    
     17900   284.87511     -3246.9414     -3263.4012      16.45988       7081.543       10112.159    
     18000   290.43227     -3247.3313     -3264.1123      16.780969      6631.936       10112.159    
     18100   302.11912     -3246.9628     -3264.419       17.456227      6783.5201      10112.159    
     18200   311.05427     -3245.9114     -3263.8839      17.972493      6871.7767      10112.159    
     18300   300.61745     -3244.7255     -3262.095       17.369461      7527.0468      10112.159    
     18400   331.82799     -3244.2562     -3263.429       19.172784      7302.7051      10112.159    
     18500   294.24263     -3246.2655     -3263.2667      17.001128      6848.8023      10112.159    
     18600   299.22682     -3246.7182     -3264.0073      17.289112      6766.1834      10112.159    
     18700   290.27893     -3246.9421     -3263.7142      16.772109      6995.4716      10112.159    
     18800   303.97287     -3246.4236     -3263.987       17.563335      6751.9009      10112.159    
     18900   306.8325      -3245.668      -3263.3966      17.728562      7009.4298      10112.159    
     19000   299.56048     -3245.3552     -3262.6636      17.308391      7311.9881      10112.159    
     19100   294.16414     -3246.4024     -3263.399       16.996593      6862.3745      10112.159    
     19200   293.57525     -3247.6086     -3264.5711      16.962568      6679.1714      10112.159    
     19300   278.61394     -3248.1788     -3264.2769      16.098114      6695.4425      10112.159    
     19400   305.20675     -3246.5692     -3264.2038      17.634628      6656.1765      10112.159    
     19500   316.09894     -3245.3808     -3263.6448      18.263971      7014.3667      10112.159    
     19600   298.06802     -3245.6778     -3262.8999      17.222157      7013.7953      10112.159    
     19700   301.10225     -3246.196      -3263.5935      17.397473      7051.7535      10112.159    
     19800   286.03616     -3247.6451     -3264.1721      16.526965      6603.1533      10112.159    
     19900   284.67049     -3247.9603     -3264.4084      16.448058      6710.6394      10112.159    
     20000   300.98086     -3247.0748     -3264.4653      17.390459      6585.7612      10112.159    
     20100   304.24343     -3245.9276     -3263.5065      17.578968      7069.4681      10112.159    
     20200   322.42198     -3243.7527     -3262.382       18.629311      7463.3519      10112.159    
     20300   293.78447     -3244.3982     -3261.3728      16.974656      7584.0516      10112.159    
     20400   330.74341     -3245.3887     -3264.4988      19.110118      6804.0609      10112.159    
     20500   283.75978     -3246.997      -3263.3924      16.395437      6920.9885      10112.159    
     20600   300.14185     -3246.9711     -3264.3131      17.341982      6721.496       10112.159    
     20700   296.62764     -3246.7697     -3263.9086      17.138933      6730.3716      10112.159    
     20800   306.8895      -3245.7325     -3263.4643      17.731856      6994.2351      10112.159    
     20900   312.4396      -3244.9721     -3263.0247      18.052537      7150.3235      10112.159    
     21000   299.49923     -3245.942      -3263.2469      17.304851      6848.8075      10112.159    
     21100   294.58481     -3247.4197     -3264.4406      17.0209        6721.5398      10112.159    
     21200   301.38881     -3247.4381     -3264.8521      17.41403       6411.5656      10112.159    
     21300   301.19683     -3246.9466     -3264.3495      17.402937      6594.9949      10112.159    
     21400   304.14858     -3246.1003     -3263.6738      17.573488      6876.9522      10112.159    
     21500   314.53366     -3244.0815     -3262.2551      18.17353       7400.9249      10112.159    
     21600   314.98698     -3244.126      -3262.3258      18.199723      7396.7691      10112.159    
     21700   307.70307     -3245.5331     -3263.312       17.778863      7124.7438      10112.159    
     21800   299.33604     -3246.6368     -3263.9322      17.295422      6711.2092      10112.159    
     21900   299.57981     -3247.1594     -3264.4689      17.309507      6656.0651      10112.159    
     22000   291.7549      -3246.954      -3263.8114      16.85739       6782.085       10112.159    
     22100   308.53144     -3245.5851     -3263.4119      17.826726      7059.2631      10112.159    
     22200   324.35644     -3244.3362     -3263.0773      18.741083      7062.1227      10112.159    
     22300   312.68113     -3243.703      -3261.7695      18.066492      7680.975       10112.159    
     22400   299.23463     -3245.922      -3263.2115      17.289563      6946.0088      10112.159    
     22500   299.6684      -3246.6987     -3264.0133      17.314626      7068.6581      10112.159    
     22600   299.34599     -3247.2589     -3264.5549      17.295997      6634.8017      10112.159    
     22700   286.31525     -3247.3725     -3263.9156      16.54309       6715.5071      10112.159    
     22800   295.33637     -3246.3634     -3263.4277      17.064324      6885.2526      10112.159    
     22900   305.93135     -3245.2124     -3262.8889      17.676495      7088.503       10112.159    
     23000   327.00335     -3244.6651     -3263.5591      18.89402       6961.7788      10112.159    
     23100   288.84821     -3246.5337     -3263.2232      16.689443      6767.3756      10112.159    
     23200   297.00787     -3247.2953     -3264.4562      17.160902      6644.3165      10112.159    
     23300   301.84944     -3247.2536     -3264.6942      17.440645      6769.8093      10112.159    
     23400   289.30713     -3246.7402     -3263.4562      16.715959      6877.0552      10112.159    
     23500   310.17414     -3245.3947     -3263.3164      17.92164       7087.4289      10112.159    
     23600   308.61665     -3245.2926     -3263.1243      17.83165       7183.4649      10112.159    
     23700   299.59116     -3246.2299     -3263.5401      17.310163      7224.1371      10112.159    
     23800   287.54237     -3246.8075     -3263.4215      16.613993      6822.4134      10112.159    
     23900   295.12565     -3246.4736     -3263.5257      17.052149      6795.0895      10112.159    
     24000   317.8671      -3246.3802     -3264.7463      18.366134      6694.0702      10112.159    
     24100   280.40752     -3247.3802     -3263.582       16.201746      6725.2031      10112.159    
     24200   297.8608      -3246.7571     -3263.9672      17.210184      6893.3223      10112.159    
     24300   306.8485      -3245.0317     -3262.7612      17.729487      7281.7948      10112.159    
     24400   308.09829     -3244.5837     -3262.3854      17.801699      7394.177       10112.159    
     24500   304.26521     -3245.3352     -3262.9154      17.580226      7035.8298      10112.159    
     24600   322.22348     -3246.0574     -3264.6753      18.617842      6749.23        10112.159    
     24700   290.52898     -3246.8301     -3263.6167      16.786557      6910.0766      10112.159    
     24800   287.78661     -3246.8824     -3263.5105      16.628105      6861.2867      10112.159    
     24900   305.75869     -3246.4226     -3264.0891      17.666518      6822.5151      10112.159    
     25000   309.23676     -3245.0574     -3262.9249      17.867479      7031.7172      10112.159    
     25100   322.06881     -3244.1799     -3262.7888      18.608906      7238.6068      10112.159    
     25200   311.6949      -3245.4686     -3263.4781      18.009508      7032.6057      10112.159    
     25300   291.46834     -3246.7109     -3263.5518      16.840832      6881.079       10112.159    
     25400   315.5914      -3246.5472     -3264.7818      18.234645      6532.3647      10112.159    
     25500   288.33888     -3246.3783     -3263.0383      16.660014      7017.9623      10112.159    
     25600   309.44997     -3245.4462     -3263.326       17.879798      7257.3232      10112.159    
     25700   306.52835     -3245.616      -3263.327       17.710989      7029.7596      10112.159    
     25800   292.43608     -3247.2564     -3264.1531      16.896748      6574.0685      10112.159    
     25900   293.67097     -3247.9954     -3264.9635      16.968099      6371.3468      10112.159    
     26000   288.03821     -3247.48       -3264.1227      16.642642      6686.2709      10112.159    
     26100   301.45805     -3246.1756     -3263.5936      17.41803       6824.7519      10112.159    
     26200   301.63926     -3245.9452     -3263.3737      17.428501      6917.7566      10112.159    
     26300   315.38322     -3246.0414     -3264.264       18.222617      6620.2457      10112.159    
     26400   289.49034     -3247.0882     -3263.8148      16.726545      6728.4913      10112.159    
     26500   275.21552     -3248.2506     -3264.1524      15.901756      6561.297       10112.159    
     26600   288.90939     -3248.5612     -3265.2542      16.692978      6403.2952      10112.159    
     26700   299.86429     -3246.8379     -3264.1639      17.325944      6731.6226      10112.159    
     26800   312.88916     -3245.5899     -3263.6684      18.078512      6961.3405      10112.159    
     26900   299.01468     -3245.3879     -3262.6648      17.276855      7173.2216      10112.159    
     27000   296.11102     -3246.1417     -3263.2508      17.109083      6953.3824      10112.159    
     27100   305.9285      -3247.0135     -3264.6899      17.67633       6557.0109      10112.159    
     27200   294.95995     -3247.3827     -3264.4253      17.042575      6716.9065      10112.159    
     27300   283.56763     -3247.1594     -3263.5437      16.384335      6907.6127      10112.159    
     27400   306.25845     -3245.1517     -3262.8471      17.695394      7292.6292      10112.159    
     27500   322.03391     -3244.5022     -3263.1091      18.606889      7419.8657      10112.159    
     27600   300.61091     -3245.7946     -3263.1637      17.369084      6809.0352      10112.159    
     27700   303.56115     -3246.8175     -3264.357       17.539546      6938.7849      10112.159    
     27800   287.90788     -3247.216      -3263.8511      16.635111      6669.751       10112.159    
     27900   300.42847     -3246.6543     -3264.0129      17.358542      6649.4301      10112.159    
     28000   312.52096     -3245.0627     -3263.12        18.057237      7290.8409      10112.159    
     28100   302.31067     -3244.5151     -3261.9823      17.467294      7454.8221      10112.159    
     28200   307.87284     -3245.1564     -3262.945       17.788673      7136.6667      10112.159    
     28300   307.59925     -3246.2309     -3264.0037      17.772865      7009.9503      10112.159    
     28400   302.21412     -3246.5871     -3264.0488      17.461716      6938.2885      10112.159    
     28500   297.70468     -3246.5898     -3263.791       17.201163      6875.1757      10112.159    
     28600   294.73712     -3246.4716     -3263.5013      17.0297        6837.2363      10112.159    
     28700   303.33792     -3245.7618     -3263.2884      17.526648      7180.1073      10112.159    
     28800   311.27991     -3244.8799     -3262.8655      17.98553       7219.7519      10112.159    
     28900   299.19363     -3245.6121     -3262.8993      17.287194      7299.8692      10112.159    
     29000   323.29563     -3246.1971     -3264.8769      18.67979       6724.9465      10112.159    
     29100   283.29677     -3246.9968     -3263.3655      16.368685      6886.2109      10112.159    
     29200   291.5369      -3246.8488     -3263.6936      16.844793      6985.3897      10112.159    
     29300   301.58004     -3246.4436     -3263.8687      17.425079      6954.676       10112.159    
     29400   316.56594     -3245.4773     -3263.7682      18.290953      6936.846       10112.159    
     29500   323.01408     -3244.1516     -3262.8151      18.663523      7379.4435      10112.159    
     29600   314.29016     -3244.7943     -3262.9538      18.159461      7477.3814      10112.159    
     29700   277.20394     -3246.5151     -3262.5317      16.016645      7215.5754      10112.159    
     29800   302.29143     -3246.8344     -3264.3006      17.466183      6890.5178      10112.159    
     29900   307.59946     -3246.923      -3264.6959      17.772877      6629.4516      10112.159    
     30000   300.23894     -3246.4978     -3263.8454      17.347591      6943.3908      10112.159    
     30100   302.33074     -3245.33       -3262.7985      17.468454      7423.8467      10112.159    
     30200   329.13519     -3244.0993     -3263.1165      19.017196      7452.8222      10112.159    
     30300   304.35988     -3245.0534     -3262.6391      17.585696      7327.6862      10112.159    
     30400   317.83242     -3246.0797     -3264.4438      18.36413       7078.8373      10112.159    
     30500   289.09577     -3246.7501     -3263.4538      16.703747      6991.0991      10112.159    
     30600   294.64784     -3246.6514     -3263.676       17.024542      6948.5344      10112.159    
     30700   314.17168     -3246.1547     -3264.3073      18.152615      6818.7458      10112.159    
     30800   294.95206     -3245.9071     -3262.9492      17.042119      7229.3908      10112.159    
     30900   316.05849     -3245.1997     -3263.4613      18.261634      7087.4544      10112.159    
     31000   301.84801     -3245.7875     -3263.2281      17.440562      7237.3819      10112.159    
     31100   287.95063     -3247.1795     -3263.8171      16.637581      6921.7604      10112.159    
     31200   286.92589     -3247.8289     -3264.4073      16.578373      6482.6584      10112.159    
     31300   295.37743     -3247.2605     -3264.3272      17.066696      6761.2758      10112.159    
     31400   297.63787     -3246.3195     -3263.5168      17.197303      6935.1489      10112.159    
     31500   301.18246     -3246.2486     -3263.6508      17.402107      7020.1585      10112.159    
     31600   292.75509     -3246.5021     -3263.4172      16.91518       7215.9838      10112.159    
     31700   287.72442     -3246.576      -3263.2005      16.624511      7028.3151      10112.159    
     31800   308.28219     -3246.3912     -3264.2036      17.812325      6576.9118      10112.159    
     31900   290.96738     -3246.9235     -3263.7354      16.811887      6868.2048      10112.159    
     32000   295.61949     -3246.8199     -3263.9006      17.080683      6910.2867      10112.159    
     32100   309.84755     -3246.0866     -3263.9894      17.90277       6914.3834      10112.159    
     32200   295.91289     -3245.6739     -3262.7715      17.097635      7144.902       10112.159    
     32300   327.14623     -3244.7222     -3263.6244      18.902275      7019.2121      10112.159    
     32400   307.88498     -3245.5412     -3263.3305      17.789374      7055.9656      10112.159    
     32500   296.22884     -3247.1104     -3264.2263      17.115891      6831.0065      10112.159    
     32600   288.72061     -3247.2469     -3263.929       16.68207       6542.1226      10112.159    
     32700   297.35158     -3246.7063     -3263.8871      17.180761      6954.1345      10112.159    
     32800   304.54445     -3245.8344     -3263.4308      17.596361      6942.7081      10112.159    
     32900   330.31638     -3244.0782     -3263.1636      19.085444      7217.4834      10112.159    
     33000   316.20468     -3244.3747     -3262.6447      18.27008       7134.6555      10112.159    
     33100   307.44008     -3245.4773     -3263.241       17.763668      7155.2249      10112.159    
     33200   293.22126     -3246.0765     -3263.0186      16.942115      6955.8289      10112.159    
     33300   296.87436     -3246.88       -3264.0332      17.153188      6756.0978      10112.159    
     33400   289.60914     -3247.4198     -3264.1532      16.733409      6509.9397      10112.159    
     33500   314.92415     -3246.6591     -3264.8552      18.196092      6533.0566      10112.159    
     33600   299.52164     -3245.2263     -3262.5324      17.306146      7322.8444      10112.159    
     33700   307.23833     -3244.4134     -3262.1654      17.752011      7525.891       10112.159    
     33800   297.60295     -3245.4152     -3262.6105      17.195286      7209.2169      10112.159    
     33900   321.38989     -3246.4057     -3264.9754      18.569678      6749.9547      10112.159    
     34000   291.66262     -3247.2447     -3264.0968      16.852057      6510.591       10112.159    
     34100   296.9273      -3246.8104     -3263.9666      17.156247      6793.8695      10112.159    
     34200   285.16324     -3246.7427     -3263.2192      16.476528      6877.6394      10112.159    
     34300   306.85777     -3245.9257     -3263.6557      17.730022      7000.4503      10112.159    
     34400   320.06412     -3244.3048     -3262.7979      18.493076      7298.8315      10112.159    
     34500   312.62795     -3244.7881     -3262.8515      18.06342       6970.6867      10112.159    
     34600   301.66139     -3245.8519     -3263.2817      17.42978       7193.7702      10112.159    
     34700   290.90891     -3246.3658     -3263.1743      16.808509      6882.3788      10112.159    
     34800   311.08313     -3246.7447     -3264.7189      17.974161      6688.8262      10112.159    
     34900   290.68597     -3247.4506     -3264.2462      16.795627      6678.1687      10112.159    
     35000   311.52493     -3246.2631     -3264.2628      17.999688      6580.4894      10112.159    
     35100   292.1931      -3244.8802     -3261.7629      16.882709      7517.1587      10112.159    
     35200   309.02611     -3245.0052     -3262.8605      17.855308      7129.0755      10112.159    
     35300   309.00378     -3246.0766     -3263.9307      17.854017      6657.5717      10112.159    
     35400   304.86815     -3246.496      -3264.1111      17.615064      6712.2535      10112.159    
     35500   283.36893     -3246.9824     -3263.3552      16.372854      7042.411       10112.159    
     35600   311.20659     -3246.582      -3264.5633      17.981294      6647.9316      10112.159    
     35700   312.3668      -3245.0493     -3263.0976      18.04833       7245.3914      10112.159    
     35800   322.20047     -3243.8569     -3262.4734      18.616513      7466.6017      10112.159    
     35900   301.9301      -3245.0992     -3262.5445      17.445305      7468.5445      10112.159    
     36000   311.29666     -3245.8416     -3263.8281      17.986498      7106.909       10112.159    
     36100   288.53194     -3246.8851     -3263.5562      16.671169      6692.9054      10112.159    
     36200   305.34991     -3246.949      -3264.5919      17.642899      6565.2398      10112.159    
     36300   294.94524     -3246.6443     -3263.686       17.041725      7056.0761      10112.159    
     36400   308.75425     -3245.1778     -3263.0174      17.8396        7301.2979      10112.159    
     36500   312.06422     -3244.5956     -3262.6265      18.030847      7344.3402      10112.159    
     36600   323.82624     -3245.7451     -3264.4556      18.710448      6664.5881      10112.159    
     36700   285.99359     -3247.0773     -3263.6018      16.524505      6942.9404      10112.159    
     36800   288.96785     -3246.9386     -3263.635       16.696356      6715.4314      10112.159    
     36900   310.38317     -3246.2242     -3264.1579      17.933718      6734.2759      10112.159    
     37000   309.7028      -3245.8378     -3263.7322      17.894406      6753.8546      10112.159    
     37100   294.43769     -3246.217      -3263.2294      17.012399      7046.5277      10112.159    
     37200   298.64881     -3246.7478     -3264.0035      17.255715      6785.177       10112.159    
     37300   286.47002     -3247.6157     -3264.1678      16.552033      6694.1485      10112.159    
     37400   300.00124     -3246.8282     -3264.1621      17.333857      6699.074       10112.159    
     37500   301.96332     -3245.9587     -3263.4059      17.447225      7022.5476      10112.159    
     37600   312.01416     -3245.1307     -3263.1587      18.027955      6854.2233      10112.159    
     37700   318.16156     -3243.7354     -3262.1185      18.383148      7519.0202      10112.159    
     37800   307.16808     -3245.1664     -3262.9144      17.747952      7516.0207      10112.159    
     37900   295.26366     -3246.6638     -3263.7239      17.060123      6856.6249      10112.159    
     38000   310.9127      -3246.8094     -3264.7737      17.964313      6723.7678      10112.159    
     38100   302.55795     -3247.0955     -3264.5771      17.481582      6600.3192      10112.159    
     38200   285.7718      -3246.9877     -3263.4994      16.51169       6775.2397      10112.159    
     38300   299.23817     -3245.8456     -3263.1353      17.289767      7002.0226      10112.159    
     38400   303.22923     -3245.0801     -3262.6004      17.520368      7109.0492      10112.159    
     38500   324.49932     -3244.0689     -3262.8183      18.749339      7455.2964      10112.159    
     38600   326.44182     -3244.3726     -3263.2342      18.861575      7039.2335      10112.159    
     38700   282.97868     -3246.5286     -3262.8789      16.350306      7134.5117      10112.159    
     38800   303.90461     -3246.9955     -3264.5549      17.559391      6691.9303      10112.159    
     38900   287.51377     -3247.4697     -3264.082       16.61234       6266.5171      10112.159    
     39000   302.72266     -3246.6701     -3264.1612      17.491099      6789.0845      10112.159    
     39100   305.30906     -3245.3374     -3262.9779      17.640539      7058.2953      10112.159    
     39200   316.66902     -3245.0837     -3263.3806      18.296909      6988.6907      10112.159    
     39300   302.43339     -3245.7016     -3263.176       17.474385      6832.6934      10112.159    
     39400   305.13916     -3246.2573     -3263.888       17.630723      7068.7153      10112.159    
     39500   298.17661     -3246.9013     -3264.1297      17.228432      6501.703       10112.159    
     39600   294.84343     -3246.7958     -3263.8317      17.035842      6642.9822      10112.159    
     39700   307.2523      -3246.1687     -3263.9215      17.752818      6830.8149      10112.159    
     39800   311.7506      -3245.0398     -3263.0525      18.012727      7202.6367      10112.159    
     39900   310.88324     -3244.2854     -3262.248       17.962611      7254.5479      10112.159    
     40000   313.87231     -3245.3611     -3263.4964      18.135318      6958.8683      10112.159    
     40100   297.46583     -3246.7928     -3263.9802      17.187363      6489.3012      10112.159    
     40200   296.76168     -3246.8395     -3263.9862      17.146678      6782.5387      10112.159    
     40300   289.29426     -3246.6818     -3263.3971      16.715216      6847.3886      10112.159    
     40400   308.12775     -3246.2828     -3264.0862      17.803401      6548.6704      10112.159    
     40500   311.8351      -3245.2547     -3263.2723      18.017609      7109.3801      10112.159    
     40600   322.52084     -3244.7216     -3263.3566      18.635023      7250.0478      10112.159    
     40700   295.65325     -3246.0347     -3263.1173      17.082633      6809.6652      10112.159    
     40800   298.04322     -3247.0123     -3264.2331      17.220724      6668.5449      10112.159    
     40900   292.36229     -3247.3841     -3264.2766      16.892484      6519.6007      10112.159    
     41000   294.06383     -3246.9561     -3263.9469      16.990798      6700.6388      10112.159    
     41100   295.38502     -3246.4203     -3263.4875      17.067135      6989.2391      10112.159    
     41200   292.97763     -3246.2724     -3263.2004      16.928038      6867.628       10112.159    
     41300   297.42399     -3246.1631     -3263.348       17.184946      6931.781       10112.159    
     41400   309.73803     -3246.1739     -3264.0703      17.896442      6761.0123      10112.159    
     41500   298.90344     -3246.5167     -3263.7872      17.270427      6820.0584      10112.159    
     41600   295.09956     -3246.5976     -3263.6483      17.050641      6867.3534      10112.159    
     41700   302.0564      -3246.4542     -3263.9068      17.452603      6829.2374      10112.159    
     41800   296.58446     -3246.3054     -3263.4419      17.136438      6773.0986      10112.159    
     41900   298.47605     -3246.075      -3263.3207      17.245732      7026.3313      10112.159    
     42000   321.46559     -3245.7394     -3264.3135      18.574052      6734.2604      10112.159    
     42100   293.16139     -3246.2645     -3263.2032      16.938655      6713.9647      10112.159    
     42200   304.60119     -3246.9448     -3264.5444      17.599639      6618.5826      10112.159    
     42300   282.17437     -3248.138      -3264.4418      16.303833      6495.9316      10112.159    
     42400   292.11043     -3247.8683     -3264.7462      16.877932      6568.7086      10112.159    
     42500   297.56094     -3246.7454     -3263.9383      17.192858      6822.5332      10112.159    
     42600   300.53696     -3246.3172     -3263.6821      17.364811      6915.6908      10112.159    
     42700   304.03442     -3246.1005     -3263.6674      17.566891      6935.029       10112.159    
     42800   311.24303     -3246.5559     -3264.5393      17.983399      6461.1995      10112.159    
     42900   281.66938     -3247.7303     -3264.005       16.274655      6656.497       10112.159    
     43000   278.88444     -3247.7055     -3263.8192      16.113743      6608.9701      10112.159    
     43100   310.02437     -3246.2201     -3264.1331      17.912986      6623.0293      10112.159    
     43200   319.548       -3245.0958     -3263.5591      18.463255      6908.5445      10112.159    
     43300   306.75633     -3245.4347     -3263.1589      17.724161      7064.5552      10112.159    
     43400   281.83049     -3246.8311     -3263.1151      16.283964      7055.1785      10112.159    
     43500   305.98142     -3246.9799     -3264.6592      17.679388      6558.3383      10112.159    
     43600   296.10586     -3246.8474     -3263.9562      17.108785      6550.4438      10112.159    
     43700   292.68347     -3246.3521     -3263.2631      16.911042      6853.3994      10112.159    
     43800   307.49327     -3245.1439     -3262.9107      17.766741      7312.7306      10112.159    
     43900   336.16305     -3243.7481     -3263.1714      19.42326       7194.7478      10112.159    
     44000   298.11052     -3244.9552     -3262.1798      17.224612      7198.7778      10112.159    
     44100   314.5851      -3245.7087     -3263.8852      18.176502      7004.9808      10112.159    
     44200   294.72479     -3246.4887     -3263.5176      17.028988      6757.6454      10112.159    
     44300   299.72355     -3246.8138     -3264.1316      17.317812      6675.8839      10112.159    
     44400   306.03509     -3247.0757     -3264.7582      17.682488      6608.9231      10112.159    
     44500   292.55411     -3247.4681     -3264.3716      16.903567      6482.1337      10112.159    
     44600   295.74166     -3247.0538     -3264.1416      17.087741      6707.769       10112.159    
     44700   303.64842     -3245.8244     -3263.369       17.544588      7083.5533      10112.159    
     44800   299.94795     -3245.4489     -3262.7796      17.330778      7013.4084      10112.159    
     44900   309.27478     -3245.9396     -3263.8093      17.869676      6888.1359      10112.159    
     45000   298.11087     -3247.59       -3264.8147      17.224633      6349.328       10112.159    
     45100   279.61007     -3247.8212     -3263.9769      16.15567       6519.486       10112.159    
     45200   293.18195     -3246.8146     -3263.7544      16.939843      6745.8041      10112.159    
     45300   294.52556     -3246.1338     -3263.1513      17.017476      7116.1798      10112.159    
     45400   311.12796     -3246.0694     -3264.0461      17.976751      6619.1427      10112.159    
     45500   291.47464     -3246.3669     -3263.2081      16.841196      6679.8735      10112.159    
     45600   304.15338     -3246.3036     -3263.8773      17.573765      6911.4864      10112.159    
     45700   290.28372     -3247.3657     -3264.138       16.772386      6500.1996      10112.159    
     45800   276.41759     -3248.7825     -3264.7538      15.971211      6210.9058      10112.159    
     45900   300.31955     -3248.0292     -3265.3814      17.352249      6157.9581      10112.159    
     46000   297.15849     -3246.927      -3264.0966      17.169605      6492.7         10112.159    
     46100   287.14993     -3246.2851     -3262.8765      16.591318      6838.0081      10112.159    
     46200   310.71539     -3245.7607     -3263.7136      17.952913      6753.9987      10112.159    
     46300   297.47904     -3246.5183     -3263.7064      17.188126      6819.5466      10112.159    
     46400   282.84195     -3247.7711     -3264.1135      16.342405      6758.6039      10112.159    
     46500   279.33595     -3249.3582     -3265.4981      16.139831      5962.458       10112.159    
     46600   284.11235     -3249.2258     -3265.6416      16.415809      6140.7642      10112.159    
     46700   274.27358     -3248.1632     -3264.0105      15.847332      6708.9703      10112.159    
     46800   297.73439     -3246.9584     -3264.1613      17.20288       6615.1566      10112.159    
     46900   312.2125      -3245.99       -3264.0294      18.039415      6797.7546      10112.159    
     47000   314.82283     -3245.4126     -3263.6029      18.190238      6985.8006      10112.159    
     47100   301.97478     -3245.793      -3263.2409      17.447887      7132.1571      10112.159    
     47200   274.14522     -3247.4522     -3263.2921      15.839915      6985.9036      10112.159    
     47300   311.21955     -3247.7819     -3265.764       17.982043      6452.2734      10112.159    
     47400   294.32821     -3247.5147     -3264.5208      17.006074      6354.7039      10112.159    
     47500   294.69213     -3246.9238     -3263.9509      17.027101      6921.5112      10112.159    
     47600   291.2333      -3246.6246     -3263.4518      16.827252      6658.3436      10112.159    
     47700   311.56621     -3245.5934     -3263.5955      18.002073      6818.3151      10112.159    
     47800   307.54117     -3245.4022     -3263.1718      17.769509      7223.7988      10112.159    
     47900   287.52791     -3246.9301     -3263.5432      16.613157      6613.4557      10112.159    
     48000   291.97153     -3248.4799     -3265.3498      16.869906      6215.1305      10112.159    
     48100   282.19262     -3248.1963     -3264.5012      16.304888      6292.6002      10112.159    
     48200   309.37389     -3246.8387     -3264.7141      17.875402      6729.5232      10112.159    
     48300   300.46918     -3246.0703     -3263.4311      17.360894      6948.123       10112.159    
     48400   308.92437     -3245.5709     -3263.4204      17.849429      6890.584       10112.159    
     48500   293.09365     -3246.3346     -3263.2693      16.934741      6839.0048      10112.159    
     48600   294.89947     -3247.9103     -3264.9494      17.039081      6424.4747      10112.159    
     48700   271.28739     -3248.3386     -3264.0133      15.674791      6368.4393      10112.159    
     48800   289.17945     -3247.4055     -3264.1141      16.708582      6632.4368      10112.159    
     48900   306.1229      -3246.5934     -3264.281       17.687562      6735.9393      10112.159    
     49000   291.96912     -3246.2489     -3263.1186      16.869767      7146.3265      10112.159    
     49100   310.82067     -3245.5462     -3263.5052      17.958996      7089.8212      10112.159    
     49200   311.61878     -3245.383      -3263.3881      18.00511       7020.7399      10112.159    
     49300   290.23201     -3246.462      -3263.2314      16.769398      6966.7924      10112.159    
     49400   306.80255     -3247.2481     -3264.9749      17.726832      6675.0586      10112.159    
     49500   292.77975     -3248.0656     -3264.9822      16.916604      6151.3989      10112.159    
     49600   288.06274     -3247.4454     -3264.0894      16.644059      6675.913       10112.159    
     49700   296.67723     -3245.7965     -3262.9383      17.141798      6926.3003      10112.159    
     49800   309.00069     -3245.7453     -3263.5991      17.853839      6807.4738      10112.159    
     49900   307.0991      -3246.3588     -3264.1027      17.743966      6661.9281      10112.159    
     50000   286.67861     -3247.2944     -3263.8585      16.564085      6846.6703      10112.159    
     50100   283.91378     -3247.9563     -3264.3606      16.404335      6504.2787      10112.159    
     50200   288.65306     -3248.1075     -3264.7857      16.678167      6639.2616      10112.159    
     50300   296.00077     -3246.8579     -3263.9606      17.102713      6692.7326      10112.159    
     50400   313.7517      -3245.833      -3263.9613      18.128349      6832.6813      10112.159    
     50500   299.0909      -3246.0687     -3263.35        17.281259      6940.1784      10112.159    
     50600   308.72287     -3246.2424     -3264.0802      17.837787      6447.8992      10112.159    
     50700   287.30943     -3247.3265     -3263.927       16.600533      6665.7685      10112.159    
     50800   291.63541     -3247.8578     -3264.7083      16.850485      6408.9458      10112.159    
     50900   307.10091     -3246.8281     -3264.5722      17.744071      6507.3687      10112.159    
     51000   311.7918      -3245.2561     -3263.2712      18.015107      6977.8593      10112.159    
     51100   303.6783      -3245.5613     -3263.1077      17.546315      6957.1027      10112.159    
     51200   308.60227     -3246.0507     -3263.8815      17.830819      6742.6855      10112.159    
     51300   300.98685     -3246.9329     -3264.3237      17.390805      6507.8357      10112.159    
     51400   288.8837      -3247.7589     -3264.4504      16.691494      6167.3038      10112.159    
     51500   300.15466     -3246.9439     -3264.2866      17.342721      6629.5982      10112.159    
     51600   296.43403     -3245.4211     -3262.5488      17.127746      6955.241       10112.159    
     51700   327.16961     -3244.7833     -3263.687       18.903626      7187.4633      10112.159    
     51800   297.79757     -3245.8263     -3263.0328      17.206531      6975.5902      10112.159    
     51900   287.38647     -3246.9977     -3263.6027      16.604984      6795.7467      10112.159    
     52000   306.12        -3247.0274     -3264.7148      17.687395      6561.7056      10112.159    
     52100   298.58002     -3246.9705     -3264.2222      17.25174       6511.2588      10112.159    
     52200   291.88665     -3246.6738     -3263.5388      16.865002      6882.7884      10112.159    
     52300   317.85424     -3245.0316     -3263.397       18.36539       7029.1933      10112.159    
     52400   311.82165     -3244.6717     -3262.6885      18.016832      7127.0191      10112.159    
     52500   311.21289     -3245.3511     -3263.3328      17.981658      6833.4027      10112.159    
     52600   291.94872     -3246.2899     -3263.1584      16.868588      7281.3366      10112.159    
     52700   289.747       -3246.9965     -3263.7379      16.741375      6871.2309      10112.159    
     52800   302.88481     -3246.9081     -3264.4085      17.500468      6469.6406      10112.159    
     52900   298.3965      -3246.8006     -3264.0418      17.241136      6755.5951      10112.159    
     53000   300.81077     -3246.3849     -3263.7656      17.380631      6755.9809      10112.159    
     53100   298.18985     -3246.3562     -3263.5854      17.229196      6750.6899      10112.159    
     53200   294.25202     -3246.3104     -3263.3121      17.001671      7030.2008      10112.159    
     53300   318.00895     -3246.013      -3264.3874      18.374329      6734.656       10112.159    
     53400   299.92299     -3246.7087     -3264.0381      17.329336      6473.6426      10112.159    
     53500   289.00688     -3247.151      -3263.8496      16.698611      6737.8151      10112.159    
     53600   296.42144     -3246.9364     -3264.0634      17.127019      6778.6009      10112.159    
     53700   294.28538     -3246.2789     -3263.2825      17.003599      6879.6178      10112.159    
     53800   315.78251     -3245.0586     -3263.3043      18.245688      6817.7875      10112.159    
     53900   315.20033     -3245.121      -3263.3331      18.21205       7046.5295      10112.159    
     54000   293.08589     -3246.867      -3263.8013      16.934293      6895.4103      10112.159    
     54100   282.65602     -3247.4471     -3263.7787      16.331663      6699.3519      10112.159    
     54200   305.27823     -3246.7208     -3264.3596      17.638758      6765.7255      10112.159    
     54300   309.64609     -3246.2247     -3264.1158      17.891129      6553.8924      10112.159    
     54400   313.93849     -3245.7506     -3263.8897      18.139141      7044.3102      10112.159    
     54500   307.26013     -3244.5356     -3262.2888      17.753271      7410.0107      10112.159    
     54600   289.71186     -3244.579      -3261.3184      16.739344      7505.6767      10112.159    
     54700   314.97751     -3246.1996     -3264.3988      18.199175      6542.7107      10112.159    
     54800   294.74772     -3247.4421     -3264.4724      17.030313      6068.5148      10112.159    
     54900   303.51019     -3246.9402     -3264.4768      17.536602      6360.6428      10112.159    
     55000   287.67558     -3246.2559     -3262.8776      16.621689      6831.8893      10112.159    
     55100   295.68609     -3245.5418     -3262.6263      17.084531      7217.7294      10112.159    
     55200   319.79992     -3244.8122     -3263.29        18.477811      7065.8655      10112.159    
     55300   302.48038     -3245.8882     -3263.3653      17.4771        6758.7818      10112.159    
     55400   302.51807     -3247.0686     -3264.5479      17.479278      6574.4189      10112.159    
     55500   281.71043     -3247.6056     -3263.8826      16.277027      6637.1003      10112.159    
     55600   297.62977     -3246.9564     -3264.1533      17.196835      6580.5624      10112.159    
     55700   314.18006     -3245.1609     -3263.314       18.153099      6695.2327      10112.159    
     55800   307.66386     -3245.1939     -3262.9705      17.776598      7069.9159      10112.159    
     55900   305.31679     -3245.8337     -3263.4747      17.640986      6760.3249      10112.159    
     56000   291.7445      -3246.9556     -3263.8124      16.856788      6784.8699      10112.159    
     56100   290.19351     -3247.4046     -3264.1718      16.767174      6600.8647      10112.159    
     56200   303.38185     -3247.069      -3264.5982      17.529186      6468.2908      10112.159    
     56300   301.17321     -3246.6264     -3264.028       17.401573      6764.4144      10112.159    
     56400   303.53941     -3246.1422     -3263.6804      17.53829       6844.786       10112.159    
     56500   290.25177     -3246.1263     -3262.8969      16.77054       6860.3775      10112.159    
     56600   294.91819     -3246.5259     -3263.566       17.040162      6713.234       10112.159    
     56700   298.32218     -3247.7072     -3264.944       17.236842      6129.1126      10112.159    
     56800   282.03483     -3247.8937     -3264.1895      16.295771      6583.1631      10112.159    
     56900   312.98304     -3246.5499     -3264.6339      18.083936      6433.6205      10112.159    
     57000   291.41057     -3246.0171     -3262.8546      16.837494      7156.4671      10112.159    
     57100   306.03831     -3245.7721     -3263.4548      17.682675      6968.4059      10112.159    
     57200   292.54862     -3246.2099     -3263.1132      16.90325       6711.3968      10112.159    
     57300   319.84112     -3246.01       -3264.4902      18.480191      6438.0943      10112.159    
     57400   300.86155     -3246.6076     -3263.9912      17.383565      6548.1494      10112.159    
     57500   303.04556     -3246.9681     -3264.4779      17.509756      6670.5552      10112.159    
     57600   294.36441     -3247.0378     -3264.046       17.008165      6792.185       10112.159    
     57700   294.98203     -3246.255      -3263.2988      17.043851      6821.2848      10112.159    
     57800   319.63559     -3245.437      -3263.9053      18.468316      6739.4129      10112.159    
     57900   305.07401     -3245.5413     -3263.1682      17.626958      6983.4008      10112.159    
     58000   296.42073     -3246.6003     -3263.7273      17.126978      6780.1221      10112.159    
     58100   280.73647     -3247.5403     -3263.7611      16.220752      6658.1681      10112.159    
     58200   300.47548     -3247.0038     -3264.3651      17.361259      6569.7073      10112.159    
     58300   302.81597     -3246.3624     -3263.8589      17.49649       6569.1993      10112.159    
     58400   308.12862     -3245.3959     -3263.1993      17.803451      7050.2863      10112.159    
     58500   315.1609      -3243.5378     -3261.7476      18.209772      7633.3666      10112.159    
     58600   335.96241     -3243.784      -3263.1957      19.411667      7280.8606      10112.159    
     58700   300.29405     -3245.4997     -3262.8505      17.350775      7085.6842      10112.159    
     58800   313.87651     -3245.9404     -3264.076       18.13556       6757.6055      10112.159    
     58900   300.89133     -3247.1354     -3264.5207      17.385286      6484.4817      10112.159    
     59000   269.2185      -3248.0238     -3263.5791      15.555252      6892.5145      10112.159    
     59100   304.75898     -3246.8778     -3264.4865      17.608756      6589.2386      10112.159    
     59200   293.33062     -3246.5133     -3263.4617      16.948433      6670.9076      10112.159    
     59300   310.48647     -3246.1778     -3264.1174      17.939686      6662.6256      10112.159    
     59400   320.20411     -3245.8459     -3264.3471      18.501165      6777.7869      10112.159    
     59500   277.72459     -3246.199      -3262.2457      16.046728      7088.8667      10112.159    
     59600   281.89222     -3247.2173     -3263.5048      16.287531      6876.0958      10112.159    
     59700   300.96838     -3247.5828     -3264.9725      17.389738      6446.4126      10112.159    
     59800   299.47014     -3247.3425     -3264.6457      17.303171      6633.8385      10112.159    
     59900   297.26888     -3245.603      -3262.7789      17.175983      7228.884       10112.159    
     60000   308.04272     -3245.168      -3262.9665      17.798488      7062.8274      10112.159    
     60100   307.22404     -3246.165      -3263.9162      17.751185      6755.2787      10112.159    
     60200   289.42446     -3247.0962     -3263.8189      16.722738      6739.5369      10112.159    
     60300   308.85749     -3246.9114     -3264.7569      17.845565      6448.5871      10112.159    
     60400   302.8759      -3246.3957     -3263.8957      17.499953      6841.0587      10112.159    
     60500   283.23961     -3245.9393     -3262.3047      16.365382      7351.6845      10112.159    
     60600   297.9145      -3246.1791     -3263.3924      17.213287      7141.9425      10112.159    
     60700   286.97367     -3248.4652     -3265.0464      16.581133      6265.9611      10112.159    
     60800   297.94061     -3248.4113     -3265.6261      17.214795      6212.5075      10112.159    
     60900   283.52034     -3247.4116     -3263.7932      16.381602      6725.3709      10112.159    
     61000   303.4492      -3246.1943     -3263.7274      17.533078      7010.1665      10112.159    
     61100   297.94035     -3246.0741     -3263.2889      17.214781      7049.8493      10112.159    
     61200   307.68924     -3246.0345     -3263.8126      17.778064      6806.3037      10112.159    
     61300   313.01416     -3246.4352     -3264.5209      18.085735      6641.9421      10112.159    
     61400   272.9916      -3247.7217     -3263.4949      15.773259      6840.2011      10112.159    
     61500   301.13954     -3247.1506     -3264.5502      17.399627      6405.2785      10112.159    
     61600   292.45974     -3246.3281     -3263.2263      16.898115      7139.2025      10112.159    
     61700   328.95493     -3244.685      -3263.6918      19.006781      7193.59        10112.159    
     61800   298.96137     -3244.9548     -3262.2285      17.273774      7354.7133      10112.159    
     61900   320.27041     -3245.3568     -3263.8618      18.504995      6877.2463      10112.159    
     62000   299.44405     -3246.2543     -3263.556       17.301663      6983.8432      10112.159    
     62100   304.38357     -3246.7632     -3264.3503      17.587065      6761.6256      10112.159    
     62200   287.66602     -3247.3478     -3263.9689      16.621137      6490.858       10112.159    
     62300   296.90243     -3247.0066     -3264.1614      17.15481       6844.7802      10112.159    
     62400   310.71623     -3245.4358     -3263.3887      17.952961      6847.9685      10112.159    
     62500   310.31947     -3245.1642     -3263.0942      17.930037      7423.0591      10112.159    
     62600   302.08331     -3245.9598     -3263.414       17.454158      7199.5803      10112.159    
     62700   295.46687     -3247.3        -3264.3718      17.071865      6653.1772      10112.159    
     62800   287.90133     -3248.063      -3264.6977      16.634733      6611.0179      10112.159    
     62900   282.76123     -3247.703      -3264.0408      16.337742      6598.9599      10112.159    
     63000   297.2956      -3246.8624     -3264.04        17.177527      6712.0573      10112.159    
     63100   303.61611     -3246.2073     -3263.75        17.542721      6860.7581      10112.159    
     63200   308.33976     -3245.8517     -3263.6673      17.815651      7081.614       10112.159    
     63300   300.34573     -3245.5682     -3262.9219      17.353761      7242.477       10112.159    
     63400   307.57844     -3245.2817     -3263.0534      17.771662      6899.4594      10112.159    
     63500   288.36838     -3246.5224     -3263.1841      16.661719      6794.533       10112.159    
     63600   302.03875     -3247.2166     -3264.6682      17.451583      6696.1809      10112.159    
     63700   297.9706      -3247.5846     -3264.8012      17.216528      6370.9491      10112.159    
     63800   298.82105     -3246.2661     -3263.5318      17.265666      6987.4037      10112.159    
     63900   296.63444     -3245.0815     -3262.2208      17.139326      7267.1469      10112.159    
     64000   308.40032     -3245.44       -3263.2591      17.81915       7208.7052      10112.159    
     64100   301.85042     -3246.7413     -3264.182       17.440701      6542.789       10112.159    
     64200   298.44185     -3247.0742     -3264.3179      17.243757      6586.2727      10112.159    
     64300   301.2594      -3246.7612     -3264.1677      17.406552      6765.297       10112.159    
     64400   287.72518     -3246.2803     -3262.9049      16.624555      7181.0372      10112.159    
     64500   310.19894     -3244.4112     -3262.3343      17.923073      7298.2978      10112.159    
     64600   330.10699     -3244.4412     -3263.5145      19.073346      7023.2969      10112.159    
     64700   314.38969     -3245.7923     -3263.9575      18.165211      6743.2452      10112.159    
     64800   285.69701     -3246.6734     -3263.1807      16.507369      6731.7123      10112.159    
     64900   288.30126     -3246.7976     -3263.4554      16.65784       7046.7528      10112.159    
     65000   311.01782     -3246.3622     -3264.3326      17.970387      6822.2044      10112.159    
     65100   303.35617     -3245.8192     -3263.3469      17.527702      6972.8676      10112.159    
     65200   313.15449     -3244.8505     -3262.9443      18.093842      7226.4859      10112.159    
     65300   311.96924     -3245.1296     -3263.1549      18.02536       7225.9154      10112.159    
     65400   304.92295     -3246.7937     -3264.4119      17.61823       6371.1725      10112.159    
     65500   282.45648     -3247.5415     -3263.8617      16.320134      6820.5142      10112.159    
     65600   291.89151     -3246.8748     -3263.74        16.865282      6633.3845      10112.159    
     65700   321.60921     -3245.977      -3264.5594      18.58235       6586.6611      10112.159    
     65800   296.60882     -3246.3052     -3263.443       17.137846      6931.746       10112.159    
     65900   300.10762     -3246.2287     -3263.5687      17.340004      7055.0765      10112.159    
     66000   303.28909     -3246.2147     -3263.7385      17.523827      6829.0282      10112.159    
     66100   294.92473     -3246.4953     -3263.5358      17.04054       6774.384       10112.159    
     66200   306.0767      -3246.4453     -3264.1302      17.684893      7055.72        10112.159    
     66300   301.97182     -3246.4589     -3263.9066      17.447716      6861.7658      10112.159    
     66400   289.91646     -3246.7605     -3263.5116      16.751165      6759.018       10112.159    
     66500   281.79103     -3247.701      -3263.9827      16.281684      6988.8586      10112.159    
     66600   297.30607     -3247.3698     -3264.548       17.178132      6473.7408      10112.159    
     66700   297.99386     -3246.282      -3263.4999      17.217872      7047.3826      10112.159    
     66800   318.77654     -3245.4232     -3263.8419      18.418681      7039.9737      10112.159    
     66900   295.66236     -3245.8494     -3262.9325      17.08316       7207.8461      10112.159    
     67000   292.76227     -3247.5811     -3264.4967      16.915594      6468.8458      10112.159    
     67100   273.24722     -3248.3934     -3264.1814      15.788029      6791.6648      10112.159    
     67200   293.54358     -3247.3628     -3264.3235      16.960738      6588.7584      10112.159    
     67300   315.21782     -3246.1961     -3264.4092      18.21306       6759.8577      10112.159    
     67400   293.24415     -3246.0931     -3263.0366      16.943437      7081.4074      10112.159    
     67500   303.03718     -3245.9951     -3263.5043      17.509271      6890.8538      10112.159    
     67600   290.55069     -3247.171      -3263.9588      16.787811      6875.1376      10112.159    
     67700   280.36695     -3248.24       -3264.4394      16.199402      6450.1138      10112.159    
     67800   299.71414     -3247.412      -3264.7293      17.317268      6293.5039      10112.159    
     67900   294.12661     -3246.6142     -3263.6087      16.994425      7005.4142      10112.159    
     68000   294.9909      -3246.2738     -3263.3182      17.044363      6940.3646      10112.159    
     68100   304.92331     -3246.1361     -3263.7543      17.618251      6900.2624      10112.159    
     68200   300.17903     -3246.5421     -3263.8863      17.34413       6957.5684      10112.159    
     68300   295.94754     -3247.8606     -3264.9602      17.099637      6556.5676      10112.159    
     68400   273.64371     -3249.0453     -3264.8562      15.810938      6466.2501      10112.159    
     68500   285.12829     -3248.1194     -3264.5939      16.474508      6611.8384      10112.159    
     68600   285.26987     -3247.0183     -3263.501       16.482689      6951.2982      10112.159    
     68700   309.98038     -3246.2256     -3264.136       17.910444      6639.1832      10112.159    
     68800   301.80426     -3246.3079     -3263.7459      17.438034      7027.7471      10112.159    
     68900   295.01871     -3246.6189     -3263.6649      17.04597       6840.5077      10112.159    
     69000   288.54134     -3247.0234     -3263.6951      16.671712      6896.3971      10112.159    
     69100   290.28737     -3247.1643     -3263.9369      16.772597      6770.9359      10112.159    
     69200   304.40634     -3246.6394     -3264.2278      17.588381      6671.7841      10112.159    
     69300   303.83748     -3245.9618     -3263.5173      17.555512      6802.2516      10112.159    
     69400   313.76987     -3244.8296     -3262.959       18.129399      7196.1365      10112.159    
     69500   310.73329     -3245.1633     -3263.1172      17.953947      7268.797       10112.159    
     69600   296.26919     -3246.8245     -3263.9427      17.118222      6615.2534      10112.159    
     69700   307.48199     -3246.9791     -3264.7452      17.76609       6705.0993      10112.159    
     69800   277.50787     -3247.2514     -3263.2856      16.034206      6910.1733      10112.159    
     69900   313.11136     -3246.1754     -3264.2667      18.091351      6846.0354      10112.159    
     70000   311.36721     -3244.9109     -3262.9015      17.990574      7005.5733      10112.159    
     70100   314.1681      -3244.2872     -3262.4396      18.152408      7454.8988      10112.159    
     70200   302.19451     -3245.2491     -3262.7097      17.460582      7299.228       10112.159    
     70300   309.13746     -3245.857      -3263.7188      17.861741      6693.6369      10112.159    
     70400   299.58705     -3246.805      -3264.1149      17.309925      6700.9661      10112.159    
     70500   310.08037     -3247.1915     -3265.1078      17.916222      6320.1853      10112.159    
     70600   278.87134     -3247.5207     -3263.6337      16.112987      6907.6499      10112.159    
     70700   305.14311     -3246.0834     -3263.7144      17.630951      6959.8968      10112.159    
     70800   314.4083      -3244.9801     -3263.1464      18.166287      7005.4098      10112.159    
     70900   325.70586     -3245.2706     -3264.0896      18.819052      6942.4171      10112.159    
     71000   286.70115     -3246.3894     -3262.9548      16.565387      6932.4808      10112.159    
     71100   319.15038     -3246.3272     -3264.7674      18.440281      6696.6381      10112.159    
     71200   294.06476     -3246.892      -3263.8828      16.990852      6637.0814      10112.159    
     71300   296.72884     -3246.6037     -3263.7485      17.14478       6657.4066      10112.159    
     71400   309.6122      -3245.4565     -3263.3457      17.889172      7152.2985      10112.159    
     71500   318.68925     -3244.5022     -3262.9159      18.413637      7101.547       10112.159    
     71600   310.28973     -3244.9143     -3262.8426      17.928319      7059.5847      10112.159    
     71700   295.5505      -3246.6962     -3263.7729      17.076697      6742.1505      10112.159    
     71800   297.35849     -3247.091      -3264.2722      17.181161      6641.6934      10112.159    
     71900   289.83483     -3247.0786     -3263.825       16.746449      6549.9917      10112.159    
     72000   322.62706     -3245.6702     -3264.3113      18.641161      6891.4749      10112.159    
     72100   296.7873      -3245.4074     -3262.5556      17.148158      7005.8408      10112.159    
     72200   316.75312     -3245.7288     -3264.0306      18.301769      6907.1779      10112.159    
     72300   292.00556     -3246.9223     -3263.7942      16.871872      6584.7937      10112.159    
     72400   284.8791      -3247.0202     -3263.4803      16.460111      6966.7281      10112.159    
     72500   303.21293     -3246.4674     -3263.9868      17.519426      6963.1408      10112.159    
     72600   302.5561      -3246.1027     -3263.5841      17.481475      6749.0771      10112.159    
     72700   309.80899     -3245.8525     -3263.753       17.900542      6861.4513      10112.159    
     72800   295.18452     -3246.4026     -3263.4582      17.05555       7004.4809      10112.159    
     72900   289.12395     -3247.5418     -3264.2472      16.705375      6503.6111      10112.159    
     73000   295.84418     -3247.8235     -3264.9172      17.093665      6452.1552      10112.159    
     73100   303.06424     -3246.4496     -3263.9604      17.510835      6884.7297      10112.159    
     73200   309.91814     -3245.4842     -3263.3911      17.906849      7153.8096      10112.159    
     73300   293.48261     -3245.9613     -3262.9185      16.957215      7125.3068      10112.159    
     73400   298.26784     -3246.6478     -3263.8815      17.233702      6753.4972      10112.159    
     73500   300.57759     -3247.2998     -3264.6669      17.367158      6444.3246      10112.159    
     73600   291.22882     -3247.6562     -3264.4832      16.826993      6510.2806      10112.159    
     73700   283.77101     -3247.1255     -3263.5216      16.396086      6946.2994      10112.159    
     73800   317.23488     -3245.7985     -3264.1281      18.329604      6673.9904      10112.159    
     73900   324.88453     -3245.4495     -3264.2211      18.771596      6951.8641      10112.159    
     74000   290.52806     -3246.3284     -3263.1149      16.786504      7181.7569      10112.159    
     74100   284.42651     -3247.4312     -3263.8652      16.43396       6760.1015      10112.159    
     74200   293.7363      -3248.2227     -3265.1945      16.971873      6357.4466      10112.159    
     74300   281.59517     -3249.0787     -3265.349       16.270367      6077.5939      10112.159    
     74400   293.93296     -3247.7264     -3264.7096      16.983236      6575.9466      10112.159    
     74500   288.684       -3246.5313     -3263.2112      16.679955      7154.3013      10112.159    
     74600   292.047       -3246.0671     -3262.9414      16.874267      6884.6445      10112.159    
     74700   316.91367     -3245.5558     -3263.8668      18.311045      6957.5477      10112.159    
     74800   304.06266     -3245.853      -3263.4216      17.568523      7049.4122      10112.159    
     74900   306.47723     -3247.2353     -3264.9433      17.708035      6636.5271      10112.159    
     75000   268.27415     -3248.2559     -3263.7566      15.500689      6728.5947      10112.159    
     75100   285.66718     -3247.5851     -3264.0907      16.505645      6816.4543      10112.159    
     75200   304.71238     -3246.7853     -3264.3914      17.606064      6656.3519      10112.159    
     75300   308.44996     -3246.2015     -3264.0235      17.822018      6830.2735      10112.159    
     75400   288.07106     -3246.2295     -3262.874       16.64454       7320.383       10112.159    
[...]
    281800   311.25837     -3246.3464     -3264.3307      17.984286      6616.7216      10112.159    
    281900   293.30643     -3246.7129     -3263.6599      16.947036      6862.8134      10112.159    
    282000   284.17155     -3246.5431     -3262.9623      16.419229      6938.257       10112.159    
    282100   303.65861     -3245.8169     -3263.3621      17.545177      6727.908       10112.159    
    282200   312.3117      -3245.6601     -3263.7053      18.045147      6745.102       10112.159    
    282300   298.55385     -3246.2855     -3263.5357      17.250228      6798.2105      10112.159    
    282400   288.1822      -3247.2982     -3263.9491      16.650961      6591.5997      10112.159    
    282500   280.83141     -3247.5715     -3263.7978      16.226238      6434.1099      10112.159    
    282600   310.87841     -3246.4573     -3264.4196      17.962332      6837.9371      10112.159    
    282700   305.15593     -3245.1089     -3262.7406      17.631691      7001.5541      10112.159    
    282800   339.49168     -3244.6253     -3264.2409      19.615586      7111.4477      10112.159    
    282900   280.96488     -3245.7432     -3261.9772      16.23395       7411.8092      10112.159    
    283000   299.34615     -3245.9766     -3263.2726      17.296006      6948.5523      10112.159    
    283100   296.92949     -3246.8723     -3264.0287      17.156373      6815.0492      10112.159    
    283200   293.43124     -3247.4745     -3264.4288      16.954247      6402.2488      10112.159    
    283300   289.18811     -3247.2589     -3263.968       16.709082      6659.1786      10112.159    
    283400   306.57522     -3245.7169     -3263.4306      17.713697      6901.9712      10112.159    
    283500   322.57657     -3244.7207     -3263.3589      18.638244      7060.8217      10112.159    
    283600   303.00089     -3245.4392     -3262.9463      17.507174      6772.118       10112.159    
    283700   310.15646     -3246.465      -3264.3856      17.920618      6664.6855      10112.159    
    283800   298.49953     -3246.6847     -3263.9317      17.24709       6712.4043      10112.159    
    283900   302.23937     -3246.6972     -3264.1603      17.463174      6638.7257      10112.159    
    284000   303.46751     -3246.622      -3264.1561      17.534135      6772.842       10112.159    
    284100   294.01323     -3245.753      -3262.7409      16.987874      7133.1896      10112.159    
    284200   322.7516      -3244.3424     -3262.9908      18.648356      7146.2638      10112.159    
    284300   310.01789     -3245.1851     -3263.0977      17.912612      7074.2981      10112.159    
    284400   299.57729     -3246.4493     -3263.7587      17.309362      6608.2568      10112.159    
    284500   301.0003      -3246.7052     -3264.0968      17.391582      6703.7905      10112.159    
    284600   300.51753     -3246.9409     -3264.3046      17.363688      6809.4704      10112.159    
    284700   301.41362     -3246.8836     -3264.2991      17.415463      6717.2034      10112.159    
    284800   295.94962     -3245.2617     -3262.3614      17.099757      7087.6161      10112.159    
    284900   315.96931     -3244.6752     -3262.9316      18.256481      7282.8223      10112.159    
    285000   313.60509     -3245.5299     -3263.6498      18.119878      6731.1539      10112.159    
    285100   296.73086     -3246.5513     -3263.6961      17.144897      6527.469       10112.159    
    285200   296.77631     -3246.9088     -3264.0563      17.147523      6591.3204      10112.159    
    285300   290.56121     -3246.926      -3263.7144      16.788419      6738.7072      10112.159    
    285400   302.81833     -3246.418      -3263.9146      17.496627      6631.7692      10112.159    
    285500   304.13417     -3245.9211     -3263.4938      17.572655      7030.6295      10112.159    
    285600   314.986       -3244.3495     -3262.5492      18.199666      7340.7171      10112.159    
    285700   325.22859     -3243.4605     -3262.252       18.791475      7524.3818      10112.159    
    285800   311.55471     -3245.0964     -3263.0978      18.001408      7146.0344      10112.159    
    285900   302.67627     -3246.3087     -3263.7971      17.488418      6756.5058      10112.159    
    286000   296.90926     -3246.9307     -3264.0859      17.155205      6662.017       10112.159    
    286100   298.95565     -3247.0087     -3264.2822      17.273444      6645.6495      10112.159    
    286200   292.24952     -3246.5006     -3263.3865      16.885968      6809.1365      10112.159    
    286300   311.35015     -3245.0624     -3263.052       17.989589      6855.4884      10112.159    
    286400   330.74988     -3244.795      -3263.9055      19.110492      7205.2378      10112.159    
    286500   292.05949     -3246.3258     -3263.2008      16.874989      6960.3667      10112.159    
    286600   296.75273     -3246.7899     -3263.936       17.14616       6857.8029      10112.159    
    286700   299.59111     -3246.6682     -3263.9784      17.31016       6495.6084      10112.159    
    286800   303.05484     -3246.2939     -3263.8041      17.510292      6815.7311      10112.159    
    286900   305.82356     -3245.7973     -3263.4675      17.670267      6701.7157      10112.159    
    287000   309.97791     -3244.8974     -3262.8077      17.910302      7206.07        10112.159    
    287100   309.5454      -3244.9944     -3262.8797      17.885312      7097.2489      10112.159    
    287200   304.02819     -3246.6604     -3264.2269      17.566532      6777.4255      10112.159    
    287300   295.31478     -3247.0878     -3264.1509      17.063077      6671.1913      10112.159    
    287400   296.16277     -3246.8982     -3264.0103      17.112073      6577.0657      10112.159    
    287500   313.11009     -3246.2099     -3264.3012      18.091277      6732.405       10112.159    
    287600   304.48182     -3244.9301     -3262.5228      17.592742      7285.6333      10112.159    
    287700   312.35437     -3244.0654     -3262.113       18.047612      7449.6819      10112.159    
    287800   300.39675     -3245.9108     -3263.2675      17.35671       6869.6591      10112.159    
    287900   305.29348     -3246.9573     -3264.5969      17.639639      6517.2012      10112.159    
    288000   287.76173     -3247.2257     -3263.8523      16.626667      6567.031       10112.159    
    288100   301.62789     -3246.5747     -3264.0026      17.427844      6782.6938      10112.159    
    288200   318.02443     -3245.4738     -3263.849       18.375224      6892.5178      10112.159    
    288300   305.37928     -3245.0824     -3262.727       17.644596      6923.134       10112.159    
    288400   297.64186     -3246.0658     -3263.2633      17.197534      7080.1475      10112.159    
    288500   296.98836     -3247.7911     -3264.9508      17.159775      6360.2801      10112.159    
    288600   288.04673     -3247.8006     -3264.4437      16.643134      6412.4988      10112.159    
    288700   286.22571     -3246.9104     -3263.4483      16.537917      6901.5735      10112.159    
    288800   314.00026     -3245.8809     -3264.0236      18.142711      6542.6504      10112.159    
    288900   301.27986     -3245.9435     -3263.3512      17.407735      6928.0475      10112.159    
    289000   304.53958     -3246.0495     -3263.6456      17.596079      6858.2693      10112.159    
    289100   290.82051     -3247.3016     -3264.105       16.803401      6587.3368      10112.159    
    289200   281.07495     -3248.4766     -3264.7169      16.240309      6326.3813      10112.159    
    289300   293.04079     -3247.6178     -3264.5495      16.931687      6385.2816      10112.159    
    289400   296.65383     -3246.5678     -3263.7082      17.140446      6799.5343      10112.159    
    289500   316.90533     -3246.0359     -3264.3465      18.310563      6702.7517      10112.159    
    289600   284.00537     -3246.5232     -3262.9328      16.409627      6890.3978      10112.159    
    289700   301.45957     -3246.2265     -3263.6446      17.418118      6974.4263      10112.159    
    289800   316.17632     -3245.0954     -3263.3639      18.268442      7049.3924      10112.159    
    289900   323.72613     -3244.3852     -3263.0898      18.704664      6985.5466      10112.159    
    290000   298.8853      -3245.4897     -3262.7591      17.269379      7159.5439      10112.159    
    290100   287.41888     -3246.6862     -3263.293       16.606857      6810.1049      10112.159    
    290200   303.10878     -3246.8982     -3264.4116      17.513408      6589.4195      10112.159    
    290300   311.20564     -3246.7586     -3264.7398      17.98124       6520.5335      10112.159    
    290400   289.96013     -3245.7787     -3262.5324      16.753689      7281.1254      10112.159    
    290500   320.15525     -3244.6578     -3263.1561      18.498342      7154.9102      10112.159    
    290600   316.71424     -3245.4491     -3263.7487      18.299522      6923.4134      10112.159    
    290700   297.58419     -3246.5174     -3263.7116      17.194202      6779.875       10112.159    
    290800   283.05587     -3246.9591     -3263.3138      16.354766      6961.8437      10112.159    
    290900   307.73772     -3246.6152     -3264.3961      17.780866      6420.3114      10112.159    
    291000   310.46258     -3246.405      -3264.3433      17.938306      6725.5845      10112.159    
    291100   296.85356     -3246.2184     -3263.3704      17.151986      7015.3935      10112.159    
    291200   310.70727     -3244.4441     -3262.3966      17.952444      7464.483       10112.159    
    291300   324.57778     -3243.5534     -3262.3072      18.753872      7551.3443      10112.159    
    291400   326.80669     -3244.8105     -3263.6932      18.882657      7087.0237      10112.159    
    291500   289.76807     -3246.3851     -3263.1277      16.742592      6927.7045      10112.159    
    291600   304.96534     -3246.4122     -3264.0328      17.620679      6816.1923      10112.159    
    291700   311.11661     -3246.2774     -3264.2535      17.976095      6741.5739      10112.159    
    291800   275.97277     -3246.9087     -3262.8542      15.945509      6986.2029      10112.159    
    291900   303.9749      -3247.2773     -3264.8408      17.563452      6458.6319      10112.159    
    292000   283.64255     -3247.8333     -3264.222       16.388664      6661.4271      10112.159    
    292100   309.00271     -3246.6463     -3264.5003      17.853956      6812.6761      10112.159    
    292200   300.62058     -3245.534      -3262.9037      17.369642      6991.9989      10112.159    
    292300   298.48016     -3245.2236     -3262.4696      17.24597       7202.8221      10112.159    
    292400   314.00309     -3245.4216     -3263.5644      18.142874      6784.5694      10112.159    
    292500   296.47042     -3246.2853     -3263.4152      17.129849      6869.8286      10112.159    
    292600   303.53773     -3246.4143     -3263.9525      17.538193      6710.3715      10112.159    
    292700   293.80768     -3246.6474     -3263.6234      16.975998      6860.0338      10112.159    
    292800   293.6843      -3246.6382     -3263.6071      16.968869      6795.3984      10112.159    
    292900   315.7625      -3246.2474     -3264.492       18.244531      6663.0418      10112.159    
    293000   292.41979     -3246.0215     -3262.9173      16.895806      7149.3218      10112.159    
    293100   310.31374     -3245.3037     -3263.2334      17.929706      7181.635       10112.159    
    293200   307.50719     -3245.8943     -3263.6618      17.767545      6818.6519      10112.159    
    293300   300.14296     -3247.392      -3264.7341      17.342046      6587.8279      10112.159    
    293400   283.94204     -3247.9275     -3264.3335      16.405968      6493.5283      10112.159    
    293500   296.88329     -3247.169      -3264.3227      17.153704      6790.7036      10112.159    
    293600   290.41778     -3246.7187     -3263.4988      16.780132      6680.6412      10112.159    
    293700   298.35259     -3246.1131     -3263.3517      17.2386        7056.2822      10112.159    
    293800   325.46351     -3245.7285     -3264.5335      18.805049      6591.0485      10112.159    
    293900   277.84834     -3246.5943     -3262.6481      16.053878      7067.4582      10112.159    
    294000   301.97465     -3246.525      -3263.9729      17.447879      6773.2544      10112.159    
    294100   304.4919      -3246.6837     -3264.277       17.593324      6653.5916      10112.159    
    294200   301.57126     -3246.5626     -3263.9872      17.424571      6796.2395      10112.159    
    294300   299.87205     -3245.9284     -3263.2548      17.326393      6838.9399      10112.159    
    294400   319.29456     -3244.5087     -3262.9573      18.448611      7357.339       10112.159    
    294500   307.84448     -3244.2799     -3262.0669      17.787034      7411.2945      10112.159    
    294600   303.71835     -3246.3984     -3263.947       17.548629      6902.5822      10112.159    
    294700   304.04738     -3246.9896     -3264.5573      17.56764       6635.7502      10112.159    
    294800   291.58612     -3247.1448     -3263.9925      16.847638      6736.6109      10112.159    
    294900   297.1755      -3246.3353     -3263.5059      17.170588      7000.4944      10112.159    
    295000   312.95957     -3245.2481     -3263.3306      18.08258       6974.2236      10112.159    
    295100   294.71087     -3245.5947     -3262.6229      17.028183      7162.3635      10112.159    
    295200   306.80129     -3247.0056     -3264.7324      17.726759      6574.3034      10112.159    
    295300   280.1337      -3248.2254     -3264.4113      16.185925      6486.9747      10112.159    
    295400   298.88346     -3247.2732     -3264.5424      17.269273      6628.6254      10112.159    
    295500   286.82567     -3246.2627     -3262.8353      16.572582      6895.8207      10112.159    
    295600   323.84765     -3245.2516     -3263.9633      18.711685      6600.7499      10112.159    
    295700   303.45228     -3245.7624     -3263.2957      17.533256      6698.1909      10112.159    
    295800   298.70281     -3246.4782     -3263.737       17.258835      6914.9043      10112.159    
    295900   296.37669     -3246.8297     -3263.9542      17.124433      6748.6531      10112.159    
    296000   299.24875     -3246.6605     -3263.9509      17.290379      6798.7089      10112.159    
    296100   295.98926     -3246.6072     -3263.7093      17.102048      6675.1598      10112.159    
    296200   307.33499     -3246.4621     -3264.2197      17.757596      6771.5847      10112.159    
    296300   295.12537     -3246.1316     -3263.1837      17.052133      6808.812       10112.159    
    296400   323.28571     -3244.9187     -3263.5979      18.679217      6856.8069      10112.159    
    296500   296.01691     -3245.7744     -3262.8781      17.103646      7021.001       10112.159    
    296600   305.89137     -3247.0001     -3264.6743      17.674185      6517.3674      10112.159    
    296700   287.01115     -3247.7885     -3264.3718      16.583299      6345.4047      10112.159    
    296800   299.99432     -3247.2623     -3264.5958      17.333457      6420.3275      10112.159    
    296900   280.2122      -3246.6971     -3262.8876      16.19046       6875.8588      10112.159    
    297000   320.25492     -3245.5643     -3264.0684      18.5041        6859.9402      10112.159    
    297100   297.37858     -3246.0025     -3263.1848      17.182322      6952.6852      10112.159    
    297200   310.8636      -3246.2998     -3264.2613      17.961477      6562.1677      10112.159    
    297300   300.60941     -3246.6092     -3263.9781      17.368997      6569.6883      10112.159    
    297400   285.44988     -3246.7785     -3263.2716      16.49309       6738.393       10112.159    
    297500   300.29877     -3246.4178     -3263.7689      17.351048      6762.7647      10112.159    
    297600   306.54141     -3246.2135     -3263.9252      17.711743      6715.4611      10112.159    
    297700   294.26769     -3246.5138     -3263.5164      17.002577      6941.6987      10112.159    
    297800   292.97254     -3247.0166     -3263.9443      16.927744      6710.251       10112.159    
    297900   298.59743     -3247.3748     -3264.6275      17.252746      6342.9806      10112.159    
    298000   301.08328     -3246.7741     -3264.1705      17.396376      6480.4416      10112.159    
    298100   297.60608     -3245.4163     -3262.6118      17.195466      7274.3722      10112.159    
    298200   316.9341      -3244.8157     -3263.1279      18.312225      7129.9956      10112.159    
    298300   313.3555      -3245.6627     -3263.7681      18.105456      6752.4906      10112.159    
    298400   299.61797     -3246.3422     -3263.6539      17.311712      6834.3952      10112.159    
    298500   291.51015     -3246.7263     -3263.5696      16.843248      6920.0729      10112.159    
    298600   303.06338     -3246.571      -3264.0818      17.510785      6685.7468      10112.159    
    298700   308.98458     -3246.2627     -3264.1156      17.852908      6779.4979      10112.159    
    298800   304.42508     -3245.8457     -3263.4352      17.589464      6838.2036      10112.159    
    298900   315.06754     -3245.2616     -3263.4659      18.204377      6970.8987      10112.159    
    299000   302.9479      -3245.6359     -3263.14        17.504113      7100.978       10112.159    
    299100   286.776       -3246.871      -3263.4407      16.569712      6922.5105      10112.159    
    299200   307.2962      -3247.378      -3265.1333      17.755355      6309.0135      10112.159    
    299300   300.75661     -3247.3952     -3264.7727      17.377502      6509.5828      10112.159    
    299400   302.33582     -3245.4814     -3262.9502      17.468747      7070.6446      10112.159    
    299500   298.25241     -3244.8413     -3262.0741      17.232811      7620.6757      10112.159    
    299600   322.43698     -3245.3365     -3263.9667      18.630178      6882.2506      10112.159    
    299700   304.48345     -3246.4868     -3264.0796      17.592836      6781.7544      10112.159    
    299800   299.58433     -3247.0199     -3264.3296      17.309768      6563.8478      10112.159    
    299900   279.96782     -3247.2507     -3263.427       16.17634       6882.2088      10112.159    
    300000   308.32866     -3246.128      -3263.943       17.815009      6770.3763      10112.159    
Loop time of 2284.1 on 20 procs for 300000 steps with 448 atoms

Performance: 11.348 ns/day, 2.115 hours/ns, 131.343 timesteps/s, 58.842 katom-step/s
99.9% CPU use with 20 MPI tasks x 1 OpenMP threads

MPI task timing breakdown:
Section |  min time  |  avg time  |  max time  |%varavg| %total
---------------------------------------------------------------
Pair    | 1747.2     | 2000.9     | 2194       | 415.3 | 87.60
Neigh   | 20.266     | 28.458     | 34.622     | 120.3 |  1.25
Comm    | 52.589     | 251.64     | 513.79     |1211.5 | 11.02
Output  | 0.35783    | 0.57059    | 0.63697    |   7.5 |  0.02
Modify  | 2.0531     | 2.2419     | 2.4077     |   7.0 |  0.10
Other   |            | 0.2906     |            |       |  0.01

Nlocal:           22.4 ave          24 max          18 min
Histogram: 1 2 0 2 0 2 1 0 0 12
Nghost:          497.6 ave         522 max         466 min
Histogram: 4 0 0 0 6 2 0 0 0 8
Neighs:              0 ave           0 max           0 min
Histogram: 20 0 0 0 0 0 0 0 0 0
FullNghs:       1278.9 ave        1377 max        1025 min
Histogram: 1 2 0 2 2 0 1 0 0 12

Total # of neighbors = 25578
Ave neighs/atom = 57.09375
Neighbor list builds = 300000
Dangerous builds not checked
Total wall time: 0:38:04
