LAMMPS (27 Jun 2024)
OMP_NUM_THREADS environment is not set. Defaulting to 1 thread. (src/comm.cpp:98)
  using 1 OpenMP thread(s) per MPI task
Reading data file ...
  orthogonal box = (0 0 0) to (22.422218 22.19224 20.321894)
  5 by 2 by 2 MPI processor grid
  reading atoms ...
  448 atoms
  read_data CPU = 0.005 seconds
**************** Begin of POD Potentials ****************
species: Hf 
periodic boundary conditions: 1 1 1
number of environment clusters: 8
number of principal compoments: 2
inner cut-off radius: 1
outer cut-off radius: 5
cut-off function type: 1
gaussian_exponents: 
polynomial_degrees: 
bessel polynomial degree: 4
inverse polynomial degree: 10
one-body potential: 1
two-body radial basis functions: 8
three-body radial basis functions: 8
three-body angular degree: 6
four-body radial basis functions: 7
four-body angular degree: 5
five-body radial basis functions: 0
five-body angular degree: 0
six-body radial basis functions: 0
six-body angular degree: 0
seven-body radial basis functions: 0
seven-body angular degree: 0
number of local descriptors per element for one-body potential: 1
number of local descriptors per element for two-body potential: 8
number of local descriptors per element for three-body potential: 56
number of local descriptors per element for four-body potential: 112
number of local descriptors per element for five-body potential: 0
number of local descriptors per element for six-body potential: 0
number of local descriptors per element for seven-body potential: 0
number of local descriptors per element for all potentials: 177
number of global descriptors: 1409
**************** End of POD Potentials ****************

**************** Begin of Model Coefficients ****************
total number of coefficients for POD potential: 1409
total number of elements for PCA projection matrix: 352
total number of elements for PCA centroids: 16
**************** End of Model Coefficients ****************


CITE-CITE-CITE-CITE-CITE-CITE-CITE-CITE-CITE-CITE-CITE-CITE-CITE

Your simulation uses code contributions which should be cited:
- Type Label Framework: https://doi.org/10.1021/acs.jpcb.3c08419
The log file lists these citations in BibTeX format.

CITE-CITE-CITE-CITE-CITE-CITE-CITE-CITE-CITE-CITE-CITE-CITE-CITE

Neighbor list info ...
  update: every = 1 steps, delay = 0 steps, check = no
  max neighbors/atom: 2000, page size: 100000
  master list distance cutoff = 7
  ghost atom cutoff = 7
  binsize = 3.5, bins = 7 7 6
  1 neighbor lists, perpetual/occasional/extra = 1 0 0
  (1) pair pod, perpetual
      attributes: full, newton on
      pair build: full/bin/atomonly
      stencil: full/bin/3d
      bin: standard
Setting up Verlet run ...
  Unit style    : metal
  Current step  : 0
  Time step     : 0.001
Per MPI rank memory allocation (min/avg/max) = 2.586 | 2.586 | 2.586 Mbytes
   Step          Temp          TotEng         PotEng         KinEng         Press          Volume    
         0   300           -3263.9145     -3281.2483      17.333785      1830.9177      10112.159    
       100   89.63384      -3263.0363     -3268.2153      5.1789791      3737.7099      10112.159    
       200   162.67865     -3259.7935     -3269.193       9.3994562      4498.6539      10112.159    
       300   213.32385     -3255.8565     -3268.1822      12.325699      4980.2183      10112.159    
       400   292.45404     -3251.8333     -3268.7311      16.897785      4831.9551      10112.159    
       500   312.38943     -3248.0773     -3266.1269      18.049638      5914.9367      10112.159    
       600   277.48524     -3245.2143     -3261.2472      16.032898      7734.1348      10112.159    
       700   322.37087     -3243.3835     -3262.0099      18.626358      7630.8817      10112.159    
       800   303.03427     -3245.2719     -3262.781       17.509104      7136.5562      10112.159    
       900   287.53257     -3247.157      -3263.7704      16.613426      6571.6235      10112.159    
      1000   314.6939      -3248.148      -3266.3308      18.182789      6017.022       10112.159    
      1100   281.53521     -3248.2055     -3264.4724      16.266903      6188.7213      10112.159    
      1200   302.76651     -3246.3686     -3263.8622      17.493632      6722.8911      10112.159    
      1300   289.47133     -3245.7112     -3262.4367      16.725446      7243.0175      10112.159    
      1400   315.44252     -3245.0231     -3263.2491      18.226043      6997.9175      10112.159    
      1500   315.99395     -3245.6413     -3263.8992      18.257904      6638.6061      10112.159    
      1600   315.65083     -3246.5106     -3264.7486      18.238079      6405.7619      10112.159    
      1700   292.10569     -3247.2659     -3264.1436      16.877658      7093.5345      10112.159    
      1800   251.99056     -3248.0271     -3262.5869      14.559835      6767.7428      10112.159    
      1900   332.64171     -3246.5975     -3265.8173      19.2198        6532.5794      10112.159    
      2000   299.30723     -3246.2946     -3263.5884      17.293758      6546.3317      10112.159    
      2100   321.89128     -3245.3716     -3263.9703      18.598648      6897.2058      10112.159    
      2200   298.1758      -3245.4928     -3262.7212      17.228384      7013.2296      10112.159    
      2300   267.92948     -3246.7982     -3262.279       15.480774      7333.3356      10112.159    
      2400   332.27184     -3246.8687     -3266.0671      19.198429      5950.6156      10112.159    
      2500   283.95825     -3247.5145     -3263.9214      16.406905      6622.7585      10112.159    
      2600   297.4332      -3246.4506     -3263.6361      17.185477      6802.4819      10112.159    
      2700   290.97488     -3245.6112     -3262.4235      16.81232       7289.5432      10112.159    
      2800   305.58286     -3245.5582     -3263.2146      17.656359      7155.0832      10112.159    
      2900   312.33834     -3246.9057     -3264.9523      18.046686      6449.0685      10112.159    
      3000   278.1288      -3247.9621     -3264.0322      16.070083      6309.5445      10112.159    
      3100   285.55689     -3247.3722     -3263.8715      16.499273      6693.8745      10112.159    
      3200   309.75658     -3246.4243     -3264.3218      17.897514      6548.4577      10112.159    
      3300   298.00115     -3245.9916     -3263.2099      17.218293      7073.3076      10112.159    
      3400   310.70072     -3245.4123     -3263.3643      17.952065      7009.0343      10112.159    
      3500   302.07173     -3245.7146     -3263.1681      17.453489      7102.626       10112.159    
      3600   295.03638     -3247.0287     -3264.0757      17.046991      6444.7759      10112.159    
      3700   281.79936     -3247.6213     -3263.9034      16.282166      6697.4192      10112.159    
      3800   306.78747     -3246.6546     -3264.3806      17.725961      6778.3421      10112.159    
      3900   292.31487     -3245.9862     -3262.876       16.889744      6974.9753      10112.159    
      4000   332.77836     -3244.7728     -3264.0005      19.227695      7049.1963      10112.159    
      4100   285.1902      -3246.3049     -3262.783       16.478086      6954.5254      10112.159    
      4200   292.63828     -3247.2314     -3264.1399      16.90843       6643.0432      10112.159    
      4300   299.83823     -3247.1303     -3264.4547      17.324438      6578.744       10112.159    
      4400   309.29396     -3246.3811     -3264.2519      17.870784      6593.8556      10112.159    
      4500   307.99331     -3245.2907     -3263.0863      17.795633      7264.3025      10112.159    
      4600   295.39102     -3245.5761     -3262.6436      17.067482      7107.3757      10112.159    
      4700   306.18129     -3247.443      -3265.1339      17.690936      6454.8546      10112.159    
      4800   285.0431      -3248.3753     -3264.8449      16.469586      6649.2553      10112.159    
      4900   280.42719     -3247.5743     -3263.7771      16.202883      6499.0494      10112.159    
      5000   303.41727     -3246.1276     -3263.6588      17.531233      6806.4829      10112.159    
      5100   306.8951      -3245.9424     -3263.6746      17.73218       6783.704       10112.159    
      5200   302.79163     -3246.1952     -3263.6903      17.495084      6907.3894      10112.159    
      5300   306.44503     -3246.4824     -3264.1886      17.706175      6781.6171      10112.159    
      5400   281.98821     -3247.8362     -3264.1293      16.293077      6299.3535      10112.159    
      5500   294.17162     -3247.7484     -3264.7454      16.997026      6730.1769      10112.159    
      5600   297.69101     -3246.4822     -3263.6825      17.200373      6803.5521      10112.159    
      5700   294.58737     -3245.313      -3262.334       17.021048      7181.2331      10112.159    
      5800   322.93498     -3245.1567     -3263.8157      18.658952      6901.9881      10112.159    
      5900   293.0734      -3246.2345     -3263.1681      16.933571      6995.5783      10112.159    
      6000   296.99135     -3246.721      -3263.8809      17.159948      6760.3295      10112.159    
      6100   294.45236     -3246.8844     -3263.8976      17.013247      6713.143       10112.159    
      6200   304.57856     -3246.0774     -3263.6757      17.598331      6715.8252      10112.159    
      6300   312.91058     -3244.3138     -3262.3935      18.079749      7445.585       10112.159    
      6400   310.14419     -3244.8265     -3262.7464      17.919909      7046.1436      10112.159    
      6500   306.21677     -3246.0601     -3263.7531      17.692986      6789.8593      10112.159    
      6600   300.41734     -3246.2929     -3263.6508      17.357899      6655.8343      10112.159    
      6700   305.44221     -3246.3694     -3264.0176      17.648232      6825.7484      10112.159    
      6800   289.8049      -3247.0933     -3263.838       16.74472       6388.4323      10112.159    
      6900   283.99882     -3247.8262     -3264.2355      16.409249      6581.1038      10112.159    
      7000   280.88445     -3248.6191     -3264.8484      16.229303      6230.9219      10112.159    
      7100   301.51747     -3247.609      -3265.0305      17.421464      6324.8089      10112.159    
      7200   300.28095     -3246.7469     -3264.0969      17.350018      6486.9129      10112.159    
      7300   280.28399     -3246.3114     -3262.506       16.194608      7122.8741      10112.159    
      7400   335.39995     -3245.2424     -3264.6215      19.379169      6689.6094      10112.159    
      7500   305.14304     -3245.8541     -3263.485       17.630946      6982.8643      10112.159    
      7600   292.01528     -3246.5448     -3263.4173      16.872434      6845.6575      10112.159    
      7700   304.77273     -3246.529      -3264.1385      17.60955       6689.7639      10112.159    
      7800   295.97032     -3246.7075     -3263.8085      17.100953      6605.6031      10112.159    
      7900   304.80329     -3246.4456     -3264.0569      17.611316      6840.2853      10112.159    
      8000   303.92927     -3245.9362     -3263.497       17.560816      6854.491       10112.159    
      8100   313.69917     -3244.9121     -3263.0374      18.125314      7031.8042      10112.159    
      8200   311.3069      -3244.7929     -3262.78        17.98709       7051.2141      10112.159    
      8300   324.02982     -3245.839      -3264.5612      18.722212      6736.7902      10112.159    
      8400   292.83396     -3247.2997     -3264.2194      16.919737      6463.9462      10112.159    
      8500   281.56633     -3247.1203     -3263.389       16.268701      6762.8538      10112.159    
      8600   307.30063     -3246.455      -3264.2106      17.755611      6641.5087      10112.159    
      8700   302.48783     -3246.3409     -3263.8184      17.47753       6866.1962      10112.159    
      8800   324.79333     -3245.1907     -3263.957       18.766326      7070.4092      10112.159    
      8900   285.30374     -3244.4119     -3260.8966      16.484646      7501.221       10112.159    
      9000   341.94711     -3243.7647     -3263.5221      19.75746       7203.7906      10112.159    
      9100   302.18358     -3245.9091     -3263.3691      17.459951      6809.6311      10112.159    
      9200   314.05667     -3246.2656     -3264.4116      18.14597       6541.2781      10112.159    
      9300   276.69841     -3247.1357     -3263.1231      15.987436      6712.9614      10112.159    
      9400   295.26484     -3246.9641     -3264.0243      17.060191      6619.0772      10112.159    
      9500   312.68274     -3246.0613     -3264.1279      18.066585      6758.7771      10112.159    
      9600   309.21651     -3244.8169     -3262.6832      17.866309      7116.4965      10112.159    
      9700   300.64717     -3244.3914     -3261.7626      17.371178      7356.4163      10112.159    
      9800   318.75518     -3245.7262     -3264.1436      18.417446      6963.384       10112.159    
      9900   297.206       -3247.1641     -3264.3364      17.17235       6651.3171      10112.159    
     10000   288.93913     -3247.0731     -3263.7678      16.694696      6986.3638      10112.159    
     10100   300.97859     -3246.0993     -3263.4896      17.390328      6991.0405      10112.159    
     10200   313.38276     -3245.4253     -3263.5323      18.107032      6869.2642      10112.159    
     10300   311.18628     -3245.9171     -3263.8972      17.980121      6875.81        10112.159    
     10400   283.73974     -3247.5516     -3263.9459      16.394279      6553.6615      10112.159    
     10500   285.99134     -3247.6963     -3264.2207      16.524375      6514.7187      10112.159    
     10600   304.47955     -3247.0636     -3264.6562      17.59261       6459.6051      10112.159    
     10700   304.25416     -3246.223      -3263.8025      17.579588      6929.3111      10112.159    
     10800   299.4714      -3246.0894     -3263.3926      17.303243      6859.0048      10112.159    
     10900   296.56152     -3246.356      -3263.4911      17.135112      7153.922       10112.159    
     11000   301.88706     -3246.8836     -3264.3264      17.442819      6692.648       10112.159    
     11100   287.52238     -3247.6561     -3264.269       16.612837      6501.5999      10112.159    
     11200   308.91879     -3247.0832     -3264.9323      17.849107      6404.3133      10112.159    
     11300   294.6654      -3245.7103     -3262.7358      17.025556      7044.7971      10112.159    
     11400   319.02157     -3244.6777     -3263.1106      18.432838      7159.5105      10112.159    
     11500   301.6685      -3245.6022     -3263.0324      17.43019       7057.6969      10112.159    
     11600   305.11657     -3246.4414     -3264.0708      17.629417      6850.536       10112.159    
     11700   309.2354      -3246.4645     -3264.3319      17.8674        6676.4696      10112.159    
     11800   282.15816     -3246.8157     -3263.1186      16.302897      6977.738       10112.159    
     11900   299.45039     -3246.4009     -3263.7029      17.302029      6893.7968      10112.159    
     12000   316.84145     -3244.7766     -3263.0835      18.306873      7241.6205      10112.159    
     12100   305.95329     -3244.8071     -3262.4849      17.677762      7063.15        10112.159    
     12200   311.65603     -3246.3046     -3264.3119      18.007262      6716.2596      10112.159    
     12300   279.65436     -3247.5414     -3263.6996      16.158229      6540.9811      10112.159    
     12400   293.61282     -3246.9343     -3263.8991      16.964739      6801.2617      10112.159    
     12500   297.44493     -3246.0327     -3263.2189      17.186156      6939.559       10112.159    
     12600   325.02589     -3245.1292     -3263.909       18.779763      7039.1339      10112.159    
     12700   290.62154     -3246.2285     -3263.0204      16.791905      7047.7003      10112.159    
     12800   301.43976     -3247.1347     -3264.5516      17.416974      6685.9139      10112.159    
     12900   279.12961     -3247.3072     -3263.4351      16.127909      6784.2512      10112.159    
     13000   318.58784     -3246.6024     -3265.0101      18.407778      6585.67        10112.159    
     13100   276.6764      -3246.8017     -3262.7879      15.986164      7008.999       10112.159    
     13200   333.26378     -3245.5531     -3264.8088      19.255743      6691.6953      10112.159    
     13300   285.55294     -3245.9223     -3262.4214      16.499045      7110.5195      10112.159    
     13400   305.79482     -3246.0906     -3263.7592      17.668606      6986.7985      10112.159    
     13500   290.34752     -3247.3347     -3264.1108      16.776072      6489.0127      10112.159    
     13600   289.23312     -3247.8304     -3264.5421      16.711683      6657.9673      10112.159    
     13700   300.3231      -3247.1182     -3264.4706      17.352454      6718.0959      10112.159    
     13800   300.60365     -3245.9005     -3263.2692      17.368664      7072.8026      10112.159    
     13900   321.7         -3245.1181     -3263.7057      18.587596      7115.1603      10112.159    
     14000   283.05553     -3245.7885     -3262.1433      16.354746      7142.6065      10112.159    
     14100   316.07015     -3245.7641     -3264.0264      18.262307      6666.7264      10112.159    
     14200   309.73012     -3246.6868     -3264.5827      17.895985      6577.4216      10112.159    
     14300   290.19579     -3247.2317     -3263.9991      16.767305      6726.8693      10112.159    
     14400   297.5314      -3246.7627     -3263.9538      17.191152      6695.2934      10112.159    
     14500   292.16427     -3246.4271     -3263.3082      16.881043      7034.1286      10112.159    
     14600   306.02785     -3245.9438     -3263.6258      17.68207       6955.1809      10112.159    
     14700   304.37551     -3246.1375     -3263.7241      17.586599      6791.3696      10112.159    
     14800   302.04185     -3246.3632     -3263.815       17.451762      6709.827       10112.159    
     14900   301.30996     -3246.7239     -3264.1334      17.409474      6790.419       10112.159    
     15000   282.39159     -3247.5042     -3263.8206      16.316384      6502.2829      10112.159    
     15100   303.36373     -3247.1036     -3264.6317      17.528139      6638.9725      10112.159    
     15200   301.38808     -3245.6218     -3263.0358      17.413988      7059.7932      10112.159    
     15300   312.11848     -3244.7953     -3262.8293      18.033983      7198.1405      10112.159    
     15400   306.05327     -3245.7434     -3263.427       17.683539      7266.5373      10112.159    
     15500   289.2143      -3246.5687     -3263.2793      16.710595      6994.8181      10112.159    
     15600   302.51911     -3246.718      -3264.1973      17.479338      6737.382       10112.159    
     15700   301.07475     -3246.6616     -3264.0575      17.395884      6866.2945      10112.159    
     15800   316.28694     -3245.56       -3263.8349      18.274833      7075.6108      10112.159    
     15900   311.05805     -3244.0389     -3262.0117      17.972712      7462.1821      10112.159    
     16000   317.88767     -3244.0496     -3262.4169      18.367322      7359.9227      10112.159    
     16100   318.77656     -3245.7268     -3264.1455      18.418682      6821.2096      10112.159    
     16200   295.62785     -3246.4961     -3263.5772      17.081166      6794.4045      10112.159    
     16300   302.13327     -3246.7407     -3264.1977      17.457044      6713.1843      10112.159    
     16400   285.10093     -3247.066      -3263.5389      16.472928      6771.0144      10112.159    
     16500   311.78489     -3246.2096     -3264.2243      18.014708      6745.4475      10112.159    
     16600   308.67531     -3245.5358     -3263.3709      17.835039      6965.7213      10112.159    
     16700   310.93089     -3245.3654     -3263.3307      17.965365      6792.7956      10112.159    
     16800   301.97313     -3245.5866     -3263.0344      17.447791      6996.3066      10112.159    
     16900   294.23483     -3246.9579     -3263.9585      17.000678      6669.3653      10112.159    
     17000   293.68619     -3247.5107     -3264.4797      16.968978      6361.8477      10112.159    
     17100   298.4815      -3247.0359     -3264.282       17.246048      6332.8661      10112.159    
     17200   307.54006     -3245.3318     -3263.1013      17.769445      7016.6049      10112.159    
     17300   309.87606     -3244.9363     -3262.8407      17.904417      7161.9084      10112.159    
     17400   317.11883     -3245.4467     -3263.7696      18.322899      6825.5649      10112.159    
     17500   294.06446     -3246.3514     -3263.3423      16.990834      6666.1284      10112.159    
     17600   291.97732     -3246.7334     -3263.6036      16.870241      6878.3858      10112.159    
     17700   287.01341     -3247.1584     -3263.7418      16.58343       6648.0849      10112.159    
     17800   307.31054     -3247.8247     -3265.5809      17.756183      6323.9802      10112.159    
     17900   284.17013     -3248.3978     -3264.8169      16.419147      6055.9471      10112.159    
     18000   292.90583     -3247.1315     -3264.0554      16.923889      6924.5506      10112.159    
     18100   296.42763     -3246.011      -3263.1384      17.127377      6984.4243      10112.159    
     18200   309.37848     -3245.6534     -3263.5291      17.875667      6916.2664      10112.159    
     18300   310.51051     -3246.2468     -3264.1878      17.941075      6775.9646      10112.159    
     18400   281.61516     -3247.7351     -3264.0066      16.271522      6609.0826      10112.159    
     18500   273.09692     -3248.1653     -3263.9447      15.779345      6776.2632      10112.159    
     18600   296.52171     -3247.1935     -3264.3263      17.132812      6666.9333      10112.159    
     18700   300.10961     -3246.8444     -3264.1845      17.340119      6751.1345      10112.159    
     18800   304.52834     -3246.3647     -3263.9601      17.59543       6699.4683      10112.159    
     18900   289.45304     -3245.6962     -3262.4206      16.72439       7319.7001      10112.159    
     19000   304.10009     -3245.4624     -3263.0331      17.570686      7130.5275      10112.159    
     19100   303.59916     -3246.735      -3264.2767      17.541742      6703.3315      10112.159    
     19200   294.37791     -3247.4922     -3264.5012      17.008945      6629.4423      10112.159    
     19300   288.88096     -3247.3381     -3264.0294      16.691335      6754.4422      10112.159    
     19400   289.5504      -3247.0751     -3263.8052      16.730015      6741.0086      10112.159    
     19500   314.24238     -3246.4104     -3264.5671      18.1567        6621.4148      10112.159    
     19600   298.66224     -3246.0105     -3263.267       17.256491      6901.2292      10112.159    
     19700   315.07261     -3245.1322     -3263.3368      18.20467       7061.3007      10112.159    
     19800   305.11232     -3245.2568     -3262.8859      17.629172      7162.6414      10112.159    
     19900   291.01511     -3246.3393     -3263.1539      16.814645      7006.5813      10112.159    
     20000   299.07477     -3247.6481     -3264.9284      17.280326      6402.8884      10112.159    
     20100   277.38958     -3247.9449     -3263.9723      16.027371      6594.1789      10112.159    
     20200   312.79825     -3246.7351     -3264.8084      18.073259      6540.0441      10112.159    
     20300   285.48642     -3246.6025     -3263.0977      16.495201      6895.4402      10112.159    
     20400   315.55029     -3245.8128     -3264.0451      18.23227       7040.7213      10112.159    
     20500   296.46353     -3245.9743     -3263.1038      17.129451      7068.6744      10112.159    
     20600   293.713       -3246.8695     -3263.84        16.970527      6739.2503      10112.159    
     20700   281.01273     -3248.6809     -3264.9177      16.236715      6463.6163      10112.159    
     20800   292.20631     -3247.8795     -3264.7629      16.883472      6439.9569      10112.159    
     20900   290.37167     -3246.8356     -3263.6131      16.777468      7055.6084      10112.159    
     21000   300.08191     -3246.1429     -3263.4814      17.338518      7009.8522      10112.159    
     21100   310.76516     -3245.6329     -3263.5887      17.955789      6997.416       10112.159    
     21200   314.72379     -3245.5588     -3263.7433      18.184515      6946.7983      10112.159    
     21300   289.63262     -3246.9723     -3263.707       16.734765      6965.7582      10112.159    
     21400   286.12855     -3247.7098     -3264.2421      16.532303      6606.6818      10112.159    
     21500   283.90438     -3247.5418     -3263.9456      16.403792      6612.2943      10112.159    
     21600   319.95424     -3245.7851     -3264.2718      18.486727      6913.9031      10112.159    
     21700   298.81746     -3245.5453     -3262.8108      17.265459      7014.6384      10112.159    
     21800   302.45395     -3245.8849     -3263.3605      17.475573      7017.9199      10112.159    
     21900   302.25739     -3246.8868     -3264.351       17.464216      6645.1743      10112.159    
     22000   288.56125     -3247.6985     -3264.3714      16.672863      6693.2026      10112.159    
     22100   299.5283      -3247.3397     -3264.6462      17.306531      6563.7025      10112.159    
     22200   318.73667     -3245.8915     -3264.3079      18.416377      6772.205       10112.159    
     22300   301.76173     -3245.3718     -3262.8074      17.435577      7143.3009      10112.159    
     22400   308.27584     -3245.5719     -3263.3839      17.811958      6941.4368      10112.159    
     22500   280.30023     -3246.936      -3263.1316      16.195547      6867.3093      10112.159    
     22600   310.23318     -3246.908      -3264.833       17.925051      6913.0145      10112.159    
     22700   310.40307     -3246.8969     -3264.8318      17.934867      6297.0857      10112.159    
     22800   284.76542     -3246.2927     -3262.7463      16.453542      7061.2716      10112.159    
     22900   302.73434     -3245.1993     -3262.6911      17.491774      7080.8733      10112.159    
     23000   307.40082     -3245.75       -3263.5114      17.7614        6893.8854      10112.159    
     23100   316.7131      -3246.4821     -3264.7816      18.299456      6645.3527      10112.159    
     23200   287.87278     -3247.7236     -3264.3567      16.633083      6230.7542      10112.159    
     23300   296.12268     -3247.6023     -3264.7121      17.109757      6690.3363      10112.159    
     23400   286.02684     -3246.128      -3262.6545      16.526426      6909.6548      10112.159    
     23500   310.06185     -3244.3555     -3262.2707      17.915152      7258.4761      10112.159    
     23600   322.71266     -3245.0363     -3263.6824      18.646107      6971.7148      10112.159    
     23700   292.47173     -3246.6518     -3263.5507      16.898807      6748.7934      10112.159    
     23800   303.45444     -3246.6899     -3264.2233      17.53338       6544.7997      10112.159    
     23900   300.68923     -3246.5172     -3263.8908      17.373609      6969.2656      10112.159    
     24000   290.08189     -3246.561      -3263.3218      16.760724      6824.7928      10112.159    
     24100   327.94072     -3245.685      -3264.6332      18.94818       6550.4937      10112.159    
     24200   289.62612     -3245.808      -3262.5424      16.73439       7145.2777      10112.159    
     24300   307.43119     -3245.9619     -3263.725       17.763154      7101.1918      10112.159    
     24400   286.81672     -3247.2398     -3263.8119      16.572065      6734.2086      10112.159    
     24500   301.40818     -3247.5143     -3264.9294      17.415149      6510.4014      10112.159    
     24600   278.8774      -3247.4691     -3263.5825      16.113337      6676.8063      10112.159    
     24700   304.30363     -3245.8052     -3263.3877      17.582446      6939.0448      10112.159    
     24800   309.70483     -3245.3589     -3263.2534      17.894524      7005.6821      10112.159    
     24900   309.07234     -3245.6585     -3263.5165      17.857979      6839.9707      10112.159    
     25000   288.69956     -3246.9873     -3263.6681      16.680854      6701.2053      10112.159    
     25100   310.1703      -3247.4788     -3265.4002      17.921418      6475.1509      10112.159    
     25200   275.40096     -3247.4259     -3263.3383      15.912471      6835.6221      10112.159    
     25300   297.53929     -3246.528      -3263.7196      17.191607      6999.0034      10112.159    
     25400   295.14105     -3246.2131     -3263.2662      17.053039      6925.8045      10112.159    
     25500   305.46525     -3246.1444     -3263.7939      17.649564      7005.9836      10112.159    
     25600   302.45766     -3246.4433     -3263.9191      17.475787      6747.7784      10112.159    
     25700   306.44627     -3246.645      -3264.3513      17.706246      6717.7938      10112.159    
     25800   280.84971     -3247.5918     -3263.8191      16.227295      6534.3258      10112.159    
     25900   288.29585     -3248.0949     -3264.7524      16.657528      6435.5455      10112.159    
     26000   299.89483     -3247.2445     -3264.5722      17.327709      6479.3776      10112.159    
     26100   294.95228     -3246.0758     -3263.1179      17.042132      7169.8         10112.159    
     26200   305.91136     -3245.642      -3263.3173      17.675339      6922.6687      10112.159    
     26300   304.30977     -3246.0315     -3263.6143      17.582801      6802.0139      10112.159    
     26400   299.17669     -3247.5065     -3264.7927      17.286215      6314.1104      10112.159    
     26500   271.65588     -3248.5824     -3264.2785      15.696083      6526.1758      10112.159    
     26600   288.85903     -3247.817      -3264.5071      16.690068      6535.7664      10112.159    
     26700   292.27241     -3246.8789     -3263.7661      16.887291      6856.6713      10112.159    
     26800   304.61688     -3245.9453     -3263.5459      17.600545      6766.0996      10112.159    
     26900   309.53357     -3245.9077     -3263.7923      17.884628      6894.3975      10112.159    
     27000   296.20183     -3246.5148     -3263.6291      17.11433       6457.5164      10112.159    
     27100   305.71783     -3246.4552     -3264.1194      17.664158      6637.2903      10112.159    
     27200   313.40193     -3245.2806     -3263.3887      18.10814       7048.1467      10112.159    
     27300   315.32065     -3244.5062     -3262.7252      18.219001      7373.2273      10112.159    
     27400   300.90483     -3245.3073     -3262.6934      17.386066      7270.0912      10112.159    
     27500   296.76206     -3246.6059     -3263.7526      17.1467        6580.1665      10112.159    
     27600   305.46459     -3246.8673     -3264.5168      17.649525      6602.1865      10112.159    
     27700   292.54785     -3246.7964     -3263.6996      16.903206      6621.3678      10112.159    
     27800   316.6293      -3245.2962     -3263.5908      18.294614      6767.765       10112.159    
     27900   316.97331     -3244.5544     -3262.8689      18.314491      7280.5237      10112.159    
     28000   310.05558     -3245.8462     -3263.761       17.91479       6804.7953      10112.159    
     28100   293.73629     -3247.4968     -3264.4687      16.971873      6686.7912      10112.159    
     28200   284.22767     -3247.495      -3263.9175      16.422472      6511.7305      10112.159    
     28300   306.39915     -3246.383      -3264.0865      17.703524      6808.3602      10112.159    
     28400   310.5475      -3245.504      -3263.4472      17.943212      6686.6742      10112.159    
     28500   299.63335     -3245.4927     -3262.8053      17.3126        7233.3247      10112.159    
     28600   284.7115      -3247.1909     -3263.6413      16.450427      6717.306       10112.159    
     28700   287.30882     -3247.7414     -3264.3419      16.600498      6568.2036      10112.159    
     28800   316.49967     -3246.8881     -3265.1752      18.287124      6402.2932      10112.159    
     28900   297.0601      -3246.1144     -3263.2783      17.16392       6864.456       10112.159    
     29000   307.95628     -3245.512      -3263.3055      17.793493      7072.7161      10112.159    
     29100   297.99781     -3245.8443     -3263.0624      17.2181        7164.8562      10112.159    
     29200   304.66324     -3246.1312     -3263.7344      17.603224      6842.6225      10112.159    
     29300   304.52562     -3246.6692     -3264.2645      17.595273      6618.9211      10112.159    
     29400   309.92271     -3246.7822     -3264.6893      17.907113      6467.8723      10112.159    
     29500   297.94357     -3246.5294     -3263.7444      17.214966      6930.3456      10112.159    
     29600   281.24414     -3246.3828     -3262.6329      16.250086      6952.418       10112.159    
     29700   301.25693     -3246.3961     -3263.8025      17.40641       6874.475       10112.159    
     29800   310.04009     -3246.6076     -3264.5215      17.913894      6725.3981      10112.159    
     29900   304.2643      -3246.5875     -3264.1677      17.580174      6639.1547      10112.159    
     30000   314.17164     -3245.8812     -3264.0338      18.152613      6929.7161      10112.159    
     30100   279.0619      -3245.9394     -3262.0634      16.123997      7357.9125      10112.159    
     30200   314.15392     -3245.5228     -3263.6744      18.151589      7015.0777      10112.159    
     30300   301.69673     -3246.729      -3264.1608      17.431822      6457.8231      10112.159    
     30400   294.32083     -3247.3145     -3264.3201      17.005647      6592.6385      10112.159    
     30500   284.66045     -3247.2875     -3263.735       16.447477      6698.0514      10112.159    
     30600   301.51905     -3246.0477     -3263.4693      17.421555      7276.8159      10112.159    
     30700   304.49375     -3244.9355     -3262.5289      17.593431      7137.0125      10112.159    
     30800   315.46988     -3245.3281     -3263.5558      18.227624      7218.2125      10112.159    
     30900   297.67149     -3246.7297     -3263.9289      17.199246      6744.8465      10112.159    
     31000   294.64697     -3247.208      -3264.2325      17.024491      6713.593       10112.159    
     31100   297.72065     -3246.7535     -3263.9556      17.202086      6649.3507      10112.159    
     31200   299.91949     -3246.2577     -3263.5868      17.329134      6849.9959      10112.159    
     31300   305.97756     -3245.9543     -3263.6335      17.679165      6814.1529      10112.159    
     31400   314.73        -3245.6844     -3263.8692      18.184874      6847.8032      10112.159    
     31500   288.46456     -3246.5546     -3263.2219      16.667276      6915.5649      10112.159    
     31600   307.72446     -3246.719      -3264.4991      17.780099      6784.2753      10112.159    
     31700   285.75349     -3247.3657     -3263.8764      16.510632      6478.5872      10112.159    
     31800   301.09653     -3247.0175     -3264.4146      17.397142      6580.4724      10112.159    
     31900   294.12798     -3246.0803     -3263.0748      16.994504      7091.2649      10112.159    
     32000   318.48935     -3245.2465     -3263.6486      18.402087      6997.7829      10112.159    
     32100   317.77868     -3245.302      -3263.663       18.361025      6896.4694      10112.159    
     32200   290.49198     -3246.6295     -3263.4139      16.784419      6784.3345      10112.159    
     32300   295.15771     -3247.3764     -3264.4304      17.054001      6489.1471      10112.159    
     32400   289.88661     -3247.5798     -3264.3292      16.749441      6734.3316      10112.159    
     32500   303.74865     -3246.3971     -3263.9475      17.55038       6761.4891      10112.159    
     32600   301.36467     -3245.1825     -3262.5951      17.412635      7222.9847      10112.159    
     32700   319.38403     -3244.6876     -3263.1414      18.453781      7346.6892      10112.159    
     32800   300.01665     -3246.8127     -3264.1474      17.334747      6629.1174      10112.159    
     32900   287.97285     -3247.9282     -3264.5671      16.638865      6446.2648      10112.159    
     33000   284.74616     -3247.5253     -3263.9777      16.45243       6943.3903      10112.159    
     33100   298.98056     -3246.1436     -3263.4185      17.274883      6894.0175      10112.159    
     33200   315.73777     -3245.7917     -3264.0348      18.243103      6774.6634      10112.159    
     33300   298.51723     -3246.2826     -3263.5307      17.248112      6822.9897      10112.159    
     33400   295.2604      -3246.8273     -3263.8872      17.059935      6928.4231      10112.159    
     33500   285.15991     -3248.3447     -3264.8211      16.476336      6456.0116      10112.159    
     33600   285.54227     -3248.4106     -3264.9091      16.498428      6134.0193      10112.159    
     33700   304.16664     -3246.7416     -3264.3161      17.574531      6561.6414      10112.159    
     33800   303.52511     -3246.11       -3263.6475      17.537464      6864.8126      10112.159    
     33900   290.14223     -3246.1134     -3262.8776      16.76421       7037.2717      10112.159    
     34000   310.02886     -3245.9584     -3263.8717      17.913246      6831.2577      10112.159    
     34100   291.37321     -3246.7864     -3263.6218      16.835335      6942.572       10112.159    
     34200   288.89648     -3247.9619     -3264.6541      16.692232      6429.8179      10112.159    
     34300   292.14472     -3248.078      -3264.9579      16.879913      6581.5305      10112.159    
     34400   301.38528     -3246.3654     -3263.7793      17.413826      6912.6901      10112.159    
     34500   305.68555     -3245.678      -3263.3403      17.662292      7078.2359      10112.159    
     34600   290.65881     -3245.9497     -3262.7437      16.794058      6901.2496      10112.159    
     34700   316.22903     -3246.1764     -3264.4479      18.271487      6503.4018      10112.159    
     34800   294.39592     -3247.4611     -3264.4711      17.009986      6607.3347      10112.159    
     34900   286.77039     -3247.9769     -3264.5463      16.569388      6611.9209      10112.159    
     35000   288.59882     -3246.5923     -3263.2673      16.675033      7078.9989      10112.159    
     35100   316.45549     -3245.3693     -3263.6539      18.284572      6919.057       10112.159    
     35200   301.48924     -3246.0287     -3263.4485      17.419833      7029.8698      10112.159    
     35300   303.29516     -3246.8791     -3264.4032      17.524177      6772.9327      10112.159    
     35400   277.02362     -3247.8154     -3263.8216      16.006227      6800.4824      10112.159    
     35500   303.06049     -3246.9981     -3264.5087      17.510618      6801.8615      10112.159    
     35600   300.30825     -3245.607      -3262.9586      17.351596      7009.6218      10112.159    
     35700   318.48039     -3244.9773     -3263.3789      18.401569      7309.8601      10112.159    
     35800   296.16584     -3245.4564     -3262.5686      17.112251      7186.2541      10112.159    
     35900   309.48776     -3245.8748     -3263.7568      17.881982      6966.9479      10112.159    
     36000   308.04995     -3246.9755     -3264.7744      17.798906      6619.7441      10112.159    
     36100   273.82438     -3247.7947     -3263.6161      15.821377      6785.2808      10112.159    
     36200   301.02889     -3247.0757     -3264.4689      17.393234      6772.4015      10112.159    
     36300   289.49199     -3246.716      -3263.4427      16.72664       7042.4553      10112.159    
     36400   314.13915     -3246.3669     -3264.5177      18.150735      6688.5905      10112.159    
     36500   298.48961     -3246.3957     -3263.6422      17.246516      7213.0876      10112.159    
     36600   294.96857     -3246.2661     -3263.3092      17.043073      7251.5894      10112.159    
     36700   293.23648     -3246.5678     -3263.5108      16.942994      7200.059       10112.159    
     36800   293.26287     -3247.5837     -3264.5282      16.944519      6615.4124      10112.159    
     36900   301.87198     -3247.8145     -3265.2564      17.441947      6513.8314      10112.159    
     37000   274.97485     -3246.9726     -3262.8605      15.88785       7100.8497      10112.159    
     37100   315.35354     -3245.5516     -3263.7725      18.220902      7307.7263      10112.159    
     37200   301.36788     -3246.2123     -3263.6251      17.412821      7238.8077      10112.159    
     37300   303.34804     -3246.7826     -3264.3098      17.527233      6609.6161      10112.159    
     37400   304.11781     -3246.8468     -3264.4185      17.57171       6689.6691      10112.159    
     37500   293.79411     -3246.2931     -3263.2683      16.975214      7066.2666      10112.159    
     37600   299.08474     -3245.3557     -3262.6366      17.280902      7148.2705      10112.159    
     37700   318.80064     -3245.0821     -3263.5021      18.420073      7169.9864      10112.159    
     37800   314.5688      -3246.329      -3264.5046      18.17556       6623.7203      10112.159    
     37900   287.45149     -3247.5907     -3264.1995      16.608742      6730.6157      10112.159    
     38000   280.7601      -3247.2754     -3263.4975      16.222118      6891.8526      10112.159    
     38100   299.37966     -3246.2323     -3263.5302      17.297943      6775.8438      10112.159    
     38200   309.5389      -3245.7923     -3263.6772      17.884936      6883.6015      10112.159    
     38300   304.71282     -3246.035      -3263.6411      17.606089      7016.2541      10112.159    
     38400   281.63129     -3247.9146     -3264.1871      16.272455      6544.0948      10112.159    
     38500   285.6223      -3248.4888     -3264.9919      16.503052      6575.1885      10112.159    
     38600   283.77143     -3247.4862     -3263.8823      16.39611       6867.0844      10112.159    
     38700   301.75249     -3246.3997     -3263.8347      17.435043      7176.6171      10112.159    
     38800   325.4884      -3245.907      -3264.7135      18.806487      6492.7804      10112.159    
     38900   297.17251     -3246.172      -3263.3424      17.170415      6897.2754      10112.159    
     39000   297.4765      -3246.3        -3263.488       17.187979      7249.1766      10112.159    
     39100   267.35717     -3247.6414     -3263.0891      15.447706      6797.3201      10112.159    
     39200   309.24751     -3247.4664     -3265.3345      17.8681        6114.1932      10112.159    
     39300   306.01819     -3246.7605     -3264.442       17.681512      6495.8052      10112.159    
     39400   301.23934     -3245.5471     -3262.9525      17.405394      7143.0095      10112.159    
     39500   307.39682     -3245.2869     -3263.0481      17.761168      7400.5178      10112.159    
     39600   278.39568     -3245.9466     -3262.0321      16.085503      6948.4235      10112.159    
     39700   317.36461     -3246.0112     -3264.3483      18.3371        6837.3355      10112.159    
     39800   309.67611     -3246.7572     -3264.6501      17.892864      6316.8506      10112.159    
     39900   285.4698      -3247.2445     -3263.7387      16.494241      6912.1113      10112.159    
     40000   304.14085     -3246.3987     -3263.9717      17.573041      6821.4676      10112.159    
     40100   290.76291     -3244.8835     -3261.6836      16.800073      7418.3684      10112.159    
     40200   329.71539     -3243.911      -3262.9618      19.050719      7319.4215      10112.159    
     40300   305.30268     -3245.0443     -3262.6845      17.64017       7305.5814      10112.159    
     40400   324.09944     -3245.6062     -3264.3324      18.726234      6871.0112      10112.159    
     40500   288.85693     -3246.9691     -3263.659       16.689947      6769.0409      10112.159    
     40600   293.71413     -3247.0666     -3264.0372      16.970593      6746.4247      10112.159    
     40700   302.36297     -3246.4765     -3263.9468      17.470316      6923.316       10112.159    
     40800   308.13534     -3245.3131     -3263.117       17.803839      6957.9631      10112.159    
     40900   316.55175     -3244.0397     -3262.3298      18.290134      7625.4678      10112.159    
     41000   327.43939     -3244.635      -3263.5542      18.919214      6932.8227      10112.159    
     41100   287.87419     -3246.7588     -3263.392       16.633165      6809.0099      10112.159    
     41200   292.44647     -3247.3665     -3264.2639      16.897348      6645.2193      10112.159    
     41300   287.94335     -3247.4689     -3264.106       16.637161      6621.0948      10112.159    
     41400   313.41954     -3246.1718     -3264.281       18.109157      6462.6996      10112.159    
     41500   295.73104     -3245.6995     -3262.7866      17.087128      7271.785       10112.159    
     41600   315.17119     -3245.4157     -3263.626       18.210366      6858.647       10112.159    
     41700   291.24522     -3247.2656     -3264.0935      16.827941      6669.2153      10112.159    
     41800   283.05425     -3247.8757     -3264.2304      16.354672      6548.5496      10112.159    
     41900   295.28747     -3247.1353     -3264.1968      17.061499      6738.3536      10112.159    
     42000   306.02015     -3245.9437     -3263.6253      17.681625      6989.5868      10112.159    
     42100   318.56152     -3245.4213     -3263.8276      18.406257      6710.1894      10112.159    
     42200   297.47194     -3246.019      -3263.2067      17.187716      7017.8944      10112.159    
     42300   287.0275      -3246.3709     -3262.9551      16.584244      6999.7975      10112.159    
     42400   295.52799     -3246.7029     -3263.7783      17.075396      6684.7867      10112.159    
     42500   303.77864     -3246.6842     -3264.2364      17.552112      6750.9006      10112.159    
     42600   310.69736     -3246.0282     -3263.9801      17.951871      6828.1533      10112.159    
     42700   296.04927     -3244.5259     -3261.6314      17.105515      7521.2822      10112.159    
     42800   333.08285     -3244.1112     -3263.3565      19.245289      7305.5066      10112.159    
     42900   288.11711     -3245.9546     -3262.6018      16.6472        7190.1944      10112.159    
     43000   316.96292     -3246.447      -3264.7609      18.313891      6413.0849      10112.159    
     43100   282.66266     -3247.2986     -3263.6307      16.332046      6699.0213      10112.159    
     43200   316.41793     -3246.4995     -3264.7819      18.282402      6521.2238      10112.159    
     43300   275.23589     -3246.2749     -3262.1779      15.902933      7248.6481      10112.159    
     43400   331.91857     -3244.7216     -3263.8996      19.178018      6862.0591      10112.159    
     43500   322.23977     -3244.9868     -3263.6056      18.618783      6813.0834      10112.159    
     43600   318.69704     -3246.3603     -3264.7744      18.414087      6694.6419      10112.159    
     43700   269.96513     -3247.738      -3263.3364      15.598392      6708.2994      10112.159    
     43800   292.05205     -3247.1306     -3264.0051      16.874559      6590.4158      10112.159    
     43900   312.39868     -3246.0458     -3264.0959      18.050172      6744.0762      10112.159    
     44000   312.72263     -3245.7701     -3263.839       18.06889       6737.5274      10112.159    
     44100   288.71967     -3246.6044     -3263.2864      16.682016      6920.7322      10112.159    
     44200   284.96536     -3248.055      -3264.5201      16.465095      6575.2177      10112.159    
     44300   281.16935     -3248.6399     -3264.8857      16.245764      6180.9681      10112.159    
     44400   307.21289     -3247.4171     -3265.1676      17.750541      6365.1023      10112.159    
     44500   299.57554     -3246.8355     -3264.1448      17.30926       6814.2915      10112.159    
     44600   296.29052     -3246.1971     -3263.3165      17.119454      6826.0862      10112.159    
     44700   312.87596     -3245.7726     -3263.8503      18.077749      6957.2313      10112.159    
     44800   285.27829     -3246.5945     -3263.0777      16.483175      6942.221       10112.159    
     44900   300.53702     -3247.4147     -3264.7795      17.364814      6537.6455      10112.159    
     45000   287.34452     -3248.4317     -3265.0342      16.602561      6392.1794      10112.159    
     45100   272.32591     -3248.0674     -3263.8022      15.734796      6848.9854      10112.159    
     45200   300.99559     -3246.2458     -3263.6371      17.39131       6780.9047      10112.159    
     45300   306.38833     -3246.0614     -3263.7643      17.702898      7028.8274      10112.159    
     45400   310.72982     -3246.175      -3264.1287      17.953747      6620.6251      10112.159    
     45500   296.45024     -3246.6097     -3263.7383      17.128683      7197.4661      10112.159    
     45600   280.48816     -3247.5699     -3263.7763      16.206405      6519.0042      10112.159    
     45700   293.23091     -3248.0368     -3264.9795      16.942672      6487.6293      10112.159    
     45800   293.44828     -3247.7659     -3264.7211      16.955232      6360.835       10112.159    
     45900   294.4755      -3246.1294     -3263.144       17.014584      7173.3052      10112.159    
     46000   323.11169     -3245.3646     -3264.0338      18.669162      7119.3877      10112.159    
     46100   287.01381     -3246.043      -3262.6265      16.583453      7217.8939      10112.159    
     46200   312.13994     -3246.3144     -3264.3497      18.035223      6761.2408      10112.159    
     46300   280.79747     -3248.1757     -3264.4         16.224277      6585.0518      10112.159    
     46400   296.05688     -3248.0603     -3265.1663      17.105955      6165.1915      10112.159    
     46500   284.06334     -3247.4265     -3263.8395      16.412977      6752.0307      10112.159    
     46600   300.31896     -3246.3424     -3263.6946      17.352215      6823.8238      10112.159    
     46700   318.16542     -3245.8456     -3264.229       18.38337       6786.8663      10112.159    
     46800   291.49483     -3246.1694     -3263.0118      16.842363      6826.8302      10112.159    
     46900   313.56042     -3246.4509     -3264.5682      18.117297      6849.5062      10112.159    
     47000   281.76887     -3247.9973     -3264.2777      16.280404      6667.2871      10112.159    
     47100   296.91583     -3247.8642     -3265.0198      17.155584      6319.9073      10112.159    
     47200   282.58127     -3247.3168     -3263.6442      16.327344      7071.5894      10112.159    
     47300   295.05543     -3246.8701     -3263.9182      17.048092      6782.1922      10112.159    
     47400   312.05327     -3246.2141     -3264.2443      18.030215      6724.0449      10112.159    
     47500   291.71044     -3246.0544     -3262.9092      16.85482       7031.3746      10112.159    
     47600   317.12028     -3245.5185     -3263.8415      18.322983      6985.9797      10112.159    
     47700   307.30604     -3245.8171     -3263.573       17.755923      7021.1869      10112.159    
     47800   304.56291     -3246.9107     -3264.5082      17.597427      6769.6683      10112.159    
     47900   288.82356     -3247.6355     -3264.3235      16.688019      6512.0134      10112.159    
     48000   288.83612     -3247.3598     -3264.0485      16.688744      6610.6833      10112.159    
     48100   295.72251     -3245.6437     -3262.7304      17.086635      7059.2049      10112.159    
     48200   328.59549     -3244.9024     -3263.8884      18.986012      7089.4621      10112.159    
     48300   321.48313     -3245.6026     -3264.1777      18.575066      6916.2797      10112.159    
     48400   282.66902     -3246.4753     -3262.8078      16.332414      7163.8108      10112.159    
     48500   305.16119     -3246.6986     -3264.3306      17.631996      6873.8348      10112.159    
     48600   302.12109     -3246.9484     -3264.4048      17.456341      6524.0889      10112.159    
     48700   307.4556      -3246.4127     -3264.1773      17.764565      6829.5046      10112.159    
     48800   314.94906     -3245.0485     -3263.246       18.197531      7208.0721      10112.159    
     48900   314.97758     -3243.7975     -3261.9967      18.199179      7748.0096      10112.159    
     49000   305.78965     -3244.6143     -3262.2826      17.668307      7267.4601      10112.159    
     49100   304.31597     -3246.2293     -3263.8125      17.583159      6651.0189      10112.159    
     49200   309.98556     -3246.6353     -3264.546       17.910744      6733.2436      10112.159    
     49300   280.10729     -3247.2992     -3263.4836      16.184399      6910.2346      10112.159    
     49400   302.63272     -3246.8485     -3264.3344      17.485902      6800.4775      10112.159    
     49500   309.99327     -3245.6178     -3263.529       17.911189      6906.9472      10112.159    
     49600   321.70522     -3244.6355     -3263.2234      18.587898      7073.6566      10112.159    
     49700   305.44893     -3245.427      -3263.0756      17.648621      6989.7793      10112.159    
     49800   306.94519     -3246.119      -3263.8541      17.735074      6996.2291      10112.159    
     49900   305.14493     -3246.5944     -3264.2255      17.631056      6655.0678      10112.159    
     50000   281.32496     -3246.8918     -3263.1465      16.254755      6893.0228      10112.159    
     50100   320.91035     -3245.9365     -3264.4785      18.54197       6836.7623      10112.159    
     50200   302.75715     -3245.8114     -3263.3045      17.493092      6850.9791      10112.159    
     50300   309.94358     -3245.1311     -3263.0394      17.908318      7206.0934      10112.159    
     50400   309.20966     -3245.5618     -3263.4277      17.865913      6914.1068      10112.159    
     50500   298.82367     -3246.7537     -3264.0195      17.265818      6468.2241      10112.159    
     50600   305.63143     -3247.0343     -3264.6935      17.659165      6489.2623      10112.159    
     50700   287.9102      -3247.1478     -3263.7831      16.635245      6841.9608      10112.159    
     50800   303.71152     -3245.6672     -3263.2154      17.548235      7048.2145      10112.159    
     50900   307.80447     -3244.8002     -3262.5849      17.784722      7382.3215      10112.159    
     51000   317.40648     -3245.4395     -3263.779       18.33952       6791.5367      10112.159    
     51100   295.92862     -3246.7515     -3263.8501      17.098544      6815.5326      10112.159    
     51200   295.28413     -3246.9136     -3263.9749      17.061306      6592.005       10112.159    
     51300   293.26909     -3246.5667     -3263.5116      16.944878      6769.678       10112.159    
     51400   309.95756     -3245.6739     -3263.583       17.909126      6853.8338      10112.159    
     51500   305.50975     -3245.3617     -3263.0138      17.652135      6954.4365      10112.159    
     51600   320.43876     -3245.1017     -3263.6164      18.514722      6969.2906      10112.159    
     51700   292.31284     -3246.2893     -3263.1789      16.889627      6949.3115      10112.159    
     51800   288.74252     -3247.3087     -3263.992       16.683336      6654.991       10112.159    
     51900   285.36689     -3247.4116     -3263.8999      16.488295      6593.8415      10112.159    
     52000   311.64009     -3246.1495     -3264.1558      18.006341      6830.9393      10112.159    
     52100   313.04004     -3244.6945     -3262.7817      18.08723       7153.765       10112.159    
     52200   310.8509      -3244.4241     -3262.3848      17.960742      7264.9705      10112.159    
     52300   300.24586     -3245.0532     -3262.4012      17.347991      7413.6505      10112.159    
     52400   301.9668      -3245.9214     -3263.3688      17.447426      7083.0632      10112.159    
     52500   284.73267     -3247.1352     -3263.5868      16.45165       6711.4666      10112.159    
     52600   297.99916     -3247.3442     -3264.5624      17.218178      6563.2785      10112.159    
     52700   288.89887     -3247.1195     -3263.8119      16.69237       6792.3985      10112.159    
     52800   302.07854     -3245.3031     -3262.757       17.453882      7235.7264      10112.159    
     52900   305.98409     -3244.9184     -3262.5979      17.679542      7715.0186      10112.159    
     53000   304.88135     -3245.7373     -3263.3531      17.615826      7092.628       10112.159    
     53100   312.94246     -3246.6475     -3264.7291      18.081592      6526.5403      10112.159    
     53200   300.88986     -3246.6427     -3264.0279      17.385201      6864.1372      10112.159    
     53300   281.38483     -3246.8691     -3263.1273      16.258214      7010.9712      10112.159    
     53400   300.22381     -3246.9079     -3264.2546      17.346717      6840.3521      10112.159    
     53500   291.81628     -3246.9764     -3263.8374      16.860936      6721.5339      10112.159    
     53600   319.3118      -3245.5414     -3263.9911      18.449607      6868.0982      10112.159    
     53700   301.34743     -3245.0402     -3262.4518      17.411639      7507.3455      10112.159    
     53800   305.71212     -3245.5653     -3263.2291      17.663828      7124.5276      10112.159    
     53900   285.10265     -3247.2114     -3263.6844      16.473027      6821.6682      10112.159    
     54000   310.96621     -3247.0508     -3265.0182      17.967405      6434.3217      10112.159    
     54100   297.04834     -3246.8367     -3263.9999      17.163241      7034.5942      10112.159    
     54200   290.72694     -3245.9211     -3262.7191      16.797995      6970.8386      10112.159    
     54300   313.9733      -3244.4649     -3262.606       18.141153      7498.584       10112.159    
     54400   318.04745     -3244.8121     -3263.1887      18.376554      7185.4771      10112.159    
     54500   315.77258     -3246.2624     -3264.5075      18.245114      6713.3447      10112.159    
     54600   294.26127     -3246.6261     -3263.6283      17.002206      6760.6243      10112.159    
     54700   292.81707     -3246.3904     -3263.3092      16.918761      7203.8656      10112.159    
     54800   302.99555     -3245.8741     -3263.381       17.506866      6927.0756      10112.159    
     54900   307.14657     -3245.5778     -3263.3245      17.746709      7132.2601      10112.159    
     55000   303.28705     -3246.3725     -3263.8962      17.523709      6748.9608      10112.159    
     55100   290.58383     -3247.3636     -3264.1533      16.789726      6628.4722      10112.159    
     55200   289.04219     -3247.5106     -3264.2112      16.700651      6788.2064      10112.159    
     55300   297.13498     -3246.6928     -3263.8611      17.168246      7026.8696      10112.159    
     55400   311.91853     -3245.1746     -3263.197       18.02243       7150.2846      10112.159    
     55500   311.00048     -3245.348      -3263.3173      17.969385      6891.1001      10112.159    
     55600   317.41484     -3246.2877     -3264.6277      18.340002      6608.6338      10112.159    
     55700   279.53063     -3247.6921     -3263.8432      16.15108       6565.1309      10112.159    
     55800   293.91655     -3247.1728     -3264.1551      16.982288      6881.3641      10112.159    
     55900   291.29664     -3246.6585     -3263.4894      16.830912      6983.8985      10112.159    
     56000   321.11208     -3245.6901     -3264.2437      18.553626      6654.949       10112.159    
     56100   323.49163     -3245.1211     -3263.8122      18.691115      6983.4256      10112.159    
     56200   288.30031     -3245.8866     -3262.5444      16.657786      7042.3167      10112.159    
     56300   286.71455     -3247.3552     -3263.9214      16.566162      6883.7248      10112.159    
     56400   307.26838     -3247.5594     -3265.3132      17.753747      6366.2477      10112.159    
     56500   299.06547     -3246.9928     -3264.2725      17.279789      6777.5429      10112.159    
     56600   306.42212     -3245.6476     -3263.3525      17.704851      7188.2286      10112.159    
     56700   289.53114     -3245.6695     -3262.3984      16.728902      7319.6889      10112.159    
     56800   311.81198     -3245.914      -3263.9303      18.016273      6917.3815      10112.159    
     56900   314.37571     -3246.3789     -3264.5433      18.164404      6740.2576      10112.159    
     57000   302.33965     -3246.6343     -3264.1032      17.468969      6772.7776      10112.159    
     57100   285.24087     -3246.7506     -3263.2316      16.481014      6876.7542      10112.159    
     57200   302.11881     -3246.2913     -3263.7475      17.456209      7039.6577      10112.159    
     57300   296.84085     -3246.3243     -3263.4756      17.151252      7021.5652      10112.159    
     57400   302.50882     -3246.5634     -3264.0422      17.478743      6449.0708      10112.159    
     57500   292.8563      -3247.3802     -3264.3013      16.921028      6699.0447      10112.159    
     57600   286.09185     -3248.5408     -3265.0709      16.530182      6532.9466      10112.159    
     57700   264.60579     -3248.3128     -3263.6015      15.288733      6795.5916      10112.159    
     57800   298.94188     -3246.7358     -3264.0084      17.272648      6718.4136      10112.159    
     57900   309.6894      -3245.9192     -3263.8128      17.893632      6812.0982      10112.159    
     58000   319.33994     -3245.4981     -3263.9494      18.451233      6998.1073      10112.159    
     58100   281.91046     -3246.454      -3262.7426      16.288585      7007.9803      10112.159    
     58200   295.65514     -3247.2642     -3264.347       17.082743      6543.4871      10112.159    
     58300   283.86089     -3248.5473     -3264.9486      16.401279      6315.5378      10112.159    
     58400   281.4711      -3249.0284     -3265.2916      16.263199      6321.9204      10112.159    
     58500   299.3422      -3247.1522     -3264.448       17.295778      6694.3792      10112.159    
     58600   299.76156     -3246.4576     -3263.7776      17.320008      6977.6324      10112.159    
     58700   296.55199     -3246.0094     -3263.1439      17.134562      7246.784       10112.159    
     58800   311.05652     -3245.469      -3263.4417      17.972623      7138.6959      10112.159    
     58900   298.89948     -3245.8922     -3263.1624      17.270198      7149.4435      10112.159    
     59000   299.85419     -3247.1229     -3264.4483      17.32536       6558.0167      10112.159    
     59100   284.86862     -3248.2359     -3264.6954      16.459505      6540.6078      10112.159    
     59200   286.83492     -3247.9009     -3264.474       16.573117      6591.4883      10112.159    
     59300   303.25945     -3246.8563     -3264.3784      17.522114      6712.2574      10112.159    
     59400   281.45708     -3246.6022     -3262.8646      16.262389      7236.0031      10112.159    
     59500   308.22784     -3245.7975     -3263.6067      17.809184      7021.7358      10112.159    
     59600   315.13498     -3245.8551     -3264.0634      18.208274      6705.7672      10112.159    
     59700   295.86172     -3247.0483     -3264.143       17.094678      6642.1446      10112.159    
     59800   287.25949     -3248.0804     -3264.678       16.597648      6320.2189      10112.159    
     59900   260.89488     -3248.7902     -3263.8646      15.074319      6843.8874      10112.159    
     60000   295.48003     -3247.4549     -3264.5275      17.072625      6515.3265      10112.159    
     60100   312.33858     -3246.0064     -3264.0531      18.0467        6917.3685      10112.159    
     60200   316.28764     -3245.5867     -3263.8615      18.274873      6787.5622      10112.159    
     60300   280.39858     -3246.1804     -3262.3816      16.20123       7279.0474      10112.159    
     60400   309.03554     -3246.8693     -3264.7252      17.855853      6651.2972      10112.159    
     60500   272.50469     -3248.2515     -3263.9967      15.745126      6717.9713      10112.159    
     60600   304.05298     -3247.5812     -3265.1492      17.567964      6444.8948      10112.159    
     60700   296.6852      -3246.8476     -3263.9898      17.142259      6823.7339      10112.159    
     60800   303.43492     -3246.1982     -3263.7305      17.532253      6888.3579      10112.159    
     60900   302.88991     -3246.0003     -3263.5011      17.500762      6907.5312      10112.159    
     61000   293.63464     -3246.4115     -3263.3775      16.965999      7040.6623      10112.159    
     61100   295.81318     -3247.085      -3264.1769      17.091874      6846.2174      10112.159    
     61200   286.34608     -3248.8268     -3265.3717      16.544872      6043.5841      10112.159    
     61300   289.24432     -3248.8187     -3265.5311      16.71233       6241.932       10112.159    
     61400   286.9732      -3247.4525     -3264.0336      16.581106      6420.3699      10112.159    
     61500   289.44766     -3246.5833     -3263.3073      16.724079      6983.6321      10112.159    
     61600   307.4842      -3245.9418     -3263.708       17.766217      6955.0903      10112.159    
     61700   311.04326     -3245.9655     -3263.9374      17.971857      6678.1714      10112.159    
     61800   290.07198     -3247.2514     -3264.0116      16.760151      6792.7204      10112.159    
     61900   292.52818     -3247.8799     -3264.782       16.902069      6669.2593      10112.159    
     62000   279.11724     -3247.3856     -3263.5128      16.127195      6639.2082      10112.159    
     62100   295.20652     -3245.539      -3262.5958      17.056821      7201.2967      10112.159    
     62200   325.24597     -3245.1637     -3263.9562      18.792479      6971.7238      10112.159    
     62300   322.22527     -3245.9855     -3264.6034      18.617945      6663.7041      10112.159    
     62400   289.86814     -3247.0719     -3263.8202      16.748374      6885.8253      10112.159    
     62500   286.31293     -3247.2186     -3263.7616      16.542956      6962.9916      10112.159    
     62600   299.50387     -3246.4598     -3263.7649      17.30512       6835.1566      10112.159    
     62700   326.85324     -3244.779      -3263.6644      18.885346      6993.1083      10112.159    
     62800   324.60917     -3244.7251     -3263.4808      18.755686      6997.6551      10112.159    
     62900   311.51841     -3245.426      -3263.4253      17.999311      7076.9235      10112.159    
     63000   288.27804     -3246.7211     -3263.3776      16.656499      7008.1735      10112.159    
     63100   290.88052     -3247.0836     -3263.8905      16.806868      6835.1558      10112.159    
     63200   309.45682     -3246.608      -3264.4882      17.880194      6607.3471      10112.159    
     63300   324.56473     -3245.2795     -3264.0326      18.753118      6920.1528      10112.159    
     63400   304.54255     -3244.7844     -3262.3807      17.596251      7163.397       10112.159    
     63500   306.13585     -3245.7506     -3263.4389      17.688311      7096.4955      10112.159    
     63600   282.66348     -3246.7925     -3263.1246      16.332094      7060.9453      10112.159    
     63700   304.73554     -3246.6932     -3264.3006      17.607401      6785.6799      10112.159    
     63800   300.20759     -3246.5164     -3263.8622      17.34578       6764.9723      10112.159    
     63900   312.70818     -3245.6961     -3263.7641      18.068055      6974.9061      10112.159    
     64000   295.48631     -3245.5165     -3262.5895      17.072988      7148.0792      10112.159    
     64100   317.83621     -3245.3617     -3263.7261      18.364349      6799.2226      10112.159    
     64200   288.81549     -3246.8792     -3263.5667      16.687552      6839.333       10112.159    
     64300   280.88278     -3247.392      -3263.6212      16.229206      6966.141       10112.159    
     64400   315.92531     -3246.6406     -3264.8946      18.253938      6633.0648      10112.159    
     64500   303.95155     -3245.7734     -3263.3355      17.562103      7065.8774      10112.159    
     64600   314.46814     -3244.3397     -3262.5095      18.169744      7381.5506      10112.159    
     64700   313.52517     -3245.1455     -3263.2607      18.11526       7154.9538      10112.159    
     64800   314.69868     -3245.9137     -3264.0967      18.183065      6851.0792      10112.159    
     64900   301.66803     -3246.7034     -3264.1336      17.430163      6789.8525      10112.159    
     65000   279.90895     -3247.2181     -3263.3911      16.172939      7002.5009      10112.159    
     65100   312.94245     -3246.3181     -3264.3997      18.081591      6608.1208      10112.159    
     65200   317.24139     -3244.5628     -3262.8928      18.329981      7100.8195      10112.159    
     65300   314.42662     -3244.4997     -3262.6671      18.167345      7353.523       10112.159    
     65400   302.44561     -3245.7957     -3263.2708      17.475091      7052.7374      10112.159    
     65500   303.07064     -3246.3688     -3263.8801      17.511205      6825.8911      10112.159    
     65600   295.3696      -3246.7437     -3263.8099      17.066244      6858.03        10112.159    
     65700   298.24503     -3246.7843     -3264.0167      17.232385      6715.7516      10112.159    
     65800   300.55049     -3246.1136     -3263.4792      17.365592      6866.1168      10112.159    
     65900   330.71269     -3245.045      -3264.1534      19.108343      7025.3822      10112.159    
     66000   294.43893     -3245.8127     -3262.8252      17.012471      7098.2897      10112.159    
     66100   289.22835     -3247.0908     -3263.8022      16.711407      6608.1865      10112.159    
     66200   290.68582     -3247.5866     -3264.3822      16.795619      6643.3438      10112.159    
     66300   293.17094     -3247.1221     -3264.0613      16.939207      6597.2441      10112.159    
     66400   305.59148     -3246.555      -3264.2118      17.656857      6729.2678      10112.159    
     66500   296.06538     -3246.199      -3263.3054      17.106446      6954.3839      10112.159    
     66600   303.26187     -3246.1681     -3263.6903      17.522254      6902.1236      10112.159    
     66700   285.89991     -3247.8947     -3264.4138      16.519092      6395.9352      10112.159    
     66800   271.60958     -3248.552      -3264.2454      15.693407      6144.9872      10112.159    
     66900   294.40633     -3247.6501     -3264.6607      17.010587      6551.6245      10112.159    
     67000   301.61611     -3246.9821     -3264.4093      17.427163      6633.9375      10112.159    
     67100   293.29779     -3246.3286     -3263.2751      16.946537      6838.5285      10112.159    
     67200   313.02728     -3245.6502     -3263.7367      18.086492      6827.9421      10112.159    
     67300   307.83434     -3245.9695     -3263.756       17.786448      6915.3979      10112.159    
     67400   282.4705      -3247.5331     -3263.8541      16.320944      6672.3428      10112.159    
     67500   293.69437     -3247.8028     -3264.7723      16.969451      6761.873       10112.159    
     67600   297.51078     -3246.9591     -3264.1491      17.18996       6581.5949      10112.159    
     67700   301.81973     -3245.6121     -3263.051       17.438928      7044.2947      10112.159    
     67800   310.0939      -3245.3886     -3263.3056      17.917004      7060.9164      10112.159    
     67900   297.79004     -3246.034      -3263.2401      17.206095      6783.6129      10112.159    
     68000   301.8702      -3246.3958     -3263.8377      17.441844      6915.8235      10112.159    
     68100   293.01593     -3247.0734     -3264.0036      16.930251      6712.2476      10112.159    
     68200   296.67547     -3248.0785     -3265.2202      17.141697      6236.4792      10112.159    
     68300   273.31871     -3249.1375     -3264.9297      15.79216       6256.9948      10112.159    
     68400   287.99984     -3247.9905     -3264.6309      16.640425      6787.5152      10112.159    
     68500   286.54912     -3246.8177     -3263.3743      16.556603      6930.4797      10112.159    
     68600   314.50299     -3245.8492     -3264.021       18.171758      6796.4326      10112.159    
     68700   302.77526     -3245.7462     -3263.2403      17.494138      7286.7647      10112.159    
     68800   301.80107     -3246.3348     -3263.7726      17.43785       6810.784       10112.159    
     68900   293.56304     -3247.8755     -3264.8374      16.961863      6316.272       10112.159    
     69000   290.11268     -3248.0243     -3264.7868      16.762503      6385.8315      10112.159    
     69100   277.6301      -3247.394      -3263.4352      16.041268      6887.9284      10112.159    
     69200   309.49011     -3246.5555     -3264.4376      17.882117      6576.8127      10112.159    
     69300   310.05828     -3246.3461     -3264.261       17.914946      6892.7438      10112.159    
     69400   297.36063     -3246.4288     -3263.6101      17.181284      6971.3163      10112.159    
     69500   294.24405     -3246.3743     -3263.3755      17.001211      6997.6714      10112.159    
     69600   301.04451     -3245.9495     -3263.3437      17.394136      6969.4565      10112.159    
     69700   312.21694     -3245.8655     -3263.9052      18.039672      6823.4841      10112.159    
     69800   302.47367     -3246.6246     -3264.1013      17.476712      6742.4364      10112.159    
     69900   287.17271     -3247.4814     -3264.074       16.592634      6810.7794      10112.159    
     70000   275.66993     -3247.7671     -3263.6951      15.928011      6732.2023      10112.159    
     70100   311.65302     -3246.6144     -3264.6215      18.007089      6714.9485      10112.159    
     70200   325.74585     -3245.1646     -3263.986       18.821363      6676.1987      10112.159    
     70300   300.22522     -3245.2149     -3262.5617      17.346798      7202.7111      10112.159    
     70400   294.10404     -3246.2031     -3263.1962      16.993121      7057.1733      10112.159    
     70500   307.18177     -3246.8582     -3264.607       17.748743      6510.0442      10112.159    
     70600   297.45331     -3246.9233     -3264.1099      17.18664       6776.4966      10112.159    
     70700   305.46441     -3246.5404     -3264.1899      17.649515      6672.4332      10112.159    
     70800   314.24962     -3245.8276     -3263.9847      18.157118      6786.1903      10112.159    
     70900   307.05709     -3244.1133     -3261.8548      17.741539      7356.996       10112.159    
     71000   327.46888     -3243.7554     -3262.6763      18.920917      7315.9351      10112.159    
     71100   303.06934     -3245.5119     -3263.023       17.51113       7024.2283      10112.159    
     71200   317.27004     -3245.7697     -3264.1014      18.331636      7064.9373      10112.159    
     71300   281.53067     -3246.7761     -3263.0428      16.266641      7152.6236      10112.159    
     71400   289.69143     -3247.1179     -3263.8561      16.738164      6839.9242      10112.159    
     71500   295.09642     -3246.9022     -3263.9526      17.05046       6598.6845      10112.159    
     71600   322.49212     -3245.545      -3264.1784      18.633364      6740.5354      10112.159    
     71700   307.13631     -3245.3045     -3263.0507      17.746116      6923.6155      10112.159    
     71800   298.17469     -3246.197      -3263.4253      17.228321      7106.1954      10112.159    
     71900   274.86491     -3247.9542     -3263.8357      15.881498      6619.8162      10112.159    
     72000   295.05564     -3247.6529     -3264.701       17.048104      6443.8694      10112.159    
     72100   307.22003     -3246.7924     -3264.5433      17.750954      6641.8903      10112.159    
     72200   301.71772     -3245.9545     -3263.3875      17.433034      6658.2298      10112.159    
     72300   310.28293     -3245.6991     -3263.627       17.927926      6905.9878      10112.159    
     72400   300.98589     -3246.1604     -3263.5511      17.390749      6805.283       10112.159    
     72500   284.57798     -3246.5514     -3262.9941      16.442712      7115.4547      10112.159    
     72600   308.959       -3246.3266     -3264.178       17.85143       6662.8904      10112.159    
     72700   300.82625     -3246.6195     -3264.001       17.381526      6701.6734      10112.159    
     72800   291.1396      -3246.9853     -3263.8071      16.821838      6717.58        10112.159    
     72900   285.60034     -3247.2296     -3263.7314      16.501783      6623.0037      10112.159    
     73000   313.04976     -3246.5847     -3264.6725      18.087791      6466.1328      10112.159    
     73100   309.62848     -3245.6993     -3263.5894      17.890112      7004.6822      10112.159    
     73200   302.86356     -3244.6366     -3262.1358      17.49924       7217.2639      10112.159    
     73300   304.74688     -3245.0612     -3262.6693      17.608057      7233.1341      10112.159    
     73400   319.08876     -3246.3919     -3264.8287      18.436721      6701.321       10112.159    
     73500   288.82221     -3247.0373     -3263.7252      16.68794       6703.8163      10112.159    
     73600   301.59108     -3246.6906     -3264.1163      17.425717      6744.9596      10112.159    
     73700   293.48667     -3246.2488     -3263.2063      16.95745       7154.8901      10112.159    
     73800   309.85594     -3245.0988     -3263.002       17.903255      6997.3204      10112.159    
     73900   316.83862     -3244.337      -3262.6437      18.306709      7387.8594      10112.159    
     74000   307.44437     -3245.8852     -3263.6492      17.763916      6831.6479      10112.159    
     74100   297.15013     -3247.0211     -3264.1902      17.169122      6661.1912      10112.159    
     74200   298.72159     -3246.8375     -3264.0974      17.25992       6641.2412      10112.159    
     74300   294.56197     -3246.4361     -3263.4557      17.01958       6739.6585      10112.159    
     74400   310.12012     -3245.624      -3263.5425      17.918519      6773.8153      10112.159    
     74500   316.32377     -3244.594      -3262.8709      18.276961      7358.9453      10112.159    
     74600   315.46242     -3244.8182     -3263.0454      18.227193      6967.7102      10112.159    
     74700   299.93443     -3246.8986     -3264.2286      17.329997      6800.5271      10112.159    
     74800   297.21836     -3247.3982     -3264.5713      17.173064      6211.6981      10112.159    
     74900   300.56832     -3247.1279     -3264.4945      17.366622      6621.7362      10112.159    
     75000   299.34361     -3245.9332     -3263.2291      17.29586       6812.2532      10112.159    
     75100   301.21027     -3245.0513     -3262.455       17.403714      6948.9908      10112.159    
     75200   316.18675     -3245.3488     -3263.6178      18.269044      7038.8788      10112.159    
     75300   297.07488     -3246.3929     -3263.5577      17.164774      6883.5955      10112.159    
     75400   303.64681     -3246.2662     -3263.8107      17.544496      6962.4891      10112.159    
[...]
    281800   303.49415     -3246.7709     -3264.3066      17.535675      6547.777       10112.159    
    281900   295.62917     -3246.8263     -3263.9075      17.081242      6715.7733      10112.159    
    282000   293.15154     -3246.3828     -3263.3209      16.938086      6933.5127      10112.159    
    282100   305.63197     -3245.3528     -3263.012       17.659197      7231.6339      10112.159    
    282200   316.28176     -3244.0992     -3262.3738      18.274534      7278.4968      10112.159    
    282300   319.97665     -3244.089      -3262.577       18.488022      7037.6421      10112.159    
    282400   296.24211     -3246.1971     -3263.3138      17.116657      6746.0297      10112.159    
    282500   285.71508     -3247.0275     -3263.5359      16.508413      7076.4186      10112.159    
    282600   296.39284     -3246.9429     -3264.0683      17.125366      6552.3526      10112.159    
    282700   308.37241     -3246.2574     -3264.075       17.817537      6769.3528      10112.159    
    282800   309.47755     -3245.4142     -3263.2956      17.881391      6971.9465      10112.159    
    282900   319.34668     -3244.7591     -3263.2107      18.451623      7270.9233      10112.159    
    283000   286.76961     -3246.0639     -3262.6332      16.569343      7022.7503      10112.159    
    283100   301.25077     -3247.1558     -3264.5619      17.406054      6713.8805      10112.159    
    283200   290.72941     -3247.4241     -3264.2222      16.798138      6733.3026      10112.159    
    283300   301.10412     -3246.5876     -3263.9852      17.397581      6808.8908      10112.159    
    283400   304.61638     -3245.9039     -3263.5044      17.600516      6898.6362      10112.159    
    283500   301.98251     -3245.7997     -3263.248       17.448334      6847.9545      10112.159    
    283600   308.67083     -3245.7119     -3263.5467      17.83478       6995.1585      10112.159    
    283700   296.15237     -3246.3149     -3263.4263      17.111472      6961.4479      10112.159    
    283800   304.60891     -3247.0584     -3264.6585      17.600085      6497.0336      10112.159    
    283900   292.22226     -3247.5256     -3264.41        16.884393      6588.4446      10112.159    
    284000   303.67747     -3246.6106     -3264.1569      17.546267      6880.5606      10112.159    
    284100   295.75274     -3245.637      -3262.7254      17.088382      7423.8992      10112.159    
    284200   315.18565     -3244.9216     -3263.1328      18.211201      6882.5883      10112.159    
    284300   317.46337     -3245.5283     -3263.8711      18.342807      6920.5341      10112.159    
    284400   287.03087     -3247.1194     -3263.7038      16.584438      6783.3321      10112.159    
    284500   291.54549     -3247.5805     -3264.4258      16.84529       6571.087       10112.159    
    284600   285.90774     -3247.4495     -3263.9691      16.519545      6487.0655      10112.159    
    284700   313.82819     -3245.8329     -3263.9657      18.132768      6908.7581      10112.159    
    284800   300.38518     -3245.7228     -3263.0788      17.356041      7176.6333      10112.159    
    284900   306.357       -3245.9774     -3263.6785      17.701088      7021.1869      10112.159    
    285000   288.11973     -3246.9338     -3263.5812      16.647352      7005.0504      10112.159    
    285100   278.05803     -3248.6023     -3264.6683      16.065994      6478.5012      10112.159    
    285200   288.92428     -3248.5636     -3265.2574      16.693838      6541.3527      10112.159    
    285300   292.42904     -3247.6564     -3264.5527      16.896341      6351.2299      10112.159    
    285400   295.32362     -3246.895      -3263.9586      17.063587      6845.7423      10112.159    
    285500   294.915       -3246.2203     -3263.2602      17.039978      6890.6619      10112.159    
    285600   308.01244     -3245.6868     -3263.4835      17.796738      7142.7057      10112.159    
    285700   308.51712     -3245.693      -3263.5189      17.825898      7156.2279      10112.159    
    285800   301.94614     -3246.7434     -3264.1896      17.446232      6696.2065      10112.159    
    285900   288.19654     -3247.7655     -3264.4173      16.65179       6742.2826      10112.159    
    286000   282.11807     -3247.7974     -3264.098       16.300581      6713.6905      10112.159    
    286100   318.14957     -3246.1548     -3264.5373      18.382455      6748.2548      10112.159    
    286200   293.14155     -3245.6614     -3262.5989      16.937509      7356.9931      10112.159    
    286300   304.83905     -3245.5397     -3263.1531      17.613382      6881.7649      10112.159    
    286400   309.02785     -3246.6039     -3264.4593      17.855408      6798.8897      10112.159    
    286500   293.06844     -3247.6157     -3264.549       16.933285      6574.0732      10112.159    
    286600   287.34961     -3247.5029     -3264.1057      16.602855      6834.3003      10112.159    
    286700   304.41062     -3246.5723     -3264.1609      17.588628      6760.0208      10112.159    
    286800   308.9041      -3246.0342     -3263.8825      17.848258      7047.2672      10112.159    
    286900   303.36813     -3246.279      -3263.8074      17.528393      6866.2844      10112.159    
    287000   285.08343     -3246.623      -3263.0949      16.471917      7210.528       10112.159    
    287100   316.01822     -3246.1622     -3264.4215      18.259307      6716.145       10112.159    
    287200   298.58565     -3246.628      -3263.88        17.252065      6548.7373      10112.159    
    287300   292.14308     -3247.421      -3264.3008      16.879818      6642.7817      10112.159    
    287400   292.45908     -3247.5754     -3264.4735      16.898077      6592.5566      10112.159    
    287500   291.09387     -3246.7299     -3263.5491      16.819196      6970.7193      10112.159    
    287600   317.2024      -3245.6452     -3263.973       18.327728      6859.6203      10112.159    
    287700   309.56503     -3245.6822     -3263.5687      17.886446      7014.1402      10112.159    
    287800   304.80399     -3245.9664     -3263.5777      17.611357      6696.8394      10112.159    
    287900   272.40872     -3247.8111     -3263.5507      15.739581      6779.0669      10112.159    
    288000   287.82653     -3247.9439     -3264.5744      16.630411      6684.7135      10112.159    
    288100   304.11776     -3247.0458     -3264.6175      17.571707      6661.6379      10112.159    
    288200   303.42254     -3245.7206     -3263.2522      17.531538      6985.2878      10112.159    
    288300   316.30897     -3245.3022     -3263.5783      18.276106      7004.2081      10112.159    
    288400   278.5169      -3246.1171     -3262.2096      16.092507      7425.5936      10112.159    
    288500   290.51756     -3246.6653     -3263.4512      16.785897      6872.9775      10112.159    
    288600   314.15328     -3246.9549     -3265.1064      18.151552      6532.4037      10112.159    
    288700   308.62802     -3246.8493     -3264.6816      17.832306      6854.3056      10112.159    
    288800   308.79454     -3245.046      -3262.8879      17.841928      7420.9447      10112.159    
    288900   289.20568     -3244.6291     -3261.3391      16.710097      7645.1963      10112.159    
    289000   306.22357     -3245.3433     -3263.0367      17.693379      6950.4532      10112.159    
    289100   301.58986     -3246.5568     -3263.9824      17.425647      6543.2641      10112.159    
    289200   310.9886      -3246.8955     -3264.8642      17.968699      6633.4444      10112.159    
    289300   288.26114     -3247.4098     -3264.0653      16.655523      6789.0552      10112.159    
    289400   295.97869     -3246.4112     -3263.5127      17.101437      6882.4177      10112.159    
    289500   310.57078     -3245.0661     -3263.0106      17.944558      7485.0478      10112.159    
    289600   307.70468     -3245.4161     -3263.1951      17.778956      7082.5874      10112.159    
    289700   298.91338     -3246.23       -3263.501       17.271002      6916.9484      10112.159    
    289800   306.65637     -3246.8931     -3264.6115      17.718386      6721.6166      10112.159    
    289900   276.53221     -3248.1925     -3264.1703      15.977833      6707.5627      10112.159    
    290000   284.06713     -3249.264      -3265.6772      16.413195      6114.9162      10112.159    
    290100   273.25494     -3249.7145     -3265.503       15.788475      6207.7645      10112.159    
    290200   286.71059     -3247.8306     -3264.3966      16.565933      6618.8399      10112.159    
    290300   289.36563     -3246.7758     -3263.4951      16.719339      6792.1914      10112.159    
    290400   308.83909     -3245.5982     -3263.4427      17.844502      6867.8463      10112.159    
    290500   314.71336     -3245.5886     -3263.7725      18.183913      6631.2391      10112.159    
    290600   293.97324     -3246.5409     -3263.5265      16.985564      6981.5712      10112.159    
    290700   293.73961     -3247.0513     -3264.0234      16.972065      6656.0947      10112.159    
    290800   294.59127     -3247.8719     -3264.8932      17.021273      6444.0601      10112.159    
    290900   279.55747     -3248.6006     -3264.7532      16.152631      6278.6874      10112.159    
    291000   278.51839     -3247.6975     -3263.7901      16.092593      6728.7459      10112.159    
    291100   307.02605     -3246.2543     -3263.9941      17.739746      6716.5535      10112.159    
    291200   303.0498      -3246.1276     -3263.6376      17.510001      6671.3453      10112.159    
    291300   297.35842     -3245.9805     -3263.1617      17.181157      6844.7396      10112.159    
    291400   309.90733     -3245.2322     -3263.1384      17.906224      7263.9771      10112.159    
    291500   305.13797     -3245.3385     -3262.9692      17.630653      7357.1358      10112.159    
    291600   302.01072     -3246.9518     -3264.4018      17.449963      6387.7559      10112.159    
    291700   290.17825     -3247.5531     -3264.3194      16.766291      6541.1341      10112.159    
    291800   294.44061     -3246.9666     -3263.9791      17.012568      6857.9123      10112.159    
    291900   302.08427     -3245.9123     -3263.3665      17.454213      6924.8006      10112.159    
    292000   306.43655     -3245.2597     -3262.9654      17.705685      7079.8195      10112.159    
    292100   305.06831     -3245.0384     -3262.6651      17.626629      7225.0936      10112.159    
    292200   309.32253     -3245.5777     -3263.4501      17.872435      6916.3316      10112.159    
    292300   306.14807     -3247.0181     -3264.7071      17.689016      6664.7929      10112.159    
    292400   282.32177     -3247.7643     -3264.0766      16.31235       6460.1739      10112.159    
    292500   289.47915     -3246.8912     -3263.6171      16.725898      6767.1589      10112.159    
    292600   311.65188     -3245.6797     -3263.6868      18.007023      7032.755       10112.159    
    292700   306.04        -3245.8904     -3263.5732      17.682773      6951.5576      10112.159    
    292800   300.46913     -3246.4491     -3263.81        17.360892      6770.5583      10112.159    
    292900   299.0111      -3246.5531     -3263.8297      17.276647      6598.6835      10112.159    
    293000   303.37529     -3245.9904     -3263.5192      17.528807      6933.1958      10112.159    
    293100   313.13453     -3244.9945     -3263.0872      18.092689      7078.7873      10112.159    
    293200   317.90791     -3245.0386     -3263.407       18.368492      6946.1121      10112.159    
    293300   291.56393     -3246.1555     -3263.0019      16.846356      6909.2836      10112.159    
    293400   296.37463     -3247.2485     -3264.3728      17.124314      6623.6441      10112.159    
    293500   286.28871     -3247.902      -3264.4436      16.541557      6512.4497      10112.159    
    293600   302.54188     -3247.1896     -3264.6702      17.480654      6476.8468      10112.159    
    293700   295.42935     -3246.5389     -3263.6086      17.069696      6855.9687      10112.159    
    293800   298.28003     -3246.2435     -3263.4779      17.234407      6762.1302      10112.159    
    293900   308.56469     -3246.2874     -3264.1161      17.828647      6860.8438      10112.159    
    294000   287.59502     -3247.2412     -3263.8582      16.617035      6535.9447      10112.159    
    294100   294.74189     -3248.1081     -3265.1381      17.029975      6317.2115      10112.159    
    294200   298.7561      -3247.7964     -3265.0583      17.261914      6411.6669      10112.159    
    294300   287.00784     -3246.1847     -3262.7678      16.583108      6953.2952      10112.159    
    294400   301.39575     -3245.4481     -3262.8625      17.414431      7266.3934      10112.159    
    294500   307.46709     -3245.7604     -3263.5256      17.765229      6793.5113      10112.159    
    294600   298.44676     -3246.6874     -3263.9314      17.24404       6816.0714      10112.159    
    294700   289.46479     -3247.6662     -3264.3912      16.725068      6710.688       10112.159    
    294800   275.00083     -3248.5218     -3264.4111      15.889352      6443.9333      10112.159    
    294900   300.35688     -3248.2288     -3265.5832      17.354406      6341.0196      10112.159    
    295000   293.30259     -3246.8108     -3263.7576      16.946814      6709.5698      10112.159    
    295100   305.38877     -3245.6329     -3263.2781      17.645145      7084.3004      10112.159    
    295200   290.99974     -3245.8534     -3262.6671      16.813757      7060.3442      10112.159    
    295300   304.41745     -3246.27       -3263.859       17.589022      6891.1289      10112.159    
    295400   290.16632     -3247.5092     -3264.2748      16.765602      6640.0586      10112.159    
    295500   297.93245     -3248.5334     -3265.7477      17.214324      6216.5763      10112.159    
    295600   280.80718     -3247.9872     -3264.212       16.224838      6343.318       10112.159    
    295700   293.99141     -3246.9303     -3263.9169      16.986613      6908.8176      10112.159    
    295800   285.09044     -3246.6749     -3263.1472      16.472322      6892.232       10112.159    
    295900   317.58264     -3245.8971     -3264.2468      18.349698      6639.6223      10112.159    
    296000   311.97898     -3245.6976     -3263.7235      18.025922      6957.4281      10112.159    
    296100   298.88581     -3245.9594     -3263.2288      17.269408      7014.1724      10112.159    
    296200   302.5611      -3247.1397     -3264.6214      17.481764      6740.0992      10112.159    
    296300   288.03075     -3247.9854     -3264.6276      16.642211      6324.9909      10112.159    
    296400   289.65253     -3247.262      -3263.9979      16.735916      6565.5012      10112.159    
    296500   305.44999     -3245.9397     -3263.5883      17.648682      6930.6813      10112.159    
    296600   308.96018     -3245.8744     -3263.7259      17.851498      6951.5776      10112.159    
    296700   293.82952     -3246.4801     -3263.4573      16.977259      7031.9644      10112.159    
    296800   289.88743     -3247.0418     -3263.7913      16.749488      6655.4392      10112.159    
    296900   298.81472     -3247.4226     -3264.6879      17.265301      6565.5876      10112.159    
    297000   297.92124     -3247.1721     -3264.3858      17.213676      6439.9541      10112.159    
    297100   309.39885     -3246.0654     -3263.9422      17.876844      6898.0296      10112.159    
    297200   291.61407     -3245.7012     -3262.5505      16.849252      7185.9713      10112.159    
    297300   319.65963     -3244.9861     -3263.4558      18.469705      7285.1201      10112.159    
    297400   300.37454     -3245.607      -3262.9625      17.355426      7166.5165      10112.159    
    297500   302.5368      -3247.0831     -3264.5635      17.48036       6563.2765      10112.159    
    297600   289.0122      -3247.4563     -3264.1552      16.698918      6684.2172      10112.159    
    297700   289.55945     -3246.7811     -3263.5117      16.730538      6808.9329      10112.159    
    297800   309.24098     -3245.7197     -3263.5874      17.867723      6894.1111      10112.159    
    297900   313.64484     -3245.266      -3263.3882      18.122175      6906.3399      10112.159    
    298000   314.73117     -3244.1167     -3262.3017      18.184942      7332.3679      10112.159    
    298100   308.28181     -3244.634      -3262.4463      17.812303      7576.4752      10112.159    
    298200   292.39861     -3246.1315     -3263.0261      16.894583      7084.174       10112.159    
    298300   303.06767     -3247.108      -3264.6191      17.511033      6750.6545      10112.159    
    298400   298.95469     -3247.4192     -3264.6926      17.273388      6477.4205      10112.159    
    298500   285.52586     -3246.8547     -3263.3522      16.49748       6723.398       10112.159    
    298600   316.50279     -3245.4158     -3263.7031      18.287305      6914.3183      10112.159    
    298700   296.86693     -3245.5199     -3262.6727      17.152759      6930.5014      10112.159    
    298800   334.77423     -3245.42       -3264.763       19.343015      6436.0261      10112.159    
    298900   282.64732     -3246.6348     -3262.966       16.33116       7110.1899      10112.159    
    299000   304.22903     -3246.8806     -3264.4587      17.578135      6848.9227      10112.159    
    299100   290.02913     -3247.1168     -3263.8745      16.757676      6538.793       10112.159    
    299200   320.65177     -3245.4466     -3263.9736      18.52703       7008.6599      10112.159    
    299300   311.44126     -3244.8675     -3262.8624      17.994853      7007.8492      10112.159    
    299400   307.54272     -3245.4212     -3263.1908      17.769598      6863.2614      10112.159    
    299500   308.92825     -3246.472      -3264.3217      17.849653      6683.2703      10112.159    
    299600   289.85058     -3246.9857     -3263.7331      16.747359      6565.1378      10112.159    
    299700   302.91996     -3246.471      -3263.9735      17.502498      6881.2395      10112.159    
    299800   300.8131      -3245.9153     -3263.2961      17.380766      6670.8381      10112.159    
    299900   310.95914     -3245.5863     -3263.5533      17.966997      7116.3639      10112.159    
    300000   291.52686     -3246.7399     -3263.5841      16.844214      6778.6191      10112.159    
Loop time of 2259.25 on 20 procs for 300000 steps with 448 atoms

Performance: 11.473 ns/day, 2.092 hours/ns, 132.787 timesteps/s, 59.489 katom-step/s
99.9% CPU use with 20 MPI tasks x 1 OpenMP threads

MPI task timing breakdown:
Section |  min time  |  avg time  |  max time  |%varavg| %total
---------------------------------------------------------------
Pair    | 1745       | 1997.6     | 2159.1     | 415.3 | 88.42
Neigh   | 20.316     | 28.442     | 34.709     | 120.3 |  1.26
Comm    | 62.446     | 230.04     | 490.97     |1266.4 | 10.18
Output  | 0.36113    | 0.58674    | 0.65451    |   7.8 |  0.03
Modify  | 2.0862     | 2.2509     | 2.5534     |   7.4 |  0.10
Other   |            | 0.2895     |            |       |  0.01

Nlocal:           22.4 ave          24 max          18 min
Histogram: 2 1 0 2 0 1 2 0 0 12
Nghost:          496.8 ave         522 max         466 min
Histogram: 4 0 0 0 8 0 0 0 0 8
Neighs:              0 ave           0 max           0 min
Histogram: 20 0 0 0 0 0 0 0 0 0
FullNghs:       1282.9 ave        1381 max        1028 min
Histogram: 2 1 0 2 1 0 1 1 0 12

Total # of neighbors = 25658
Ave neighs/atom = 57.272321
Neighbor list builds = 300000
Dangerous builds not checked
Total wall time: 0:37:39
