108
 Atoms. Timestep: 0
1    1.9498426099999999    1.6123894800000000    2.2463115000000000
1    3.2310994800000001    7.2917578000000001   10.6101818899999998
1    5.0867491899999999    5.3743590899999996    2.2430686899999999
1    8.9265713699999996    5.1206595400000001    7.8247845199999997
1    0.2592721000000000    7.0133755899999999    5.3305418199999997
1   10.7365987599999997   10.8800927800000000   10.6153213300000004
1    7.1881782400000001    3.5480399000000000    5.1419050200000003
1    7.2680072800000000    7.1069656900000000    5.4505338700000001
1    1.6494264599999999    5.2833683000000002    2.6433772400000000
1   10.7283949100000005    3.2646578100000001    5.3122076399999996
1   10.8235741700000005    3.6351975099999998    0.1936622900000000
1    1.9354248400000000    5.1519876800000004    7.7933675300000003
1    8.9461627799999999    9.0473408899999992    8.0078490599999999
1    1.7098071600000000    1.6894044600000000    7.9303547200000004
1    7.3893707199999996    7.2870110099999996   10.4758578999999994
1    8.7307771299999999    9.0393448700000008    2.9513383800000002
1    5.0789946400000003    8.9861253300000001    2.4193840299999998
1    5.4426058800000003    9.3071524599999993    7.9839223300000004
1   10.9507573300000001   10.7516530699999997    5.3004673799999997
1    3.5276752199999999    3.4735595899999998    5.1816768299999998
1   10.9538038699999998    7.2940740100000001   10.3258917399999994
1    1.6456279000000000    9.0987234299999997    7.9318484199999997
1    7.2406413799999996    3.7825271200000001    0.0748470800000000
1    8.9499556299999998    5.4080370699999998    2.6872656600000000
1    3.8236803699999999    6.9904107199999999    4.8131646100000003
1    3.7737331799999998    0.0466739800000000    0.0220746300000000
1    7.1999626299999999    0.0728454600000000    5.2426781499999997
1    5.6696258100000003    1.6242438699999999    2.6256736900000002
1    5.3494679300000003    1.7250430200000000    7.5813982700000002
1    1.4256022800000001    8.9866387299999992    2.5796010100000002
1    3.3299887699999999   10.9341262399999994    5.2506655200000001
1    3.7357748000000002    3.6106027200000002   10.2165931000000008
1    7.1817182600000002   10.9535638199999994   10.5472857399999995
1    9.0363334999999996    1.7914524800000000    2.5222215200000000
1    5.4428051599999998    5.4758693899999997    7.8838400899999996
1    9.0497654500000007    1.7001676400000001    7.7713846300000000
2   10.5057749000000005    9.5845480799999994    1.6476423200000001
2    5.0698647899999996    7.1086391100000004    3.3652439699999999
2   10.8249983400000005    5.5721666000000001    4.0577155600000001
2   10.5201266100000002    1.7316611000000000    4.2294791399999996
2    1.7629813400000001   10.8695582599999998    3.8848047999999999
2    1.7024185500000000    0.0846790300000000    1.1687234900000001
2    2.1226030599999999    3.9810609000000001    0.6740873500000000
2    0.4495063800000000    1.9355864400000000    9.7257516200000005
2    1.7441040500000000   10.8285213500000008    8.9739178099999997
2    1.7574875700000001   10.4756398799999992    6.2722654799999997
2   10.9542293999999991    1.8100072300000001    6.7498245399999997
2    1.8843236500000000    3.3871044800000001    3.3237903400000000
2    1.4719650000000000    7.5332583900000003    0.9597057000000000
2    1.8063053099999999    7.1928590899999998    8.9430213199999997
2   10.7286291499999997    2.2867134199999999    1.6239633499999999
2    3.7478391100000001    5.1082562500000002    6.4553532999999996
2    3.5104206200000001    1.6528777100000001    6.7340960599999997
2    5.3909712299999999    3.5057395499999999    8.6978579099999997
2   10.8328709900000000    5.2844045199999998    1.4801322500000000
2    2.3622152700000001    7.5195828899999997    5.9504287099999997
2   10.8529835800000001    8.6150234799999996    6.8946615600000003
2    3.8762220599999999    1.6630748900000001    4.1044106700000000
2    5.8673867599999996   10.6716270499999997    3.3763120500000001
2    5.5116577099999997   10.6540145099999997    0.7522161400000000
2    3.9002888900000001    1.6740566400000001    1.6405635100000000
2    3.6148129999999998    1.6211643600000001    9.5406527899999993
2    5.7888704700000000    0.0107577000000000    8.8401978700000008
2   10.8968633500000003    9.1563911000000004    9.6441568300000000
2    3.4844188500000000    5.0834485799999998    3.7930377300000000
2    5.5925345699999998    3.3697822799999999    3.3712241600000001
2    5.3253816100000000    4.1550901700000002    0.5425526300000000
2    8.9840330700000006    7.0992439000000003    6.2406166699999996
2    3.5141731500000000    5.4887050000000004    9.1911944400000003
2    5.3005107200000001    3.7454195800000001    6.0235617599999998
2   10.9428808499999999    5.4587485600000001    9.1918897899999994
2    9.1598810299999993    0.0837115100000000    6.4382472000000002
2    1.7347139899999999    3.5966836700000000    6.2946254899999996
2    6.6201868800000003    1.9379128400000001    0.9569061200000000
2    9.0192770899999992    0.7570895100000000    0.8552598300000001
2    7.3258765400000003    8.7171040400000006    4.3839670799999997
2    7.5008020100000001    1.9078092600000001    3.9086825300000001
2    3.5114363499999999    9.5687969699999993    7.2567654399999997
2    8.9451281999999992    7.2605082200000002    9.0573037999999997
2    7.3484578400000000    1.7218183400000000    9.3133880799999993
2    7.7142563300000004    9.0940986899999992    9.6450297799999998
2    5.8448564000000003    7.2782907999999997    8.6964975100000004
2    9.0571913199999994    7.2096918800000003    3.6427283600000000
2    5.1491348400000003    7.4112087700000000    6.1715991800000003
2    7.3006592200000000    8.9426611299999994    1.4384127900000001
2    9.0891076799999997    7.3007725099999998    0.6677890300000000
2    7.6362253999999998    5.2474180500000003    9.4663071900000002
2    4.0345408599999999    8.9785132099999991    9.6397276099999996
2    9.3238728500000008   10.8999822999999996    9.0311523099999995
2    7.2296911899999996    5.1815925399999996    6.8325191099999998
2    5.4810941900000003    0.4163562700000000    5.9070828000000004
2    0.4158410100000000    5.6138053200000000    6.4924396900000003
2   10.8613636099999997    9.2070802399999998    4.0367162700000003
2    1.5810151100000001    7.3236430500000003    3.4513526899999998
2    3.9574907100000001    9.0638144399999998    4.2112619899999997
2    3.2360449099999999    5.9970761100000001    1.5488692500000001
2    5.2545450400000000    7.1741711099999996    0.8439352700000000
2    9.1459865199999992   10.8676504900000008    3.5999253800000002
2    9.1962395000000008    3.3834953600000000    9.0509243799999997
2    7.1961840099999996    5.9043847300000003    1.6130177100000000
2    8.7533348699999998    3.6848508700000000    1.3186781700000001
2    9.0494758799999993    3.5659999700000000    3.5588294199999999
2    7.1367621699999999    5.2613336000000004    4.5414043599999996
2    3.2418811700000001    9.3051311900000009    1.6329740900000000
2    9.1155543699999999    3.4867889600000002    6.2457008399999996
2    7.2934387799999998    1.7093592799999999    6.7606757899999996
2    2.1277929200000001    3.5278868900000000    8.7864617900000006
2    6.9259656700000001    9.2839186199999997    6.8249149100000004
108
 Atoms. Timestep: 50
1    1.8755919579932452    1.6602614310776429    2.3970139239853245
1    3.4948323677305715    7.2453385868143938   10.5291178727253811
1    5.0482921272993755    5.2604865400776424    2.3199709833936990
1    9.0862154212399151    5.3628077832227135    7.9453351968345265
1    0.1031302406324450    7.0704320363655739    5.4247285391217313
1   10.7190023816223476   10.9047398741608319    0.0513561311715278
1    7.2605451154984140    3.3842817035923169    5.0122251751480578
1    7.3521190243665533    7.1123106468531034    5.5005461598517771
1    1.6600609312180155    5.2558851612098936    2.7387889479544199
1   10.4990293682201550    3.4906054778303983    5.0596068574324313
1   10.8946485274201432    3.4534575325676626    0.1264885152223963
1    1.7995138323841799    5.2649948808754017    7.5398442964135652
1    9.0429801099843257    9.0483012788042902    8.2338059706048803
1    1.9280480473837407    1.8035596401419345    7.9851264295076012
1    7.1790564828740138    7.2474919143984762   10.5319111976344093
1    8.7146925553312879    8.8703956015675249    2.9358796205816788
1    5.2965069603109258    9.0059210224013118    2.5559635294993424
1    5.4690842027367195    9.1230052499744581    7.7602658261203539
1    0.0882723043582043   10.7171614657184389    5.0647531859386863
1    3.5866127430411980    3.5822405194586944    5.3015140785819765
1   10.6894407584991509    7.0137942838550362   10.2362565000904819
1    1.7703998238579206    9.0984854368688044    7.9252609163593375
1    7.3390632013910109    3.6466068756203374    0.0069660746742385
1    8.9795301240165450    5.4871733247341483    2.2544048312130225
1    3.7986718353965685    7.2585974591249860    4.8005961458323316
1    3.6937161311430038    0.0304317184111370   10.5767367461911004
1    7.2842629769474199   10.8116393565755029    5.1578917929578312
1    5.3986741839527221    1.5135921564646282    2.7527553989692963
1    5.4312173084696509    1.8870176838453723    7.8617551820990581
1    1.4670782556758828    9.1329635851957178    2.4200760869928790
1    3.5299434270314229   10.8000714846888837    5.1717930990216372
1    3.6346654650061327    3.7665497745885608   10.0514101451322073
1    7.2187087561568930   10.9288397305457892    0.1084319303217327
1    9.0604354357313550    1.8122122920485322    2.5246883058428518
1    5.3671858881511829    5.5630977870227811    7.8696879825260586
1    9.0956490551075095    1.7540948754937884    7.8719507874033212
2   10.4287056936082756    9.6831956114993840    1.8688088686735582
2    5.1503702512394387    7.2312519719188249    3.4382329714165905
2    0.2306341704562764    4.9820017158557883    4.2128569758233958
2   10.5761561265877226    1.5297868468771842    4.3891899776556711
2    1.7155771427595159   10.8427120400189541    3.6350455005472169
2    1.7204387300288813   10.8031033946546184    0.7283008132271466
2    1.8365294570484918    3.4889985531041461    0.9570804933978017
2    0.3193887439894385    1.7601577098428491    9.8696637816342729
2    1.8094366262454227   10.8718991328983279    8.9867503329272100
2    1.8260220916300860   11.0237727717834897    6.1432177947930269
2    0.0272746471781267    2.2933990505719195    7.3498728692796096
2    2.0337520786564252    3.3576158193627932    3.7053174044115837
2    1.3576393057477951    7.8355587156819277    0.6870188672311575
2    1.6486263288216445    7.0492467430001557    8.8707519575877942
2   10.7491645409459089    1.7166094742103912    1.7072900389527290
2    3.8906671741292342    5.3285135775704564    6.7520214589300664
2    3.6450749366693316    1.7506278131445150    6.7718247228736690
2    5.1612233102720078    3.7302361829153297    8.5195232476037042
2   11.0775892429558329    5.3388336073824769    1.5419955573062507
2    1.9532287862050239    7.0247093905369233    6.2844244780555032
2   10.7991737627014803    9.0964285083780112    7.0722294841265585
2    3.6916528994825120    1.5475303114376426    4.0368526828780542
2    5.5959681620361765   10.7349637552631396    3.8161892792354610
2    5.5256126559572261   11.0394305961245518    1.1888028726403570
2    3.5900021325568621    1.8754990921577457    1.3604516084793010
2    3.6145683442894212    1.8353988087066684    9.2839821341923194
2    5.4971738137703277    0.2132841965186143    9.4218806503255728
2   10.3703910769179863    9.0749283082148295    9.7740168135671883
2    3.4901151908717050    5.3491493843441997    4.2763584463082971
2    5.3352169288163571    3.4664771352373243    3.4884805339807521
2    5.1874702962129415    3.9449351432738622    0.7718962516867880
2    9.2025795935974557    6.8718914429304370    6.3525437690311382
2    3.7598606268825674    5.6802228947929230    9.2891132176160713
2    5.3193617561863205    3.1692943503980100    5.9619538807312997
2   10.8337418142109847    5.1959513319682671    9.5391809512158439
2    9.3803101585000146    0.1895108315466094    6.0395262125778855
2    1.7316655389830553    3.6377637249898669    6.2425063819499069
2    7.1998566816715428    2.0044903265597251    1.6524036920948844
2    8.9723944816138346    0.5124139665183266    1.0807462393054408
2    7.1371332266505965    8.7876886642870407    4.3999815441236372
2    7.0842288926216428    1.8032176550240195    3.9066200030723692
2    3.5052507783568232    8.8750375420107392    7.1511687025423445
2    9.0330151911548988    7.1964791536313868    9.0053587382488409
2    7.1422777611902779    2.4327161504311037    9.0097179519733199
2    7.0412374142041623    9.2850908872866427    9.4331300539369867
2    5.8333173583275642    7.4130595290534886    8.7648945724013725
2    8.8320073261169032    7.0019525285370525    3.6180810544186377
2    5.5113723950859805    7.4220119702724139    6.2383583098786328
2    7.2284795383502516    9.3227427059286523    1.5419791518324293
2    8.8115923717495139    7.2082199999290761    0.9649543412596411
2    7.1901518368405348    5.2317344580520313    9.5370823448057376
2    3.8104900597618050    9.0771760696632828    9.7741166402114281
2    9.0254832072536058    0.0392331571500795    9.0852923834089907
2    7.0562448903660977    5.7544107577827353    6.9444497142688011
2    5.3467928843937704   10.5363422772201130    6.4584220404755373
2   10.6327301226493134    4.8752688576360415    6.8944900368640036
2   10.6870988017208894    8.7607765556426678    4.5783902026151742
2    2.0300128207793549    7.3123712416419488    3.5509954740462892
2    3.5223256255716247    9.1263965440907722    4.2321438658451367
2    3.1122742782150157    5.5871202423757875    1.3089777626028303
2    5.4816440636467458    7.5808510188677110    0.7748303905999868
2    8.6772221573687371   10.7713812459070581    3.2911456757894664
2    9.4456409952758076    3.3976288166587389    8.9043128425269238
2    7.2419852754632572    5.2407833736478970    1.3204462354054547
2    9.1451951978075527    3.4377769984040936    1.2365329174608652
2    8.7051012254121183    3.9433586458496497    3.7855375729055480
2    6.9036804626295512    5.7297750179009945    4.2182712257590627
2    3.3652902583159667    9.3947069570396238    1.8909145262202005
2    8.5890766814167048    3.6078267123789645    6.3625426533323379
2    7.4260926469705941    1.5815159999095605    6.6500808133077003
2    1.8083150673168560    3.9341136974441255    9.0519391664838729
2    7.5789037225594873    9.4014751365335769    6.7966919489407758
