ITEM: TIMESTEP
0
ITEM: NUMBER OF ATOMS
12
ITEM: BOX BOUNDS xy xz yz pp pp pp
-8.8344296827430302e-01 5.1364755065543157e+00 0.0000000000000000e+00
0.0000000000000000e+00 5.1934133375444702e+00 -8.8344296827430302e-01
0.0000000000000000e+00 5.2461598045212767e+00 0.0000000000000000e+00
ITEM: ATOMS id type xs ys zs
1 1      0.27613554845712    0.4580647515194298    0.7079069544925712
2 1    0.7238639169901825     0.958064851882665    0.7920922626906507
3 1    0.7238641669461136    0.5419354453560091    0.2920925547634612
4 1    0.2761356994510259   0.04193534691828968     0.207907248471538
5 2     0.447997467554713    0.7425260978405572    0.9785775541140742
6 2    0.5520020146128084    0.2425259994028378    0.5214217602831137
7 2    0.5520021485586477    0.2574740990348816   0.02142195514195839
8 2    0.4479976018284001     0.757474199398117    0.4785777508790751
9 2   0.06836067340024651    0.3307589379766542    0.3462526224295524
10 2    0.9316391933247404    0.8307590364143737     0.153747182711603
11 2    0.9316389430409616    0.6692412608243006    0.6537468887326363
12 2   0.06836042311646771    0.1692411623865812    0.8462523284505857
ITEM: TIMESTEP
100
ITEM: NUMBER OF ATOMS
12
ITEM: BOX BOUNDS xy xz yz pp pp pp
-8.8344296827430302e-01 5.1364755065543157e+00 0.0000000000000000e+00
0.0000000000000000e+00 5.1934133375444702e+00 -8.8344296827430302e-01
0.0000000000000000e+00 5.2461598045212767e+00 0.0000000000000000e+00
ITEM: ATOMS id type xs ys zs
1 1    0.2722720504428559    0.4539851250719031    0.7150649634631618
2 1    0.7296675951255596    0.9572520956819817    0.7888813075930139
3 1    0.7255870376197001    0.5434296384213004    0.2972191759013711
4 1    0.2731680151068809    0.0465181289763014     0.199714725024999
5 2    0.4483338065527048    0.7322442046088329  0.006634831623961007
6 2    0.5275446892184449    0.2663552725600246    0.4612298706885091
7 2    0.5945769592866929    0.2610108279289317    0.9758981626945236
8 2    0.4236360666917862    0.7892010591102543    0.5095329903333254
9 2   0.03833858498177922    0.3093187186974239    0.3653904092912565
10 2    0.9376503880382229    0.8329107430377298    0.1587479860441738
11 2    0.9333626340709651    0.6442127521649911    0.6652263216818821
12 2   0.08879760437815695    0.1515315197591898    0.8475070595645171
ITEM: TIMESTEP
200
ITEM: NUMBER OF ATOMS
12
ITEM: BOX BOUNDS xy xz yz pp pp pp
-8.8344296827430302e-01 5.1364755065543157e+00 0.0000000000000000e+00
0.0000000000000000e+00 5.1934133375444702e+00 -8.8344296827430302e-01
0.0000000000000000e+00 5.2461598045212767e+00 0.0000000000000000e+00
ITEM: ATOMS id type xs ys zs
1 1    0.2700204073939785    0.4606925844056635    0.6801379731040518
2 1    0.7219235776201692    0.9498149916297002    0.8082576767726748
3 1    0.7218444854505127     0.556218492776102    0.3052416155385834
4 1    0.2833831018281947   0.03335719933549501    0.2099877778785884
5 2    0.4615578846979139    0.7696394700672288   0.02878940906935326
6 2    0.5492262760504669    0.2329726934306684    0.4703532275976591
7 2    0.5861410989746455    0.2951237205901746     0.943384435899762
8 2    0.4563267658045531    0.7703151321469918     0.525302019145955
9 2   0.03013549401455166    0.3174981836617335    0.3284117167781075
10 2    0.9423939633681478    0.8231326226154883    0.1575516872823764
11 2    0.9231978835972392    0.6445288107424939    0.6575603511837236
12 2   0.08256649578943709    0.1458656080345454     0.848192116025694
ITEM: TIMESTEP
300
ITEM: NUMBER OF ATOMS
12
ITEM: BOX BOUNDS xy xz yz pp pp pp
-8.8344296827430302e-01 5.1364755065543157e+00 0.0000000000000000e+00
0.0000000000000000e+00 5.1934133375444702e+00 -8.8344296827430302e-01
0.0000000000000000e+00 5.2461598045212767e+00 0.0000000000000000e+00
ITEM: ATOMS id type xs ys zs
1 1    0.2740375146717289    0.4457658869326338    0.7225991972696924
2 1    0.7250250735496336    0.9594482776952951    0.7914881136874899
3 1    0.7213254901784706    0.5365200942196876    0.2839734062507461
4 1    0.2746835370072864   0.06050607471952563    0.2040896184224777
5 2    0.4484795203063777    0.7015362779885738     1.007723364413518
6 2    0.5508759252113007    0.2489813957789611    0.4908546868048367
7 2    0.5687326111286533    0.2264431495304698   0.01601086448264656
8 2     0.455931086170806     0.762837240059289     0.471138190167484
9 2   0.07369740566001834    0.3296109572083269    0.3429104670503659
10 2    0.9310734866341519     0.830758425744628    0.1566580785671672
11 2    0.9622744131638546     0.693730169125103     0.646257489872785
12 2   0.06390920979246695    0.1811137088686367    0.8444441355719973
ITEM: TIMESTEP
400
ITEM: NUMBER OF ATOMS
12
ITEM: BOX BOUNDS xy xz yz pp pp pp
-8.8344296827430302e-01 5.1364755065543157e+00 0.0000000000000000e+00
0.0000000000000000e+00 5.1934133375444702e+00 -8.8344296827430302e-01
0.0000000000000000e+00 5.2461598045212767e+00 0.0000000000000000e+00
ITEM: ATOMS id type xs ys zs
1 1    0.2787753564012065    0.4703157586443416     0.695538411589356
2 1    0.7236586857946524    0.9642312162074841    0.7949606158434969
3 1    0.7320386687312697    0.5465626815111063    0.2998767568737503
4 1    0.2650288073249499   0.02728692761685389    0.2073710689915694
5 2     0.433606031496246    0.7390338463111831     0.996072104057806
6 2    0.5433814463935308     0.216750798552948    0.4955078154270654
7 2    0.5586262792698535     0.254844155136166    0.9868100930861324
8 2    0.4779150636770261    0.7386362745000538    0.4904193867402486
9 2   0.05758684367926299    0.3022796696435124    0.3604912284016759
10 2    0.9434446414929143    0.8279639430248189    0.1798825778443774
11 2    0.9243128853127416    0.6502029175179406    0.6601537889610296
12 2   0.06667904298227877    0.1766186060382233    0.8557869504217447
ITEM: TIMESTEP
500
ITEM: NUMBER OF ATOMS
12
ITEM: BOX BOUNDS xy xz yz pp pp pp
-8.8344296827430302e-01 5.1364755065543157e+00 0.0000000000000000e+00
0.0000000000000000e+00 5.1934133375444702e+00 -8.8344296827430302e-01
0.0000000000000000e+00 5.2461598045212767e+00 0.0000000000000000e+00
ITEM: ATOMS id type xs ys zs
1 1    0.2585561434536494    0.4520113867589051    0.6920367962790063
2 1    0.7317140348144993    0.9439033197826444    0.8061355068131459
3 1    0.7174379880320472    0.5529094955257694    0.2926284820804693
4 1     0.298624731440052   0.05716024522081865    0.2048005769330364
5 2     0.462294502064092    0.7406281432780841  -0.01142186272971048
6 2    0.5343235523300338    0.2556712430453979    0.4842618284450958
7 2    0.5692719230287502    0.2826982254384168     1.003198430079461
8 2    0.4210521055309859    0.7736243504774039    0.4927940873273775
9 2   0.01130976180871599    0.2872056185176683    0.3723385669403064
10 2    0.9613017806463363    0.8130568698444999    0.1636295090850917
11 2    0.8977576415684166    0.6366622239606352    0.6775179071055671
12 2   0.07202789620687368     0.143694110454397    0.8667412698583332
