ITEM: TIMESTEP
0
ITEM: NUMBER OF ATOMS
12
ITEM: BOX BOUNDS xy xz yz pp pp pp
-8.8344296827430302e-01 5.1364755065543157e+00 0.0000000000000000e+00
0.0000000000000000e+00 5.1934133375444702e+00 -8.8344296827430302e-01
0.0000000000000000e+00 5.2461598045212767e+00 0.0000000000000000e+00
ITEM: ATOMS id element x y z fx fy fz
   1 Hf    0.79296806000000031    2.37891959000000064    3.71379300999999984   -0.00316117092049728   -0.05048968876322890    0.01147394023988912
   2 Hf    3.01834094000000119    4.97562677999999980    4.15544258999999983    0.00315855768150364   -0.05049412969449041   -0.01143432257000848
   3 Hf    3.46006344999999982    2.81449477000000003    1.53236421999999983    0.00315344061745260    0.05049055796959226   -0.01147334004344859
   4 Hf    1.23469005999999992    0.21778759000000000    1.09071465000000023   -0.00315725461741190    0.05049331000345703    0.01143374974959910
   5  O    1.43661056000000009    3.85624494000000029    5.13377423000000022   -0.05755898715128249    0.06195063195179085    0.19018501205179009
   6  O    2.37469844000000174    1.25953776000000017    2.73546187999999990    0.05757023631858613    0.06195130469015113   -0.19017682994332102
   7  O    2.81642043999999991    1.33716941999999994    0.11238299999999998    0.05755962582691685   -0.06195050160703271   -0.19018486012508248
   8  O    1.87833256000000004    3.93387661000000044    2.51069536000000149   -0.05756955794739693   -0.06195195820378114    0.19017662882015646
   9  O    0.04523848000000007    1.71776788000000002    1.81649659000000008   -0.32809291482841418   -0.04836828580482244   -0.01913732814676983
  10  O    4.64951502999999988    4.31447506000000036    0.80658229000000026    0.32807666657107537   -0.04838007789065592    0.01910704453722516
  11  O    4.20779251999999993    3.47564649000000037    3.42966065000000020    0.32809598454161082    0.04836669677301967    0.01913820168389704
  12  O   -0.39648402999999999    0.87893931000000036    4.43957494999999991   -0.32807462609213767    0.04838214057600343   -0.01910789625392495
ITEM: TIMESTEP
100
ITEM: NUMBER OF ATOMS
12
ITEM: BOX BOUNDS xy xz yz pp pp pp
-8.8344296827430302e-01 5.1364755065543157e+00 0.0000000000000000e+00
0.0000000000000000e+00 5.1934133375444702e+00 -8.8344296827430302e-01
0.0000000000000000e+00 5.2461598045212767e+00 0.0000000000000000e+00
ITEM: ATOMS id element x y z fx fy fz
   1 Hf    0.76679960438819905    2.35773240359521585    3.75134506894191500    1.50066827978427408   -0.22868799414051555   -0.90813344688718711
   2 Hf    3.05098808629274343    4.97140580110719910    4.13859740643265450   -0.25592940552146948   -0.32157043258450357    0.25599114659288236
   3 Hf    3.46438385562054485    2.82225473219415068    1.55925929374671224   -0.27290907702656841    0.34826894340239090   -0.23015835451694305
   4 Hf    1.22668424928638120    0.24158787146313759    1.04773536279716928    0.26022070028475586   -0.00484406528039560    0.30315981076403692
   5  O    2.29699412077435650    3.80284681855515450    0.03480738697539086    0.27596900970159322    0.67006909608264709    0.34320272801806889
   6  O    2.30225008876552151    1.38329302503852447    2.41968560825060264   -0.16149927038191006   -0.26107172695170389    1.38560868386267355
   7  O    2.19187961855335178    1.35553711500963869    5.11971771443417456   -0.79736026569358365    0.08830060018890606   -0.02964692170284651
   8  O    1.72585294284161583    4.09864730638741648    2.67309149296422000    0.65219743762676519   -0.32754748828861235    0.76419691353296859
   9  O   -0.12587638504837001    1.60641995923536740    1.91689647818136777    0.74628411190609967   -0.64100489526791637   -0.96134422738486558
  10  O    4.67597345987105228    4.32564976187622108    0.83281730343364924    0.17355110632113460   -0.48090881695401655   -0.57335925334863580
  11  O    4.20650479243769215    3.34566309930989503    3.48988358971703061   -1.53559361822807316    1.35009107073000401    0.21508473434290837
  12  O   -0.29261743240600030    0.78696581577575975    4.44615746993538874   -0.58559900877301008   -0.19109429093628627   -0.56460181327305736
ITEM: TIMESTEP
200
ITEM: NUMBER OF ATOMS
12
ITEM: BOX BOUNDS xy xz yz pp pp pp
-8.8344296827430302e-01 5.1364755065543157e+00 0.0000000000000000e+00
0.0000000000000000e+00 5.1934133375444702e+00 -8.8344296827430302e-01
0.0000000000000000e+00 5.2461598045212767e+00 0.0000000000000000e+00
ITEM: ATOMS id element x y z fx fy fz
   1 Hf    0.78609009905387650    2.39256701236020453    3.56811249602705027   -0.26654361832604323   -1.68614221583667101    0.54937744366814056
   2 Hf    2.99409321295151898    4.93278184572937395    4.24024893558055727    1.20244361832316082    0.99191126742951008    0.10578030801087861
   3 Hf    3.43807296018561193    2.88867253897229093    1.60134629410565354   -0.07947449817565544   -1.27349343314738572   -1.35341050820415321
   4 Hf    1.27007813572152450    0.17323772393208933    1.10162943974739269   -0.86432790672557136    1.74524264839659349   -0.53333939795985819
   5  O    2.34534696860476322    3.99705588894780384    0.15103384065556139    0.17423724561777187   -0.61955379013531386   -0.60540201554186002
   6  O    2.40555706296298766    1.20992349334649218    2.46754819654968660   -0.38832913298531080    0.48676153403175570   -0.22035904459272698
   7  O    2.17727305199303078    1.53269946673876034    4.94914550782830975   -1.16617853770391688    0.12168736996401389    1.25560768942826328
   8  O    1.87983688050544728    4.00056488140451805    2.75581833807737508   -1.53413367148253421   -0.83005122106246143   -0.26081455914646834
   9  O   -0.13534279500285218    1.64889930167499044    1.72290034789513324    1.23764288172731707   -0.22989069468881862    1.54418246059435060
  10  O    4.70139558009576941    4.27486794085923538    0.82654132895530907    0.33470655848149650   -0.58320417142912584    0.07916854662397846
  11  O    4.16106624833075944    3.34730452214174345    3.44966668342694538    0.71053933090211274    0.91087419403372327    0.59831180628099478
  12  O   -0.32522857736413752    0.75754039425564190    4.44975138560584327    0.63941773034717020    0.96585851244417231   -1.15910272916154322
ITEM: TIMESTEP
300
ITEM: NUMBER OF ATOMS
12
ITEM: BOX BOUNDS xy xz yz pp pp pp
-8.8344296827430302e-01 5.1364755065543157e+00 0.0000000000000000e+00
0.0000000000000000e+00 5.1934133375444702e+00 -8.8344296827430302e-01
0.0000000000000000e+00 5.2461598045212767e+00 0.0000000000000000e+00
ITEM: ATOMS id element x y z fx fy fz
   1 Hf    0.76921180227978903    2.31504650261828049    3.79087086349560076    1.38004858491158489    1.81038289757708082   -1.97752421299560499
   2 Hf    3.02483892341552929    4.98281148206681568    4.15227312778367619    0.10521041832056677   -1.01059973219790278   -0.32042588619258150
   3 Hf    3.45419640362587677    2.78637061318114121    1.48976986942565515    0.46943731636760433    0.31902488408583018    1.11660372337155245
   4 Hf    1.23060372159850906    0.31423305545084668    1.07068675268808744    0.08674402224599387   -2.25414631146832045    0.06344897990666554
   5  O    2.29678091926239558    3.64336786287716397    0.04051800394186793   -0.81330998004159838    0.69757767418307381   -1.13811690805927457
   6  O    2.39591857549607479    1.29306330163889505    2.57510212777641501    0.50367211832253023   -0.12895836266747140    1.37693068812660724
   7  O    2.90713644119782089    1.17601287296711865    0.08399555368449774   -0.40374597764310388    0.16218892165146465   -0.80629943247104785
   8  O    1.92565513560410495    3.96172909689952446    2.47166623563155596    0.56032952180173723    0.30724735161882794    1.36869174934676230
   9  O    0.07560307820597881    1.71180594136652453    1.79896310878924703   -1.07736260895521374    1.15645292673562583    0.39315549716061116
  10  O    4.64403768096492175    4.31447188853959851    0.82185331483260871    0.77831639813487574    0.78016917360173377   -0.80518367740330388
  11  O    4.37176731867735402    3.60282751299129078    3.39037006674142116   -0.14547372718216950   -0.92761313947680046    0.23032624099476240
  12  O   -0.41775014292930551    0.94059835125052405    4.43008888120152733   -1.44386608628281010   -0.91172628364314834    0.49839323821486059
ITEM: TIMESTEP
400
ITEM: NUMBER OF ATOMS
12
ITEM: BOX BOUNDS xy xz yz pp pp pp
-8.8344296827430302e-01 5.1364755065543157e+00 0.0000000000000000e+00
0.0000000000000000e+00 5.1934133375444702e+00 -8.8344296827430302e-01
0.0000000000000000e+00 5.2461598045212767e+00 0.0000000000000000e+00
ITEM: ATOMS id element x y z fx fy fz
   1 Hf    0.81745427110245239    2.44254413380086977    3.64890565738065531   -0.04767435312275836   -1.83199532165566348    0.83410232029816367
   2 Hf    3.01475274856757069    5.00765125872867323    4.17049042901563372    0.24935653771107680   -0.22590641343434112    0.02182863183682335
   3 Hf    3.49517467957977779    2.83852591996385017    1.57320138822126832   -0.25498742630411275   -2.01573719696084108   -1.03142757228971660
   4 Hf    1.17811346463178057    0.14171229382597952    1.08790176676418016    2.05429418873438774    1.51546420564764306   -0.39844968070125852
   5  O    1.34723386405062806    3.83810823432928849    5.22555343471299594    0.93114685949759890    0.20887012836801583    0.12288687426123726
   6  O    2.35331259485242583    1.12567648812829479    2.59951318411961818    0.27729125117606906    0.01635320224589951    0.14929945153702931
   7  O    1.99757976302811935    1.32351103427941652    5.17696344504436734    0.09065555687643040    0.69416887475012146    0.06475446418035249
   8  O    2.02154146006932178    3.83604347958273761    2.57281847407466691   -1.31333678909709950    0.65664232412950918    0.27393486686765400
   9  O   -0.02268002879771978    1.56986326799515341    1.89119459232337128   -0.83485945058030264    1.61857050160723137    0.13016056557931477
  10  O    4.68706429430660165    4.29995898471100446    0.94369274942084236   -1.43817151965256418   -0.57685063821442217   -1.08225515399494054
  11  O    4.16450227296418607    3.37677250394799966    3.46327227244977509    0.88009726856996140    0.55967551727499820    0.97166997553933077
  12  O   -0.41354369261204282    0.91725342425742118    4.48959510053639921   -0.59381212380869153   -0.61925518375814681   -0.05650474311398845
ITEM: TIMESTEP
500
ITEM: NUMBER OF ATOMS
12
ITEM: BOX BOUNDS xy xz yz pp pp pp
-8.8344296827430302e-01 5.1364755065543157e+00 0.0000000000000000e+00
0.0000000000000000e+00 5.1934133375444702e+00 -8.8344296827430302e-01
0.0000000000000000e+00 5.2461598045212767e+00 0.0000000000000000e+00
ITEM: ATOMS id element x y z fx fy fz
   1 Hf    0.71669225645904977    2.34748196471566972    3.63053562388860218    0.05544242034600755   -0.41323295200762011    0.76643842474982815
   2 Hf    3.04625647265639188    4.90208009031168856    4.22911569284051403   -0.48946778438904437    0.82505975043422008   -0.26140755316652264
   3 Hf    3.42658207818744609    2.87148754851851518    1.53517578034863278   -0.05120405912983850   -0.49048610766927891    0.44877203438014979
   4 Hf    1.35294898910317629    0.29685677990711218    1.07441655464886310   -1.95600649783479441   -1.51149238092093086    0.14222018659303845
   5  O    1.50121198270578615    3.84638807746119893    5.18623888737590999   -0.21379820858800813    0.91869714640912337    0.29841256787274784
   6  O    2.31672213197483501    1.32780644365854328    2.54051493925263960   -0.50759857263229202    0.45700550659363109    0.90508981534088395
   7  O    2.92122565864303230    1.46816873449202712    0.01677947532043992   -0.36927151866011182   -0.70482102533407587   -1.25394115632049830
   8  O    1.72736835578650760    4.01775102001852691    2.58527653284263570    0.03500280960307078   -0.06498868713361625    1.08999989049476254
   9  O   -0.27084757426531147    1.49157748982736749    1.95334762355529024    2.21832172420336837    0.14881488159863476   -0.36626849046864829
  10  O    4.79314571149355562    4.22254039203258369    0.85842655339575724   -0.04893951324155828   -0.41327625289528863   -0.20746348456816791
  11  O    4.01276170582580427    3.30645008542788732    3.55436721110060727    1.02635589753654388   -0.60674784715953312   -0.03403459065199749
  12  O   -0.39574695551424155    0.74626290976045373    4.54706321085051623    0.30116330278665426    1.85546796808473502   -1.52781764425557998
