108
 Atoms. Timestep: 0
1    1.9498426099999999    1.6123894800000000    2.2463115000000000
1    3.2310994800000001    7.2917578000000001   10.6101818899999998
1    5.0867491899999999    5.3743590899999996    2.2430686899999999
1    8.9265713699999996    5.1206595400000001    7.8247845199999997
1    0.2592721000000000    7.0133755899999999    5.3305418199999997
1   10.7365987599999997   10.8800927800000000   10.6153213300000004
1    7.1881782400000001    3.5480399000000000    5.1419050200000003
1    7.2680072800000000    7.1069656900000000    5.4505338700000001
1    1.6494264599999999    5.2833683000000002    2.6433772400000000
1   10.7283949100000005    3.2646578100000001    5.3122076399999996
1   10.8235741700000005    3.6351975099999998    0.1936622900000000
1    1.9354248400000000    5.1519876800000004    7.7933675300000003
1    8.9461627799999999    9.0473408899999992    8.0078490599999999
1    1.7098071600000000    1.6894044600000000    7.9303547200000004
1    7.3893707199999996    7.2870110099999996   10.4758578999999994
1    8.7307771299999999    9.0393448700000008    2.9513383800000002
1    5.0789946400000003    8.9861253300000001    2.4193840299999998
1    5.4426058800000003    9.3071524599999993    7.9839223300000004
1   10.9507573300000001   10.7516530699999997    5.3004673799999997
1    3.5276752199999999    3.4735595899999998    5.1816768299999998
1   10.9538038699999998    7.2940740100000001   10.3258917399999994
1    1.6456279000000000    9.0987234299999997    7.9318484199999997
1    7.2406413799999996    3.7825271200000001    0.0748470800000000
1    8.9499556299999998    5.4080370699999998    2.6872656600000000
1    3.8236803699999999    6.9904107199999999    4.8131646100000003
1    3.7737331799999998    0.0466739800000000    0.0220746300000000
1    7.1999626299999999    0.0728454600000000    5.2426781499999997
1    5.6696258100000003    1.6242438699999999    2.6256736900000002
1    5.3494679300000003    1.7250430200000000    7.5813982700000002
1    1.4256022800000001    8.9866387299999992    2.5796010100000002
1    3.3299887699999999   10.9341262399999994    5.2506655200000001
1    3.7357748000000002    3.6106027200000002   10.2165931000000008
1    7.1817182600000002   10.9535638199999994   10.5472857399999995
1    9.0363334999999996    1.7914524800000000    2.5222215200000000
1    5.4428051599999998    5.4758693899999997    7.8838400899999996
1    9.0497654500000007    1.7001676400000001    7.7713846300000000
2   10.5057749000000005    9.5845480799999994    1.6476423200000001
2    5.0698647899999996    7.1086391100000004    3.3652439699999999
2   10.8249983400000005    5.5721666000000001    4.0577155600000001
2   10.5201266100000002    1.7316611000000000    4.2294791399999996
2    1.7629813400000001   10.8695582599999998    3.8848047999999999
2    1.7024185500000000    0.0846790300000000    1.1687234900000001
2    2.1226030599999999    3.9810609000000001    0.6740873500000000
2    0.4495063800000000    1.9355864400000000    9.7257516200000005
2    1.7441040500000000   10.8285213500000008    8.9739178099999997
2    1.7574875700000001   10.4756398799999992    6.2722654799999997
2   10.9542293999999991    1.8100072300000001    6.7498245399999997
2    1.8843236500000000    3.3871044800000001    3.3237903400000000
2    1.4719650000000000    7.5332583900000003    0.9597057000000000
2    1.8063053099999999    7.1928590899999998    8.9430213199999997
2   10.7286291499999997    2.2867134199999999    1.6239633499999999
2    3.7478391100000001    5.1082562500000002    6.4553532999999996
2    3.5104206200000001    1.6528777100000001    6.7340960599999997
2    5.3909712299999999    3.5057395499999999    8.6978579099999997
2   10.8328709900000000    5.2844045199999998    1.4801322500000000
2    2.3622152700000001    7.5195828899999997    5.9504287099999997
2   10.8529835800000001    8.6150234799999996    6.8946615600000003
2    3.8762220599999999    1.6630748900000001    4.1044106700000000
2    5.8673867599999996   10.6716270499999997    3.3763120500000001
2    5.5116577099999997   10.6540145099999997    0.7522161400000000
2    3.9002888900000001    1.6740566400000001    1.6405635100000000
2    3.6148129999999998    1.6211643600000001    9.5406527899999993
2    5.7888704700000000    0.0107577000000000    8.8401978700000008
2   10.8968633500000003    9.1563911000000004    9.6441568300000000
2    3.4844188500000000    5.0834485799999998    3.7930377300000000
2    5.5925345699999998    3.3697822799999999    3.3712241600000001
2    5.3253816100000000    4.1550901700000002    0.5425526300000000
2    8.9840330700000006    7.0992439000000003    6.2406166699999996
2    3.5141731500000000    5.4887050000000004    9.1911944400000003
2    5.3005107200000001    3.7454195800000001    6.0235617599999998
2   10.9428808499999999    5.4587485600000001    9.1918897899999994
2    9.1598810299999993    0.0837115100000000    6.4382472000000002
2    1.7347139899999999    3.5966836700000000    6.2946254899999996
2    6.6201868800000003    1.9379128400000001    0.9569061200000000
2    9.0192770899999992    0.7570895100000000    0.8552598300000001
2    7.3258765400000003    8.7171040400000006    4.3839670799999997
2    7.5008020100000001    1.9078092600000001    3.9086825300000001
2    3.5114363499999999    9.5687969699999993    7.2567654399999997
2    8.9451281999999992    7.2605082200000002    9.0573037999999997
2    7.3484578400000000    1.7218183400000000    9.3133880799999993
2    7.7142563300000004    9.0940986899999992    9.6450297799999998
2    5.8448564000000003    7.2782907999999997    8.6964975100000004
2    9.0571913199999994    7.2096918800000003    3.6427283600000000
2    5.1491348400000003    7.4112087700000000    6.1715991800000003
2    7.3006592200000000    8.9426611299999994    1.4384127900000001
2    9.0891076799999997    7.3007725099999998    0.6677890300000000
2    7.6362253999999998    5.2474180500000003    9.4663071900000002
2    4.0345408599999999    8.9785132099999991    9.6397276099999996
2    9.3238728500000008   10.8999822999999996    9.0311523099999995
2    7.2296911899999996    5.1815925399999996    6.8325191099999998
2    5.4810941900000003    0.4163562700000000    5.9070828000000004
2    0.4158410100000000    5.6138053200000000    6.4924396900000003
2   10.8613636099999997    9.2070802399999998    4.0367162700000003
2    1.5810151100000001    7.3236430500000003    3.4513526899999998
2    3.9574907100000001    9.0638144399999998    4.2112619899999997
2    3.2360449099999999    5.9970761100000001    1.5488692500000001
2    5.2545450400000000    7.1741711099999996    0.8439352700000000
2    9.1459865199999992   10.8676504900000008    3.5999253800000002
2    9.1962395000000008    3.3834953600000000    9.0509243799999997
2    7.1961840099999996    5.9043847300000003    1.6130177100000000
2    8.7533348699999998    3.6848508700000000    1.3186781700000001
2    9.0494758799999993    3.5659999700000000    3.5588294199999999
2    7.1367621699999999    5.2613336000000004    4.5414043599999996
2    3.2418811700000001    9.3051311900000009    1.6329740900000000
2    9.1155543699999999    3.4867889600000002    6.2457008399999996
2    7.2934387799999998    1.7093592799999999    6.7606757899999996
2    2.1277929200000001    3.5278868900000000    8.7864617900000006
2    6.9259656700000001    9.2839186199999997    6.8249149100000004
108
 Atoms. Timestep: 1
1    1.9482895155402795    1.6100315726599428    2.2468325614763192
1    3.2336481620001112    7.2894671373112327   10.6098322947809010
1    5.0829415622721088    5.3709381388402173    2.2445346184425037
1    8.9273134778884966    5.1255251413780671    7.8235536235364354
1    0.2572559933126409    7.0108932243141426    5.3344739407796826
1   10.7342267925441650   10.8802124360335917   10.6175576936820608
1    7.1909969860472129    3.5434854517561467    5.1391484012391579
1    7.2713087398421470    7.1077275114751552    5.4546206479775527
1    1.6513342387849907    5.2850612640907322    2.6468830645453378
1   10.7185911564002421    3.2687970336261980    5.3067316938195725
1   10.8241954562489653    3.6302569858739941    0.1945554933536841
1    1.9331560457948986    5.1504885815935690    7.7887044691369622
1    8.9459632518938772    9.0446269530112886    8.0145528742402004
1    1.7160008179107233    1.6919733079801436    7.9316860939811198
1    7.3869416734675983    7.2866635210519748   10.4757732616007644
1    8.7276494135969429    9.0354232410611388    2.9533232224591019
1    5.0801238790232253    8.9846161895935985    2.4224097048164812
1    5.4447495194034472    9.3069172943582377    7.9788679471223096
1   10.9556383932926522   10.7487152482536406    5.2971394223409227
1    3.5296122001181960    3.4778695328746370    5.1864530604764409
1   10.9492425987447550    7.2905578393189003   10.3229239859803705
1    1.6470844997011755    9.0989991663727299    7.9326234199564150
1    7.2411597977917213    3.7815830277732014    0.0766191743375073
1    8.9490485889751952    5.4077727008249354    2.6790268492118212
1    3.8251221594937990    6.9950537435093105    4.8093269660366964
1    3.7741661778100921    0.0488383433057057    0.0217149366853071
1    7.2012542296256621    0.0713288674727529    5.2418619365693466
1    5.6668382412061318    1.6229777736457729    2.6290933804387806
1    5.3508928250734531    1.7285746468930479    7.5873005842215235
1    1.4274773992374712    8.9889240121110756    2.5779191624880289
1    3.3315594784214251   10.9310927577310952    5.2486220922208222
1    3.7368534395143955    3.6149417140565951   10.2126551319574883
1    7.1819936963024276   10.9512905969861780   10.5529075669509460
1    9.0356541375606092    1.7924818524052648    2.5207452528031267
1    5.4422749134795048    5.4763741030243818    7.8851081233374520
1    9.0512076965825816    1.7009440375096438    7.7719070438642941
2   10.5063602527873776    9.5734326747879344    1.6673776642946405
2    5.0647320600173948    7.1024354843954152    3.3518276191538949
2   10.8377654032302075    5.5945023868751260    4.0525647195677008
2   10.5234555157531151    1.7407176788375978    4.2131329818379237
2    1.7519816489975746   10.8601232256120497    3.8703934005034237
2    1.7045065822488721    0.0777050096285388    1.1665452833453243
2    2.1111377694941051    3.9654989655462436    0.7011345624302795
2    0.4493368370160009    1.9349056662922464    9.7316348869096672
2    1.7444751315115063   10.8480936608927987    8.9590413912483360
2    1.7613897993636423   10.4857680265225497    6.2726275121151636
2   10.9450453839403767    1.8123842257554732    6.7539027560302740
2    1.8881389153361756    3.3860573211092824    3.3245357277147751
2    1.4924582987857495    7.5217785400172437    0.9555438520656053
2    1.7917811226261073    7.1859993393619410    8.9275162352489783
2   10.7261047514695935    2.2894062384945055    1.6337660086790402
2    3.7355312758203585    5.1060371086482226    6.4563869085662544
2    3.4984006343841001    1.6554325266035990    6.7330847360456971
2    5.3833358912286480    3.5296873755626770    8.7002971501651860
2   10.8219265528639745    5.2938209622523944    1.4745533582829760
2    2.3631078594777901    7.5065643526485237    5.9558874185456450
2   10.8569386116261537    8.6165126203494040    6.9110013235442924
2    3.8921460565388459    1.6584014612577731    4.0939905851448417
2    5.8591567741451414   10.6888607613302131    3.3756732064168151
2    5.5208683628873061   10.6676179121438697    0.7707861317893387
2    3.8967211293929145    1.6657212138676256    1.6375641832240841
2    3.6057511470358707    1.6232127518865269    9.5260652824481333
2    5.7736687140580587    0.0031949857982618    8.8321871030979633
2   10.8812731770872855    9.1602831870051666    9.6545730877989033
2    3.4814492272586928    5.0845900695191828    3.7767263971589515
2    5.5852437802201162    3.3576115941130196    3.3616563782403941
2    5.3404344322282080    4.1489395222262644    0.5346489104814249
2    8.9751802462465129    7.1053097430291974    6.2258359625098629
2    3.5217075066688523    5.4977994425998871    9.1937544920975220
2    5.3110357351004387    3.7341878516326896    6.0249689920053662
2   10.9331860705212556    5.4552452951002497    9.2026164403483630
2    9.1892450796672414    0.0961186120272934    6.4357332768143847
2    1.7500847391359879    3.5881161860928787    6.2937436354727980
2    6.6263017381117360    1.9468922295676014    0.9642643564898803
2    9.0253229295401649    0.7670155757445110    0.8387640688962539
2    7.3268346322458067    8.7122017274469155    4.3789725121908125
2    7.5051546949328864    1.9037640664558211    3.8917777673565888
2    3.5188551420659344    9.5583692517427394    7.2655773868420477
2    8.9418612427387281    7.2652922957537571    9.0581910182851253
2    7.3606115920796515    1.7445802811085003    9.3175325975491976
2    7.7064576825412132    9.0934465299813141    9.6479332279876768
2    5.8361800338844398    7.2578933965864758    8.6973034663928548
2    9.0601415523472575    7.2154869450076067    3.6411601552597062
2    5.1356078440175281    7.4240937108729046    6.1707933672583533
2    7.3076345205706801    8.9419289837786220    1.4269687543361855
2    9.0905527908858677    7.3084441204514503    0.6661552495864161
2    7.6306912322733860    5.2618822695864704    9.4661529996686173
2    4.0403796594321628    8.9763591701036844    9.6500804258418302
2    9.3180110881652194   10.9023849687882848    9.0240285999606584
2    7.2318797883879640    5.1886330336216453    6.8275458216324010
2    5.4713261372750104    0.3955165314012971    5.9131745270717113
2    0.4231635471162737    5.6156293193258051    6.4889015407258519
2   10.8531571069376334    9.2135069086680836    4.0389872809415417
2    1.5631996323072512    7.3168428085067587    3.4465970686735785
2    3.9587483745032328    9.0695543121640814    4.2149459329422614
2    3.2365270277223588    5.9995013664722565    1.5528258373746597
2    5.2536587502233809    7.1750409327103899    0.8456660933275291
2    9.1343105990285025   10.8858283556048736    3.6154768972802325
2    9.2187132231143494    3.3818638166837949    9.0740907948513296
2    7.1859391696094432    5.9073558628533149    1.6004827193637456
2    8.7636820609092894    3.6849927996942906    1.3141336654650695
2    9.0515471090190758    3.5618988807391463    3.5635910332892951
2    7.1192763706303932    5.2556333167122418    4.5449742584133039
2    3.2555689146796669    9.3155718933342566    1.6382616731654303
2    9.1150244151865518    3.4847968074926046    6.2536120151329762
2    7.2844776472105606    1.6902933534008071    6.7386312238820469
2    2.1189591768953902    3.5344919407670168    8.7718867506956819
2    6.9286271829314661    9.3022080056069338    6.8236949900005479
108
 Atoms. Timestep: 2
1    1.9467490730185575    1.6077981767278755    2.2475431047983556
1    3.2363397540338679    7.2871883862131588   10.6093947546734171
1    5.0791872325101854    5.3675798328640978    2.2459892941640489
1    8.9281753164684652    5.1304806505247740    7.8224976290160324
1    0.2552149635473160    7.0086949301196233    5.3383078683761864
1   10.7318687001944113   10.8804217294139391   10.6198333754162384
1    7.1937750449098212    3.5387997639199322    5.1364068067733326
1    7.2744908468363567    7.1084769617290275    5.4586647075886070
1    1.6531945209719985    5.2867566882100316    2.6503459242586294
1   10.7089956037119620    3.2730596139414150    5.3011007042587321
1   10.8248255460266201    3.6253509599592477    0.1953332022982756
1    1.9309054724325079    5.1491346348073552    7.7840005405403376
1    8.9458005716732512    9.0418986719339323    8.0212621866721552
1    1.7221956959764668    1.6945734242145472    7.9331243472754052
1    7.3843914969365398    7.2862967138092882   10.4757499671833543
1    8.7245940954740231    9.0314719546865589    2.9551627029441785
1    5.0813474491296162    8.9830796309286853    2.4254562862877083
1    5.4466255308348543    9.3064072006039726    7.9738527531897843
1   10.9604458174125874   10.7458095068678681    5.2936824807193270
1    3.5315226707331475    3.4821655089294516    5.1911564146721760
1   10.9444980670497998    7.2869035485669782   10.3199145340381389
1    1.6486363068446226    9.0992318621290487    7.9333575091398361
1    7.2417284954954768    3.7804691443292073    0.0782943578587435
1    8.9481965565031398    5.4075585472296464    2.6707487360917783
1    3.8264588216475217    6.9997223863132270    4.8056335466169937
1    3.7744597042075432    0.0508760604733601    0.0213402616307190
1    7.2026493888417988    0.0697117651565764    5.2409660477076718
1    5.6639736019707110    1.6216245657460764    2.6325479055978036
1    5.3524106950439281    1.7321385575112040    7.5932830928551276
1    1.4292478699657682    8.9913755839021956    2.5762013424347674
1    3.3333192912028364   10.9279719048435791    5.2465047326850884
1    3.7377963119548920    3.6192465420865516   10.2086201179179987
1    7.1824797711961512   10.9491153038453088   10.5584081842535067
1    9.0350212090818083    1.7935089494877199    2.5193664598310490
1    5.4416447992572889    5.4768867170224285    7.8863113510746006
1    9.0525854019328715    1.7016984843140102    7.7726073408925247
2   10.5075472941709087    9.5621874733075032    1.6863798432312065
2    5.0613608251353863    7.0962082429701168    3.3372206367725519
2   10.8507169260637415    5.6148204529741248    4.0467926555656613
2   10.5275732340536567    1.7486339407304363    4.1968940376207327
2    1.7411944107045056   10.8515721342745337    3.8550668573194136
2    1.7061858585875220    0.0702923990725638    1.1627071165927785
2    2.0986246954107193    3.9490842212221553    0.7287077573495786
2    0.4489024836281483    1.9336588347560104    9.7373093127158921
2    1.7446499252599730   10.8676003136701294    8.9441353659629179
2    1.7629121384302888   10.4966926167264312    6.2737032683941942
2   10.9364731851186345    1.8142736189658684    6.7588624964467279
2    1.8912383962184174    3.3847307106425450    3.3259400722914760
2    1.5125039270791807    7.5109688859479276    0.9513424808333132
2    1.7772300166663004    7.1801331240850983    8.9120634383188779
2   10.7261701229893145    2.2918278970991079    1.6437675955314874
2    3.7221561432712047    5.1054339634851269    6.4588197462854300
2    3.4856809753380995    1.6580625772985420    6.7322779334660785
2    5.3754690890261125    3.5539176217855366    8.7025225792014584
2   10.8110096651537724    5.3032160645937472    1.4689775941698033
2    2.3616533436510982    7.4936110318845097    5.9621871677481355
2   10.8608943466798564    8.6189095867294618    6.9275954366465324
2    3.9072578905397055    1.6535018198602958    4.0841367259560064
2    5.8514963067126988   10.7062406042856288    3.3752330644382487
2    5.5287319915044062   10.6806026775962568    0.7905677517178603
2    3.8919429232354705    1.6570409997711888    1.6331985561640401
2    3.5971725254353690    1.6258070375513309    9.5109857674153737
2    5.7579452996899132   -0.0029946319357234    8.8244715058846612
2   10.8659535215914715    9.1633387872433403    9.6640937625184264
2    3.4790070439566669    5.0860669243853120    3.7611610259344612
2    5.5779659905604682    3.3480225806998836    3.3522516683605126
2    5.3555010846693998    4.1436914150166420    0.5280143555057061
2    8.9673844086316610    7.1110186687542383    6.2122891656547194
2    3.5304486367408305    5.5071085531648105    9.1968567033905657
2    5.3233533421777972    3.7207229558238590    6.0264286322929328
2   10.9234333146644111    5.4512575415243107    9.2136038749240576
2    9.2182111834963152    0.1072209704987553    6.4325448621625965
2    1.7651594768774572    3.5787156741247736    6.2921184208845098
2    6.6330735505958200    1.9556992257312062    0.9721383428870284
2    9.0305867258119186    0.7756300284259845    0.8214927401771682
2    7.3273593067283667    8.7091125616059202    4.3738078546719983
2    7.5080185270686552    1.8981476648173803    3.8759444139174888
2    3.5278469287628900    9.5481207704577518    7.2741198440518309
2    8.9395207534476580    7.2698040129032790    9.0564356368626004
2    7.3729547523025865    1.7675562421638600    9.3215206076712551
2    7.6975313398372229    9.0944884150550287    9.6501322797046125
2    5.8278968297539109    7.2372746307984732    8.6981265545469775
2    9.0629646513332780    7.2204860193157847    3.6393142046927616
2    5.1238721667738725    7.4360560670293054    6.1702687845863728
2    7.3142677734673107    8.9417229685648589    1.4164960562098912
2    9.0943303049811792    7.3156290650851119    0.6661738410849991
2    7.6244183302338016    5.2768024056255323    9.4655887627090625
2    4.0454635969038613    8.9748229162261932    9.6613997293144127
2    9.3122582522460569   10.9050592214454625    9.0160581510820030
2    7.2335920209710141    5.1958410722527892    6.8235915940035667
2    5.4601968199093873    0.3743398485096134    5.9198746514230516
2    0.4297303241171950    5.6157611857396601    6.4872864096275977
2   10.8448961108162223    9.2191052424933329    4.0425773774833109
2    1.5461491827440916    7.3084685474340798    3.4427436167679177
2    3.9594975998927717    9.0760695701286451    4.2187076132826311
2    3.2375800698338812    6.0014081825021020    1.5568240345987272
2    5.2521992602417633    7.1764568917440279    0.8471288701607191
2    9.1213070323181675   10.9040492188667688    3.6314471800467771
2    9.2416265150463861    3.3808510606797499    9.0965290226774709
2    7.1756345087518021    5.9087513720257103    1.5884632051830125
2    8.7740539671775863    3.6852701496732458    1.3083806966048324
2    9.0539227180361284    3.5595163283616627    3.5700187766211324
2    7.1021663663414829    5.2527412010417569    4.5462300653023933
2    3.2703584608933469    9.3255818667004799    1.6431241123110614
2    9.1129260807090144    3.4835890846013249    6.2630194032189319
2    7.2753153124588898    1.6717925264150471    6.7158932303998657
2    2.1100988232186930    3.5399760800090192    8.7571311224585866
2    6.9342673651077220    9.3206719798039703    6.8216293722812651
108
 Atoms. Timestep: 3
1    1.9452172000659362    1.6056915850330074    2.2484379016385683
1    3.2391830275864621    7.2849169584513920   10.6088617827487770
1    5.0754870726840640    5.3642778669540485    2.2474259117348350
1    8.9291533345028817    5.1355191085681238    7.8216288859569296
1    0.2531530628645127    7.0067974788524001    5.3420409715895962
1   10.7295269907415953   10.8807272167167799   10.6221485295287685
1    7.1965156064787807    3.5339821453576228    5.1336733987978445
1    7.2775292359436712    7.1092105703917889    5.4626536300634498
1    1.6550013875870482    5.2884499521364923    2.6537591613409579
1   10.6996173387079079    3.2774299113844156    5.2953176492037946
1   10.8254602848444268    3.6204820745264095    0.1959963917170418
1    1.9286798617590630    5.1479403858466233    7.7792518883387949
1    8.9456776410476966    9.0391661036762621    8.0279741745840862
1    1.7283818586102562    1.6972064867518457    7.9346560022205797
1    7.3817215768085989    7.2859064725797609   10.4757914919339257
1    8.7216198256355248    9.0275094912775007    2.9568572083196463
1    5.0826695462787548    8.9815223065344636    2.4285211896441679
1    5.4482339277957923    9.3056078140665903    7.9688726007959483
1   10.9651763870816001   10.7429450683984573    5.2900996561336511
1    3.5334077241013766    3.4864407868532719    5.1957794338501664
1   10.9395828638072636    7.2831093706501600   10.3168756168144427
1    1.6502866547965536    9.0994267881794570    7.9340514721894024
1    7.2423647633233186    3.7791904924474546    0.0798636281563476
1    8.9474017470810630    5.4073980100567454    2.6624280655459835
1    3.8276879617836532    7.0044185773955778    4.8020825028371430
1    3.7746263165462337    0.0527899805638027    0.0209546805030867
1    7.2041388887300624    0.0679975792863121    5.2399911787638098
1    5.6610324261455265    1.6201760903475806    2.6360215995797582
1    5.3540103837042325    1.7357307687992412    7.5993304579937968
1    1.4309138494967362    8.9939841563378415    2.5744513513884231
1    3.3352696274539593   10.9247726019564357    5.2443100886772474
1    3.7385974032624039    3.6235235519820486   10.2045005207646575
1    7.1831742518389525   10.9470400950725377   10.5637859872732047
1    9.0344341468616776    1.7945288162719966    2.5180764113821419
1    5.4409142762124008    5.4774053516038999    7.8874458008439090
1    9.0538983951280265    1.7024317495895407    7.7734820967174247
2   10.5093436050683273    9.5508941575712747    1.7045390309755499
2    5.0596828793240682    7.0900439482671977    3.3215940218713262
2   10.8637169085936467    5.6329196622868825    4.0403576691602945
2   10.5325155740452292    1.7554466611818438    4.1808796112019335
2    1.7307389911079913   10.8439270275524073    3.8389196064739508
2    1.7074341063995555    0.0624794694602842    1.1572110741111399
2    2.0852721622302850    3.9318236744729003    0.7565759611193058
2    0.4482262895303640    1.9318134054956333    9.7428068923402726
2    1.7446058852602437   10.8867830224257691    8.9292784560819154
2    1.7621492838384960   10.5083307436170603    6.2755007613385114
2   10.9286108187342172    1.8158119807907100    6.7646477673142833
2    1.8936261269177519    3.3831022599686897    3.3280501502396991
2    1.5318402425405098    7.5009270116716129    0.9470580537333979
2    1.7626944264066693    7.1752869106296400    8.8967213198236408
2   10.7288679898438382    2.2939592509418740    1.6539263597951868
2    3.7079002653120097    5.1063643176704181    6.4625761116625338
2    3.4725117896039599    1.6607479664611648    6.7316691592907505
2    5.3673802818385710    3.5781955228697373    8.7045211536975540
2   10.8001566699087785    5.3125829375382656    1.4634547770951458
2    2.3578908861387582    7.4807486927780200    5.9692471727473588
2   10.8648008562545346    8.6221657981897515    6.9443789963110136
2    3.9214464189621885    1.6483635685710283    4.0749596499781395
2    5.8444561275952651   10.7235004846862676    3.3750829650650638
2    5.5351384705009368   10.6929839860170866    0.8114071001774319
2    3.8859669304012026    1.6480311171328541    1.6274261188030852
2    3.5891455160988239    1.6289560394000335    9.4955025753906916
2    5.7418358612312046   -0.0075537196547544    8.8172536893213387
2   10.8509588054633248    9.1655297675836920    9.6726989428995047
2    3.4771469892766387    5.0878565549664341    3.7465118566045685
2    5.5707134871043760    3.3412841996084084    3.3431372505094026
2    5.3702644498749619    4.1393524076086194    0.5226584285653010
2    8.9609482691017934    7.1163701492824840    6.2001173829292995
2    3.5402639460043979    5.5165514984001538    9.2005069020136752
2    5.3372805461334218    3.7051205923421318    6.0279787500259552
2   10.9136287279023936    5.4468410826335889    9.2247938146479811
2    9.2466164918122544    0.1169840559247132    6.4287146104911059
2    1.7797689551466200    3.5685466738615652    6.2897223358387260
2    6.6405388563956498    1.9642828198806008    0.9804714213156960
2    9.0350467230828979    0.7829245898569381    0.8035696768686157
2    7.3273587842818939    8.7078303166214344    4.3685108405487263
2    7.5092906678444109    1.8911156885425355    3.8613048973585222
2    3.5382142789398352    9.5380728903734120    7.2823420804695091
2    8.9381243585113488    7.2740236668545526    9.0520443247981248
2    7.3853109674425674    1.7906439108870824    9.3252788407906841
2    7.6874784883908918    9.0972296915931192    9.6515691527409544
2    5.8200621068173284    7.2166690757953740    8.6990093092117320
2    9.0656345890108359    7.2245559270064570    3.6371571202531165
2    5.1139866858113106    7.4471046758255195    6.1700312251362490
2    7.3205423746027174    8.9420785891765071    1.4070610414848603
2    9.1003443393783261    7.3223086021826624    0.6677961977435967
2    7.6174714361198790    5.2920080961687956    9.4645987806828682
2    4.0497966944802748    8.9739470290266148    9.6736447660732914
2    9.3066101639526870   10.9079758519445704    9.0072917068806664
2    7.2348637267014064    5.2032086808297322    6.8206728863576407
2    5.4477600490689380    0.3528644616185995    5.9271918003236275
2    0.4354609346229902    5.6140752036678521    6.4876235248735670
2   10.8365970244662719    9.2237942370172963    4.0474837245071749
2    1.5299427902681515    7.2987638655804439    3.4397562319446680
2    3.9597401434479647    9.0832673639219710    4.2225279242313007
2    3.2392374371246491    6.0027485326976446    1.5607935776718362
2    5.2501712297985108    7.1784408936588449    0.8482966267548131
2    9.1069757282008919   10.9220461755877079    3.6477294469399442
2    9.2648833938595665    3.3804957564381310    9.1181274619458659
2    7.1654029282828748    5.9085453244045159    1.5770311662571299
2    8.7843994432307575    3.6857177386997422    1.3015208652755064
2    9.0565858517565196    3.5589697635587521    3.5780929021594421
2    7.0854298773676812    5.2526484842713348    4.5451767497036526
2    3.2861125583287216    9.3351520822041643    1.6475831550518649
2    9.1092183756999852    3.4831760300242922    6.2739117462174407
2    7.2660778351815134    1.6539149711961396    6.6926379170477883
2    2.1013042929434680    3.5442957187345905    8.7424861472983331
2    6.9429018987989251    9.3392485869608510    6.8187271395747482
