ITEM: TIMESTEP
0
ITEM: NUMBER OF ATOMS
108
ITEM: BOX BOUNDS pp pp pp
0.0000000000000000e+00 1.0956000000000000e+01
0.0000000000000000e+00 1.0956000000000000e+01
0.0000000000000000e+00 1.0629000000000000e+01
ITEM: ATOMS id type x y z fx fy fz vx vy vz
   1 1    1.9498426099999999    1.6123894800000000    2.2463115000000000    0.2934028330634868    2.2391463791156099    3.5805991258125935   -1.5610246159159173   -2.4184274800486834    0.4242842569428534
   2 1    3.2310994800000001    7.2917578000000001   10.6101818899999998    2.5019366319967573    0.3079131021151275   -1.4811393670115502    2.4810591074630146   -2.2989850317006022   -0.3095626590689296
   3 1    5.0867491899999999    5.3743590899999996    2.2430686899999999    0.9859633865454459    1.2623129739003773   -0.0724878733305623   -3.8342765627936659   -3.4550692320110810    1.4678876606607723
   4 1    8.9265713699999996    5.1206595400000001    7.8247845199999997    2.2869528861424504    1.8107239315350534    2.9778492209883822    0.6802956237360115    4.8166607340585790   -1.3113824261651330
   5 1    0.2592721000000000    7.0133755899999999    5.3305418199999997   -0.5435944436922033    4.8617220212396486   -1.7159494443602910   -2.0014142973761881   -2.6137693761511835    3.9784998380418406
   6 1   10.7365987599999997   10.8800927800000000   10.6153213300000004    0.2323767752277698    1.5272686719534261    0.6949390035198624   -2.3782481863396128    0.0783766805794078    2.2175807180840414
   7 1    7.1881782400000001    3.5480399000000000    5.1419050200000003   -0.8002883589431903   -2.2978909082366985    0.3721054619785160    2.8403764167001415   -4.4923403438298406   -2.7666761089730096
   8 1    7.2680072800000000    7.1069656900000000    5.4505338700000001   -1.7465470603408810   -0.1412051582686101   -0.5735341457886880    3.3486658995891436    0.7656379991779357    4.1022795843779871
   9 1    1.6494264599999999    5.2833683000000002    2.6433772400000000   -0.7644597248200520    0.1151103598900958   -0.6694519998323458    1.9284407702882556    1.6898528626492786    3.5239186409830641
  10 1   10.7283949100000005    3.2646578100000001    5.3122076399999996    3.6158548108900259    2.5689349857529087   -2.8970957738873926   -9.9014837175321482    4.0697898873334726   -5.3976428397255756
  11 1   10.8235741700000005    3.6351975099999998    0.1936622900000000    0.2493087632621707    0.5913220087418749   -2.1509310940531683    0.6145478769699996   -4.9565065070962948    0.9513391915812023
  12 1    1.9354248400000000    5.1519876800000004    7.7933675300000003    0.2084039970496627    2.4132132851437462   -0.6796567959325568   -2.2744269940936634   -1.5643232649790457   -4.6446909499234259
  13 1    8.9461627799999999    9.0473408899999992    8.0078490599999999    0.6308095163135119   -0.4422140828977066    0.1254871061463397   -0.2165777642379849   -2.7019847293787618    6.7004225471415024
  14 1    1.7098071600000000    1.6894044600000000    7.9303547200000004    0.2057390464348821    0.5501147798542650    2.2154334083840972    6.1880971506014593    2.5539793570831169    1.2714947605077522
  15 1    7.3893707199999996    7.2870110099999996   10.4758578999999994   -2.1964358991471284   -0.2635663953284553    1.0763947706868597   -2.3696807806404712   -0.3403652176200663   -0.1137314334445514
  16 1    8.7307771299999999    9.0393448700000008    2.9513383800000002    1.1622089915319753   -0.9353078635179946   -2.6980559547623963   -3.1591288428706825   -3.8963492325575446    2.0577661078681051
  17 1    5.0789946400000003    8.9861253300000001    2.4193840299999998    1.6845572644872022   -0.6251057238061610    0.4314129966994438    1.0837084395966825   -1.4922449116416139    3.0140144912797417
  18 1    5.4426058800000003    9.3071524599999993    7.9839223300000004   -4.8551985873041268   -4.7797821799603568    0.7632089562334319    2.2748667769365429   -0.1059766394892216   -5.0750110569399816
  19 1   10.9507573300000001   10.7516530699999997    5.3004673799999997   -1.3048269320165409    0.4280376260964956   -2.4263199501966310    4.9163304414749440   -2.9493908413034027   -3.2623785507077114
  20 1    3.5276752199999999    3.4735595899999998    5.1816768299999998   -0.4953319868518810   -0.1227878092127736   -1.1914731182312446    1.9503680598983546    4.3132616105052692    4.8084338734965355
  21 1   10.9538038699999998    7.2940740100000001   10.3258917399999994   -3.6315649365653582   -2.5260967870890587   -1.0213597147501012   -4.4631165207451469   -3.4478947824745863   -2.9401484849947650
  22 1    1.6456279000000000    9.0987234299999997    7.9318484199999997    1.6968017017138246   -0.8878953569841368   -0.7728381879483535    1.4107381722092118    0.2997346033973825    0.7958883966537372
  23 1    7.2406413799999996    3.7825271200000001    0.0748470800000000    0.6082368209803559   -3.2263734923813701   -1.6310825397136863    0.5019782333716418   -0.8568890956211633    1.8161795945328072
  24 1    8.9499556299999998    5.4080370699999998    2.6872656600000000    0.9740246877572094    0.8743991031877281   -0.6672580195043860   -0.9333671779351314   -0.2880026260197242   -8.2207759919154668
  25 1    3.8236803699999999    6.9904107199999999    4.8131646100000003   -1.8839160394465857    0.4671371266448079    2.6896005702213377    1.4927083901707614    4.6303976244808611   -3.9103390780799718
  26 1    3.7737331799999998    0.0466739800000000    0.0220746300000000   -2.8426280532355688   -2.3860813311001414   -0.3619598311149292    0.5098289852804168    2.2288548358424047   -0.3499101849008646
  27 1    7.1999626299999999    0.0728454600000000    5.2426781499999997    2.0653976799054741   -1.9521394327359678   -1.4975960030880593    1.2357756036636596   -1.4638296740213910   -0.7757360770498344
  28 1    5.6696258100000003    1.6242438699999999    2.6256736900000002   -1.4488936961060535   -1.4187129702326440    0.9229359280262404   -2.7484077769116624   -1.2277510685561501    3.3947451238655506
  29 1    5.3494679300000003    1.7250430200000000    7.5813982700000002    1.9247026684960349    0.6653214912234051    1.7686794395313752    1.3728737871153220    3.5136444376962670    5.8545099652766268
  30 1    1.4256022800000001    8.9866387299999992    2.5796010100000002   -1.9242853201342414    3.2112945016969996   -0.7286992158014673    1.9271292436253316    2.1984865381707595   -1.6621520695635577
  31 1    3.3299887699999999   10.9341262399999994    5.2506655200000001    3.4446211020268640   -1.7841769061158705   -1.2630096999913005    1.4776064459328075   -2.9852591437272959   -2.0092908756828991
  32 1    3.7357748000000002    3.6106027200000002   10.2165931000000008   -2.3518327897612252   -0.7578038151714184   -2.0273826266224995    1.1422053674368211    4.3594761445051198   -3.8831714997213158
  33 1    7.1817182600000002   10.9535638199999994   10.5472857399999995    3.8867704643021805    1.7517538872733731   -2.1699459480627112    0.1703838168870418   -2.3205698025255055    5.6804767264932510
  34 1    9.0363334999999996    1.7914524800000000    2.5222215200000000    0.8913402091993508    0.0736805180991194    1.9464139846892672   -0.7034537782787942    1.0273809520432506   -1.5288753014320275
  35 1    5.4428051599999998    5.4758693899999997    7.8838400899999996   -1.8376593620436557    0.1736556028679499   -1.1545576107188529   -0.4805778597568168    0.5000194226173010    1.2992389740647323
  36 1    9.0497654500000007    1.7001676400000001    7.7713846300000000   -1.1695218212397327   -0.4312894529309659    3.3400069291595580    1.4738566751606106    0.7880544956772055    0.4321394236362653
  37 2   10.5057749000000005    9.5845480799999994    1.6476423200000001    0.9790245808548013   -0.3578097610566784   -1.0102325589811447    0.2901420935157029  -11.0075128568605614   20.0399653026628393
  38 2    5.0698647899999996    7.1086391100000004    3.3652439699999999    2.9789706311202471   -0.1687817119211782   -2.1796435604287021   -6.0309954646007293   -6.1527319219732561  -12.7591108743732420
  39 2   10.8249983400000005    5.5721666000000001    4.0577155600000001    0.5392535949178390   -2.9863297132349995   -0.9225416720446172   12.6044591127657988   23.2362713818323599   -4.8726613421652569
  40 2   10.5201266100000002    1.7316611000000000    4.2294791399999996    1.2355015225317296   -1.9299164544693723   -0.0124905560077886    2.9563581492386097    9.6385172145912783  -16.3423918156756436
  41 2    1.7629813400000001   10.8695582599999998    3.8848047999999999    0.1421885260265550    1.4194413203592799   -1.6749977028721967  -11.0425658946890675   -9.8630463758762232  -13.9063281799294973
  42 2    1.7024185500000000    0.0846790300000000    1.1687234900000001   -0.6300993152741989   -0.7736261920866251   -2.7253003829439040    2.2780295785629128   -6.7407445891960975   -1.3564317648885946
  43 2    2.1226030599999999    3.9810609000000001    0.6740873500000000   -2.1014663002403333   -1.4049449688806932    1.2625977437310829  -10.8316237555870796  -15.1382936308274498   26.6664943530378977
  44 2    0.4495063800000000    1.9355864400000000    9.7257516200000005   -0.4822776999503079   -0.8804194544455562   -0.3936539296438120   -0.0241191231271004   -0.4152959627419709    6.0019675551712321
  45 2    1.7441040500000000   10.8285213500000008    8.9739178099999997   -0.2786953574439921    0.2930170765926097   -0.1637826348680103    0.4551180632498420   19.4839558339094197  -14.8270324683899144
  46 2    1.7574875700000001   10.4756398799999992    6.2722654799999997   -4.0303484638211824    1.4584355543664596    1.1461698836436693    5.1175226154939999    9.6883763876872067    0.0164211741818977
  47 2   10.9542293999999991    1.8100072300000001    6.7498245399999997    0.8311030697950729   -1.0133038150823837    1.5376911654526071   -9.4346231625512900    2.6825428563255276    3.6145475128793292
  48 2    1.8843236500000000    3.3871044800000001    3.3237903400000000   -1.1804504935176459   -0.4205567085053339    1.0207183562287103    4.1712130989547127   -0.9203461015865283    0.4376048663435471
  49 2    1.4719650000000000    7.5332583900000003    0.9597057000000000   -0.3053181673754164    0.9487737968656469    0.0444591131140770   20.5853630605411588  -11.7659389904978458   -4.1752539365395691
  50 2    1.8063053099999999    7.1928590899999998    8.9430213199999997   -0.1159273741168297    1.5818003581190752   -0.0158864607095192  -14.4892311519347050   -7.3367196441518452  -15.5002944187049891
  51 2   10.7286291499999997    2.2867134199999999    1.6239633499999999    4.1573340611580640   -0.4352743205038239    0.4088047531538392   -3.7779824513926257    2.8240691665408733    9.6793895219703909
  52 2    3.7478391100000001    5.1082562500000002    6.4553532999999996   -2.0486312002855516    2.7811546535869249    2.4197563629263841  -11.6900990890931293   -3.0577582885512093    0.3039660538547928
  53 2    3.5104206200000001    1.6528777100000001    6.7340960599999997   -1.5715826650225817    0.1577397714433502    0.3350493935220607  -11.5460976072889245    2.5072524583383817   -1.1123532500668778
  54 2    5.3909712299999999    3.5057395499999999    8.6978579099999997   -0.3997202592493987    0.8446119391161855   -0.3088323323919994   -7.5148089119477737   23.6931450557044805    2.5323640855818610
  55 2   10.8328709900000000    5.2844045199999998    1.4801322500000000   -0.0146755573371993   -0.0252878397169710   -0.0815697871452707  -10.9400119340958888    9.4240674344939350   -5.5542955281927311
  56 2    2.3622152700000001    7.5195828899999997    5.9504287099999997   -3.9014984568308133    0.0527277516190761    1.4969963792481484    2.0690298747579767  -13.0344366418978783    5.0073109520926700
  57 2   10.8529835800000001    8.6150234799999996    6.8946615600000003    0.0801041089039087    1.5769862250756914    0.5204074745440136    3.9308773913843136    1.0136229754601926   16.1828422017076008
  58 2    3.8762220599999999    1.6630748900000001    4.1044106700000000   -1.1558762787731756   -0.3493690776088775    0.7445185154939844   16.2725343028080758   -4.5680815529615098  -10.6445836387947992
  59 2    5.8673867599999996   10.6716270499999997    3.3763120500000001    0.8538331998870401    0.6699437878493710    0.1931232779929203   -8.4874468995653825   17.0316994764488925   -0.6970771127737202
  60 2    5.5116577099999997   10.6540145099999997    0.7522161400000000   -1.9640356870811706   -1.0471752256161739    2.2385672347721757    9.8028794251185953   13.9191626783793776   17.8949842363551035
  61 2    3.9002888900000001    1.6740566400000001    1.6405635100000000   -1.9935701484961361   -0.5875440942205894   -2.1719134253338184   -2.9666283798577235   -8.1582607137310958   -2.3444177145510632
  62 2    3.6148129999999998    1.6211643600000001    9.5406527899999993    0.6932994603149611    0.8855198773798847   -0.9540174447711305   -9.2709073829212389    1.7813761827928245  -14.2998373979847493
  63 2    5.7888704700000000    0.0107577000000000    8.8401978700000008   -1.1165292155837401    1.8009810067476613    0.1271137293116893  -14.8650827154508729   -8.1057739604317511   -8.0490962075156496
  64 2   10.8968633500000003    9.1563911000000004    9.6441568300000000    0.3439833358071727   -1.3179779333932562   -1.4418952392387832  -15.6938961094823348    4.2895041771359361   10.8510404411134402
  65 2    3.4844188500000000    5.0834485799999998    3.7930377300000000    0.7761822958244826    0.5931833798033980    0.9606722439100074   -3.2036692796624182    0.9626236555841315  -16.6010096533007534
  66 2    5.5925345699999998    3.3697822799999999    3.3712241600000001    0.0001652139789172    3.7908467979160436    0.0443057564395682   -7.2908395977674507  -13.3137608775591367   -9.5811415192650102
  67 2    5.3253816100000000    4.1550901700000002    0.5425526300000000    0.5237954831970909    1.4668304145559969    2.0660333469495233   14.8948792806458101   -6.5929492571987991   -8.5267019746052313
  68 2    8.9840330700000006    7.0992439000000003    6.2406166699999996    1.2488344277350500   -0.5906703218608387    1.7911315704567410   -9.2293917019746559    6.2439511165424273  -15.3207972938586057
  69 2    3.5141731500000000    5.4887050000000004    9.1911944400000003    2.2000678814733154    0.4880736695502260    0.8871769640549010    6.8709580386911977    8.9472710482617259    2.2925367232829599
  70 2    5.3005107200000001    3.7454195800000001    6.0235617599999998    3.2156557210557994   -3.8395021380348884    0.0267555804105834    9.5553806548915681  -10.0739820630613881    1.3991642473020878
  71 2   10.9428808499999999    5.4587485600000001    9.1918897899999994   -0.0987191117575823   -0.8908043400557286    0.5372527360093136   -9.6650121592620764   -3.2346557427739149   10.5646495609688529
  72 2    9.1598810299999993    0.0837115100000000    6.4382472000000002   -0.3941062391927215   -2.0805632026325265   -1.1523374636236117   29.4828867001440251   13.0344657510279003   -2.1664525001479653
  73 2    1.7347139899999999    3.5966836700000000    6.2946254899999996   -0.1977312908722239   -1.4750509419378575   -1.1777613647431662   15.4303721451729352   -8.1227036425940646   -0.5267176322872127
  74 2    6.6201868800000003    1.9379128400000001    0.9569061200000000    1.0248278223549412   -0.2003542334229520    0.9504448631189051    5.8058361132664178    9.0398034871530690    7.0716435962945239
  75 2    9.0192770899999992    0.7570895100000000    0.8552598300000001   -1.2517986686171252   -2.1270072137285956   -1.4502021796645965    6.4233013125907705   10.5674339876513557  -16.0584736238699399
  76 2    7.3258765400000003    8.7171040400000006    4.3839670799999997   -0.5571846266306532    2.9801574493899605   -0.3305963533194075    1.1261032063619187   -5.8009359029539898   -4.8948812632517127
  77 2    7.5008020100000001    1.9078092600000001    3.9086825300000001   -2.2752876682425187   -2.8267442914212713    1.5518381140984172    5.0387650011627141   -3.1928297118919211  -17.3726969684354380
  78 2    3.5114363499999999    9.5687969699999993    7.2567654399999997    2.8979145015336898    0.2632598273409230   -0.3674260113141832    6.5449678867672416  -10.5071004482851080    8.9227388383512967
  79 2    8.9451281999999992    7.2605082200000002    9.0573037999999997    1.4697087599264820   -0.4180664653526591   -4.3135393181717641   -3.7101266681242091    4.9101376461041157    2.1879036407546839
  80 2    7.3484578400000000    1.7218183400000000    9.3133880799999993    0.6239276133337960    0.5494304841163475   -0.1371087834136339   11.9656157373637093   22.5962682974016502    4.1858607185912362
  81 2    7.7142563300000004    9.0940986899999992    9.6450297799999998   -1.8659224585085323    2.7450211119613876   -1.0560238168814375   -7.2360055451513103   -1.4798814089082355    3.2218766868259663
  82 2    5.8448564000000003    7.2782907999999997    8.6964975100000004    0.5651126208474592   -0.7162480625093615   -0.0140027069745972   -8.8467676480373001  -20.1814291758537863    0.8101787064941410
  83 2    9.0571913199999994    7.2096918800000003    3.6427283600000000   -0.1615049425819928   -1.0731808242618703   -0.3934100188488242    2.9989318253859034    6.1186671540335915   -1.4495776425602103
  84 2    5.1491348400000003    7.4112087700000000    6.1715991800000003    2.8388125153706674   -1.5437159691897397    0.4399041699383294  -14.3829988130396984   13.3504260826758525   -0.9384594777755649
  85 2    7.3006592200000000    8.9426611299999994    1.4384127900000001   -0.5349093574745920    0.8035788253543752    1.4816966218388115    7.1365947461900943   -0.9744537867280259  -11.8908198369391869
  86 2    9.0891076799999997    7.3007725099999998    0.6677890300000000    3.9385907098274502   -0.7730228239566579    2.7623202010620025    0.2574858568100906    7.9047042967877923   -2.4667180937718998
  87 2    7.6362253999999998    5.2474180500000003    9.4663071900000002   -1.3286126749910683    1.0415190950324482   -0.6414935630375364   -5.1335438022219986   14.1501645762819575    0.0392427688227254
  88 2    4.0345408599999999    8.9785132099999991    9.6397276099999996   -1.2470911227501174    0.9498583191871250    1.6442619956920523    6.2148417122601334   -2.4404559260667078    9.8570124328760595
  89 2    9.3238728500000008   10.8999822999999996    9.0311523099999995    0.1851653819759210    0.4969129513734898   -1.4796586042993147   -5.9175957759932070    2.2528318791495576   -6.6775404009115391
  90 2    7.2296911899999996    5.1815925399999996    6.8325191099999998   -0.8507008327721838    0.2933856797267700    1.6306536533516998    2.4451149126998257    6.9520274158167314   -5.4649883778622987
  91 2    5.4810941900000003    0.4163562700000000    5.9070828000000004   -2.3199859628359940   -0.6258015481870792    0.9777561259186153   -9.0684945328543733  -20.6510371984797771    5.7968988620774251
  92 2    0.4158410100000000    5.6138053200000000    6.4924396900000003   -1.1373439247059480   -2.5306593263865320    3.0651799333269905    7.6654867170680703    2.5870830218429877   -4.4624099235992452
  93 2   10.8613636099999997    9.2070802399999998    4.0367162700000003   -0.1165651093864111   -1.2527156796342247    2.1691349732728784   -8.1713545405671368    6.8044069519101056    1.6169396821853717
  94 2    1.5810151100000001    7.3236430500000003    3.4513526899999998    1.1426408213410475   -2.9470434593914852    1.5271245557949509  -18.1600244960665655   -5.9116031878287600   -5.2161036355947941
  95 2    3.9574907100000001    9.0638144399999998    4.2112619899999997   -0.8455454186548076    1.4176695920633651    0.1614891547139160    1.5126264874507478    5.3123944151835545    3.6352482247373574
  96 2    3.2360449099999999    5.9970761100000001    1.5488692500000001    0.8734092688874066   -0.7776304639782192    0.1806044541582874    0.2187537973504743    2.6597396847603889    3.9021287152252793
  97 2    5.2545450400000000    7.1741711099999996    0.8439352700000000   -0.9352414784058818    0.8692970525218509   -0.4097538337495982   -0.6042812436693519    0.6076987647147462    1.8543786661173662
  98 2    9.1459865199999992   10.8676504900000008    3.5999253800000002   -2.1725002166655933    0.5480884054888278    0.8750676859154711  -11.0208349716979477   18.0125974781623448   15.2876532835696803
  99 2    9.1962395000000008    3.3834953600000000    9.0509243799999997    0.8795441733808413    0.9326884862760056   -1.0100778666879964   22.2085092976743326   -1.9127820313251720   23.4709892141292897
 100 2    7.1961840099999996    5.9043847300000003    1.6130177100000000   -0.3245114910882589   -2.5452536091585887    0.7071490394951874  -10.1469886467660828    3.7386172441135579  -12.7482211952162476
 101 2    8.7533348699999998    3.6848508700000000    1.3186781700000001    0.1469309276433668    0.1484794756760984   -2.1376010682607016   10.3028860144515662    0.0971578572034291   -3.8999418682708811
 102 2    9.0494758799999993    3.5659999700000000    3.5588294199999999    0.5138537348520672    2.5757809526868876    2.7672776651217021    1.9162838618491655   -4.8777787303000251    3.9271807575647313
 103 2    7.1367621699999999    5.2613336000000004    4.5414043599999996    0.6266532751830788    4.5390509892016242   -3.7780555727038654  -17.6747575957795533   -7.0689684241693795    4.7091163950355401
 104 2    3.2418811700000001    9.3051311900000009    1.6329740900000000    2.0188685772231909   -0.6950478556436437   -0.7356089824567784   13.0789840773768500   10.6502849563567850    5.5093954083184151
 105 2    9.1155543699999999    3.4867889600000002    6.2457008399999996   -2.4630114841603170    1.2662416037313977    2.4546481125322055    0.2127306547703481   -2.3739693378860696    7.1710115184379903
 106 2    7.2934387799999998    1.7093592799999999    6.7606757899999996   -0.5539128837056498    0.8534391001531847   -1.4364064951519611   -8.7941083756138632  -19.3232688088286899  -21.6114385270896889
 107 2    2.1277929200000001    3.5278868900000000    8.7864617900000006   -0.2013605044082187   -1.7620995199171328   -0.7861252918413548   -8.7730257586054687    7.1363863760514068  -14.3379945994103633
 108 2    6.9259656700000001    9.2839186199999997    6.8249149100000004    4.8265670648663974    0.3909400888137224   -1.3451879055655318    1.2061314833864885   18.1715032808574399   -0.8142980541586323
ITEM: TIMESTEP
1
ITEM: NUMBER OF ATOMS
108
ITEM: BOX BOUNDS pp pp pp
0.0000000000000000e+00 1.0956000000000000e+01
0.0000000000000000e+00 1.0956000000000000e+01
0.0000000000000000e+00 1.0629000000000000e+01
ITEM: ATOMS id type x y z fx fy fz vx vy vz
   1 1    1.9482895155402795    1.6100315726599428    2.2468325614763192    0.2340539639592980    2.3033645168602237    3.5052581101033908   -1.5467684442554772   -2.2956515670995477    0.6158023806788757
   2 1    3.2336481620001112    7.2894671373112327   10.6098322947809010    2.6437131461727343    0.2203597834791371   -1.6269077741872993    2.6201369382235300   -2.2847068247867259   -0.3935676514681581
   3 1    5.0829415622721088    5.3709381388402173    2.2445346184425037    0.9859772699790215    1.1588922976302629   -0.2081693986458817   -3.7809786313242033   -3.3896284661245653    1.4603020381564178
   4 1    8.9273134778884966    5.1255251413780671    7.8235536235364354    2.2149182779311301    1.6632094159747590    3.2355457244310397    0.8019732101405253    4.9105551148710980   -1.1434454576338631
   5 1    0.2572559933126409    7.0108932243141426    5.3344739407796826   -0.4610520893387904    5.2550959152923307   -1.8165023689607178   -2.0285681654026710   -2.3403298698830968    3.8830240714453570
   6 1   10.7342267925441650   10.8802124360335917   10.6175576936820608    0.2566833939528844    1.6582173818226100    0.7273468554467949   -2.3650298317479317    0.1644747020293383    2.2560226403470853
   7 1    7.1909969860472129    3.5434854517561467    5.1391484012391579   -0.7526859242993698   -2.4278150629409496    0.2779433050013306    2.7984023708449817   -4.6200679012444521   -2.7491065307488776
   8 1    7.2713087398421470    7.1077275114751552    5.4546206479775527   -2.2079374697555001   -0.2288591752703079   -0.7902639477945026    3.2417833207936746    0.7556358418140994    4.0654186721761416
   9 1    1.6513342387849907    5.2850612640907322    2.6468830645453378   -0.8786524810019013    0.0455047544859069   -0.7948220675844160    1.8840304294020114    1.6941940541210025    3.4843420246430661
  10 1   10.7185911564002421    3.2687970336261980    5.3067316938195725    3.8515684770636813    2.2819887173777582   -2.8681636369338213   -9.6996528526361558    4.2009018445100335   -5.5534677038043672
  11 1   10.8241954562489653    3.6302569858739941    0.1945554933536841    0.1628567039337261    0.6381996925758844   -2.1365541516482858    0.6256879945135618   -4.9232748724781041    0.8354561240402403
  12 1    1.9331560457948986    5.1504885815935690    7.7887044691369622    0.3370757401776125    2.6851896632783099   -0.7560093017062368   -2.2596837158639906   -1.4265225534687160   -4.6834945891364885
  13 1    8.9459632518938772    9.0446269530112886    8.0145528742402004    0.6816562067198273   -0.2653478827320672    0.1016971516128309   -0.1811041579337911   -2.7211089512896103    6.7065631346089329
  14 1    1.7160008179107233    1.6919733079801436    7.9316860939811198    0.0225581027788402    0.5784314357282563    1.9771769737775406    6.1942678021541351    2.5844820296343127    1.3848135961018648
  15 1    7.3869416734675983    7.2866635210519748   10.4757732616007644   -2.2408005672350484   -0.3573718885518707    1.1348137109785610   -2.4896114569403722   -0.3571480846269722   -0.0539664067009281
  16 1    8.7276494135969429    9.0354232410611388    2.9533232224591019    1.3393159586763135   -0.5486296022675528   -2.6890821165387506   -3.0915171701175495   -3.9364575384669913    1.9121614146466672
  17 1    5.0801238790232253    8.9846161895935985    2.4224097048164812    1.7450454246873819   -0.5072120168848591    0.3867492985376382    1.1764045294680243   -1.5228494899101330    3.0361280526472667
  18 1    5.4447495194034472    9.3069172943582377    7.9788679471223096   -4.9509034958260107   -5.0859448396593399    0.7249746888649953    2.0098253570507496   -0.3726296868194353   -5.0347882538598947
  19 1   10.9556383932926522   10.7487152482536406    5.2971394223409227   -1.3622753545728972    0.5934669796697498   -2.3860904808932561    4.8442435607696321   -2.9217814782939255   -3.3924495384251654
  20 1    3.5296122001181960    3.4778695328746370    5.1864530604764409   -0.4904084475436195   -0.2583843311003159   -1.3481622429352926    1.9237253087839410    4.3029593354625417    4.7397921937021685
  21 1   10.9492425987447550    7.2905578393189003   10.3229239859803705   -3.3901582032672888   -2.5551005985191937   -0.7713708884123456   -4.6529013353245254   -3.5852306088083412   -2.9886028911504114
  22 1    1.6470844997011755    9.0989991663727299    7.9326234199564150    1.7612566241496432   -0.7962168363004156   -0.7568175837503858    1.5042033771241543    0.2542160568878818    0.7545445472512278
  23 1    7.2411597977917213    3.7815830277732014    0.0766191743375073    0.9301361227845382   -3.1409966366944748   -1.7927748278542470    0.5435577314097990   -1.0289878044850205    1.7236388775926577
  24 1    8.9490485889751952    5.4077727008249354    2.6790268492118212    1.0176152795932711    0.9289477686288499   -0.7270427008991676   -0.8795367220079211   -0.2392613779888708   -8.2584617060218761
  25 1    3.8251221594937990    6.9950537435093105    4.8093269660366964   -1.9447730680561888    0.4739256887788277    2.6680447019495048    1.3892257820276483    4.6558330167495887   -3.7655315783844885
  26 1    3.7741661778100921    0.0488383433057057    0.0217149366853071   -2.5801080961542571   -2.3428548478975668   -0.2771491428287477    0.3632620928590835    2.1010401735636162   -0.3671841736100849
  27 1    7.2012542296256621    0.0713288674727529    5.2418619365693466    1.9157649058500863   -1.8593455699663100   -1.4739285349782763    1.3433793805435368   -1.5668473746428162   -0.8560511204478811
  28 1    5.6668382412061318    1.6229777736457729    2.6290933804387806   -1.4257339769655766   -1.6114895741451718    0.6444062499470653   -2.8261039297470445   -1.3096520876190769    3.4371076956489883
  29 1    5.3508928250734531    1.7285746468930479    7.5873005842215235    1.7199564323395562    0.5972146762551911    1.4835179545787052    1.4713824777628175    3.5477686490250502    5.9424112490503171
  30 1    1.4274773992374712    8.9889240121110756    2.5779191624880289   -1.9359160509862980    3.0762180801174566   -0.6654588723256483    1.8227949281263212    2.3684268799493942   -1.6998337315523315
  31 1    3.3315594784214251   10.9310927577310952    5.2486220922208222    3.4982725993830899   -1.6162782868631185   -1.3676725241483716    1.6652605513929453   -3.0771674857703606   -2.0803935949595092
  32 1    3.7368534395143955    3.6149417140565951   10.2126551319574883   -2.5115822924312066   -0.6320532114915504   -1.7952628676316773    1.0107559470823779    4.3219109134431752   -3.9864909212450312
  33 1    7.1819936963024276   10.9512905969861780   10.5529075669509460    3.8966411563508623    1.8116276574614185   -2.2422919182657219    0.3807555866372440   -2.2242580105277034    5.5612219596916210
  34 1    9.0356541375606092    1.7924818524052648    2.5207452528031267    0.8589918271519468   -0.0420939003628890    1.8031967674539648   -0.6561454393847332    1.0282347129711684   -1.4275300415917265
  35 1    5.4422749134795048    5.4763741030243818    7.8851081233374520   -1.8474696739605796    0.1461604328336729   -1.1988534539373701   -0.5801803539264601    0.5086634959335523    1.2356305001813277