ITEM: TIMESTEP
0
ITEM: NUMBER OF ATOMS
108
ITEM: BOX BOUNDS pp pp pp
0.0000000000000000e+00 1.0956000000000000e+01
0.0000000000000000e+00 1.0956000000000000e+01
0.0000000000000000e+00 1.0629000000000000e+01
ITEM: ATOMS id type x y z fx fy fz vx vy vz
   1 1    1.949842609999999920589175417    1.612389480000000041570729081    2.246311500000000016541434888    0.293402833063486800924124509    2.239146379115609875043446664    3.580599125812593541695605381   -1.561024615915917346242736130   -2.418427480048683353430760690    0.424284256942853377214674993
   2 1    3.231099480000000134793936013    7.291757800000000067086602940   10.610181889999999782503437018    2.501936631996757309792656088    0.307913102115127457203413996   -1.481139367011550245223361344    2.481059107463014612449114793   -2.298985031700602199578042928   -0.309562659068929602046438276
   3 1    5.086749189999999920530626696    5.374359089999999561371168966    2.243068689999999865136715016    0.985963386545445907849227751    1.262312973900377333080768949   -0.072487873330562280216327053   -3.834276562793665910078289016   -3.455069232011080959665605405    1.467887660660772253251593611
   4 1    8.926571369999999561173353868    5.120659540000000120585355035    7.824784519999999687911440560    2.286952886142450402928716358    1.810723931535053399244361572    2.977849220988382228370028315    0.680295623736011489945951780    4.816660734058578974270403705   -1.311382426165133008311158846
   5 1    0.259272100000000005337597031    7.013375589999999881740677665    5.330541819999999653134636901   -0.543594443692203332929580029    4.861722021239648583446069097   -1.715949444360290954136871733   -2.001414297376188144994557661   -2.613769376151183543299794110    3.978499838041840597213649744
   6 1   10.736598759999999685987859266   10.880092780000000018958417058   10.615321330000000443760654889    0.232376775227769782894426953    1.527268671953426082410487652    0.694939003519862374957938300   -2.378248186339612768591678105    0.078376680579407817517356705    2.217580718084041446758192251
   7 1    7.188178240000000052134510042    3.548039900000000024249402486    5.141905020000000270385953627   -0.800288358943190281102886274   -2.297890908236698503941397576    0.372105461978516016685603063    2.840376416700141515292443728   -4.492340343829840598743885494   -2.766676108973009640124018915
   8 1    7.268007279999999958874923323    7.106965690000000002157776180    5.450533870000000113975602289   -1.746547060340881030171544808   -0.141205158268610131422349241   -0.573534145788687999001354001    3.348665899589143624126563736    0.765637999177935735239941550    4.102279584377987120547004452
   9 1    1.649426459999999927674707578    5.283368300000000239435848925    2.643377239999999961383991831   -0.764459724820051977900448037    0.115110359890095770296625233   -0.669451999832345823193691103    1.928440770288255556863532547    1.689852862649278586459899998    3.523918640983064065608232340
  10 1   10.728394910000000450622792414    3.264657810000000104366790765    5.312207639999999564395238849    3.615854810890025916592094291    2.568934985752908684020212604   -2.897095773887392589074352145   -9.901483717532148176587725175    4.069789887333472577779502899   -5.397642839725575569786997221
  11 1   10.823574170000000549407559447    3.635197509999999798679937157    0.193662289999999986944700936    0.249308763262170662855510272    0.591322008741874904913515820   -2.150931094053168290969324516    0.614547876969999573582015273   -4.956506507096294811276493419    0.951339191581202281433604639
  12 1    1.935424840000000035189486880    5.151987680000000402458226745    7.793367530000000265033577307    0.208403997049662698115568560    2.413213285143746222871641294   -0.679656795932556789807676978   -2.274426994093663445539732493   -1.564323264979045724487605185   -4.644690949923425904444229673
  13 1    8.946162779999999870028659643    9.047340889999999191672941379    8.007849059999999852266228118    0.630809516313511897678267815   -0.442214082897706584063257651    0.125487106146339705281533838   -0.216577764237984943251902337   -2.701984729378761773688211179    6.700422547141502427336945402
  14 1    1.709807159999999992550101524    1.689404459999999996711039785    7.930354720000000412483132095    0.205739046434882055791604216    0.550114779854265045777594878    2.215433408384097191401451710    6.188097150601459262020398455    2.553979357083116852322746126    1.271494760507752230793698800
  15 1    7.389370719999999614913122059    7.287011009999999622266386723   10.475857899999999389706317743   -2.196435899147128445463295066   -0.263566395328455271851453290    1.076394770686859736485985195   -2.369680780640471162712401565   -0.340365217620066329295980267   -0.113731433444551402467403989
  16 1    8.730777129999999885967554292    9.039344870000000753407221055    2.951338380000000150005234900    1.162208991531975321720437933   -0.935307863517994553248513512   -2.698055954762396346779951273   -3.159128842870682518650937709   -3.896349232557544617350231420    2.057766107868105098788191754
  17 1    5.078994640000000337920482707    8.986125330000000133168214234    2.419384029999999796700649313    1.684557264487202221658890267   -0.625105723806161028832661941    0.431412996699443773707116634    1.083708439596682504557634275   -1.492244911641613880348700150    3.014014491279741747575826594
  18 1    5.442605880000000340146470990    9.307152459999999294382178050    7.983922330000000400218596042   -4.855198587304126789376823581   -4.779782179960356813808175502    0.763208956233431878857231823    2.274866776936542933640339470   -0.105976639489221646783789765   -5.075011056939981557434293791
  19 1   10.950757330000000067116161517   10.751653069999999701167325838    5.300467379999999728568127466   -1.304826932016540874670340600    0.428037626096495649186124410   -2.426319950196631047845130524    4.916330441474944024093929329   -2.949390841303402677198164383   -3.262378550707711433176427818
  20 1    3.527675219999999889353148319    3.473559589999999808185293659    5.181676829999999789322373545   -0.495331986851880956557181435   -0.122787809212773574296662105   -1.191473118231244576747940300    1.950368059898354600179004592    4.313261610505269239013159677    4.808433873496535504443727405
  21 1   10.953803869999999776041477162    7.294074010000000107822870632   10.325891739999999430210664286   -3.631564936565358170383888137   -2.526096787089058715025657875   -1.021359714750101232993984013   -4.463116520745146864612706850   -3.447894782474586250486936478   -2.940148484994764999100880232
  22 1    1.645627900000000032321167964    9.098723429999999723349901615    7.931848419999999677543200960    1.696801701713824606088110158   -0.887895356984136796540951764   -0.772838187948353461109718410    1.410738172209211827023978003    0.299734603397382504130774805    0.795888396653737228980673990
  23 1    7.240641379999999571737134829    3.782527120000000131483375299    0.074847079999999996391402135    0.608236820980355918919713076   -3.226373492381370056136802305   -1.631082539713686330173914030    0.501978233371641824334119519   -0.856889095621163332516800892    1.816179594532807195506052267
  24 1    8.949955629999999828783074918    5.408037069999999779668087285    2.687265660000000000451336746    0.974024687757209406413494435    0.874399103187728066188810772   -0.667258019504386012954455509   -0.933367177935131353549991218   -0.288002626019724206063443717   -8.220775991915466818227287149
  25 1    3.823680369999999939523149806    6.990410719999999855645000935    4.813164610000000287470811600   -1.883916039446585699579372886    0.467137126644807887387855772    2.689600570221337694221119818    1.492708390170761401094523535    4.630397624480861118456687109   -3.910339078079971830703698288
  26 1    3.773733179999999798326371092    0.046673979999999996859383344    0.022074630000000001334159450   -2.842628053235568774681496507   -2.386081331100141422751903519   -0.361959831114929242446009994    0.509828985280416757674970540    2.228854835842404735757327217   -0.349910184900864562607125663
  27 1    7.199962629999999919050424069    0.072845460000000000766462449    5.242678149999999703823050368    2.065397679905474070949367160   -1.952139432735967794485532067   -1.497596003088059291030731401    1.235775603663659572006849885   -1.463829674021390969684830452   -0.775736077049834382712845127
  28 1    5.669625810000000321053903463    1.624243869999999922981714917    2.625673690000000171096417034   -1.448893696106053452510309398   -1.418712970232643977297470883    0.922935928026240359756116050   -2.748407776911662381280621048   -1.227751068556150126909187748    3.394745123865550606723218152
  29 1    5.349467930000000315260422212    1.725043019999999982516669661    7.581398270000000216839453060    1.924702668496034885237122580    0.665321491223405114823208351    1.768679439531375185978845366    1.372873787115322041785248075    3.513644437696266997761540551    5.854509965276626815011695726
  30 1    1.425602280000000110504743134    8.986638729999999242181729642    2.579601010000000194111180463   -1.924285320134241361600402342    3.211294501696999592610382024   -0.728699215801467348185838091    1.927129243625331556089008700    2.198486538170759452270885959   -1.662152069563557654774399452
  31 1    3.329988769999999931314960122   10.934126239999999441465661221    5.250665520000000086042746261    3.444621102026864001288686268   -1.784176906115870542279822075   -1.263009699991300527344151305    1.477606445932807543997000721   -2.985259143727295949588551593   -2.009290875682899102372402922
  32 1    3.735774800000000173128000824    3.610602720000000154243480210   10.216593100000000760019247537   -2.351832789761225228630792117   -0.757803815171418371221534471   -2.027382626622499461888082806    1.142205367436821106252864411    4.359476144505119776795254438   -3.883171499721315811370914162
  33 1    7.181718260000000242371243075   10.953563819999999395804479718   10.547285739999999520932760788    3.886770464302180538851416713    1.751753887273373111455043727   -2.169945948062711238435440464    0.170383816887041794618795620   -2.320569802525505487267309945    5.680476726493250971827819740
  34 1    9.036333499999999574470166408    1.791452480000000013760086404    2.522221519999999994610107024    0.891340209199350752555801591    0.073680518099119435282418067    1.946413984689267184791106047   -0.703453778278794183975719534    1.027380952043250639249549749   -1.528875301432027544734637559
  35 1    5.442805159999999808917436894    5.475869389999999725660018157    7.883840089999999634073901689   -1.837659362043655653096152491    0.173655602867949926393364990   -1.154557610718852878051166044   -0.480577859756816772041077002    0.500019422617301034783565683    1.299238974064732321522797065
  36 1    9.049765450000000654995346849    1.700167640000000091049514594    7.771384630000000015570549294   -1.169521821239732695119073469   -0.431289452930965877541780173    3.340006929159557991226847662    1.473856675160610585351150803    0.788054495677205535386633528    0.432139423636265285200153130
  37 2   10.505774900000000471322891826    9.584548079999999359301909863    1.647642320000000104585069494    0.979024580854801262930209305   -0.357809761056678388158047710   -1.010232558981144723730949408    0.290142093515702914618969999  -11.007512856860561356597827398   20.039965302662839263803107315
  38 2    5.069864789999999565850430372    7.108639110000000371769601770    3.365243969999999862352524360    2.978970631120247070100504061   -0.168781711921178190216608073   -2.179643560428702109277310228   -6.030995464600729327742101304   -6.152731921973256135061092209  -12.759110874373241983903426444
  39 2   10.824998340000000496274878969    5.572166600000000080683548731    4.057715560000000110107976070    0.539253594917838974254209461   -2.986329713234999516657808272   -0.922541672044617233616747853   12.604459112765798778355019749   23.236271381832359850250213640   -4.872661342165256925795802090
  40 2   10.520126610000000155764610099    1.731661099999999953169549372    4.229479139999999581789325021    1.235501522531729623466389967   -1.929916454469372322222397997   -0.012490556007788589099050114    2.956358149238609733799876267    9.638517214591278303714716458  -16.342391815675643584881981951
  41 2    1.762981340000000063383822635   10.869558259999999805245352036    3.884804799999999946891193758    0.142188526026554962200521004    1.419441320359279945506614240   -1.674997702872196736478827006  -11.042565894689067462763887306   -9.863046375876223237355588935  -13.906328179929497323996656633
  42 2    1.702418549999999974886577547    0.084679030000000002353921502    1.168723490000000087007947513   -0.630099315274198934488936175   -0.773626192086625086297146936   -2.725300382943903976240562770    2.278029578562912771388937472   -6.740744589196097535932494793   -1.356431764888594626583540048
  43 2    2.122603059999999874918330534    3.981060900000000124521193356    0.674087349999999974059505803   -2.101466300240333318072316615   -1.404944968880693201285225769    1.262597743731082911011753822  -10.831623755587079571682807000  -15.138293630827449831599551544   26.666494353037897724334470695
  44 2    0.449506379999999983176905971    1.935586440000000019168169274    9.725751620000000485788405058   -0.482277699950307892073908533   -0.880419454445556248778359532   -0.393653929643811961724964021   -0.024119123127100423192858969   -0.415295962741970892118104075    6.001967555171232149291427049
  45 2    1.744104050000000016851231521   10.828521350000000822433321446    8.973917809999999661840774934   -0.278695357443992097756790827    0.293017076592609670981914860   -0.163782634868010257278569952    0.455118063249841997564004714   19.483955833909419652627548203  -14.827032468389914399153894919
  46 2    1.757487570000000109970983431   10.475639879999999237725205603    6.272265479999999726601345174   -4.030348463821182392052833166    1.458435554366459552255719245    1.146169883643669340500537146    5.117522615493999893487853114    9.688376387687206658938521286    0.016421174181897740113056372
  47 2   10.954229399999999117198967724    1.810007230000000078007360571    6.749824539999999650774498150    0.831103069795072868508611919   -1.013303815082383652068642732    1.537691165452607089392245143   -9.434623162551289965449541342    2.682542856325527580452217080    3.614547512879329183022036887
  48 2    1.884323650000000016646595213    3.387104480000000084061184680    3.323790339999999954301301841   -1.180450493517645860208631348   -0.420556708505333887160304585    1.020718356228710321786934401    4.171213098954712705790370819   -0.920346101586528297922029651    0.437604866343547060925089909
  49 2    1.471964999999999967883468344    7.533258390000000304098648485    0.959705699999999994886934473   -0.305318167375416393838349904    0.948773796865646890097423238    0.044459113114077020156855724   20.585363060541158830574204330  -11.765938990497845750837768719   -4.175253936539569110664160689
  50 2    1.806305309999999941794612823    7.192859089999999788744844409    8.943021319999999718675098848   -0.115927374116829740025025330    1.581800358119075156082544709   -0.015886460709519198419847896  -14.489231151934705010830839456   -7.336719644151845187707294826  -15.500294418704989141133410158
  51 2   10.728629149999999725650923210    2.286713419999999885590113990    1.623963349999999916661863608    4.157334061158064031360481749   -0.435274320503823863859338417    0.408804753153839239843136966   -3.777982451392625673491920679    2.824069166540873254689358873    9.679389521970390930505345750
  52 2    3.747839110000000140132669912    5.108256250000000164845914696    6.455353299999999627800661983   -2.048631200285551567930042438    2.781154653586924929697943298    2.419756362926384074540919755  -11.690099089093129336447418609   -3.057758288551209346906034625    0.303966053854792805921647414
  53 2    3.510420620000000102578496808    1.652877710000000055501345742    6.734096059999999717149421485   -1.571582665022581704050708140    0.157739771443350246249437419    0.335049393522060701133824523  -11.546097607288924535851037945    2.507252458338381728708554874   -1.112353250066877796697895064
  54 2    5.390971229999999891902007221    3.505739549999999926654936644    8.697857909999999748151822132   -0.399720259249398746081993750    0.844611939116185483911181109   -0.308832332391999420106998286   -7.514808911947773673034589592   23.693145055704480483882434783    2.532364085581860990714631043
  55 2   10.832870989999999977726474754    5.284404519999999827462033863    1.480132250000000038170355765   -0.014675557337199274243744185   -0.025287839716971016734703426   -0.081569787145270744588287926  -10.940011934095888790352546494    9.424067434493935024875099771   -5.554295528192731090655342996
  56 2    2.362215270000000089112290880    7.519582889999999686381215724    5.950428709999999732360720373   -3.901498456830813310602934507    0.052727751619076057565393967    1.496996379248148434371046278    2.069029874757976728005814948  -13.034436641897878317308823171    5.007310952092669964486049139
  57 2   10.852983580000000074505805969    8.615023479999999622691575496    6.894661560000000299908151646    0.080104108903908732841614437    1.576986225075691416819267943    0.520407474544013592954172509    3.930877391384313579436593500    1.013622975460192643382129063   16.182842201707600793270103168
  58 2    3.876222059999999913770807325    1.663074890000000083389863903    4.104410670000000038726284401   -1.155876278773175558356456349   -0.349369077608877531826436780    0.744518515493984400777094379   16.272534302808075779012142448   -4.568081552961509750332425028  -10.644583638794799185234296601
  59 2    5.867386759999999590320385323   10.671627049999999670149009035    3.376312050000000120064669318    0.853833199887040095177326293    0.669943787849371030773681923    0.193123277992920283629985079   -8.487446899565382452124140400   17.031699476448892482949304394   -0.697077112773720197758109407
  60 2    5.511657709999999710248630436   10.654014509999999660294633941    0.752216140000000033083438211   -1.964035687081170600265522808   -1.047175225616173932507990685    2.238567234772175673640504101    9.802879425118595335675308888   13.919162678379377595661026135   17.894984236355103490723195137
  61 2    3.900288890000000119329115478    1.674056640000000095724885796    1.640563510000000002619913175   -1.993570148496136118509980406   -0.587544094220589396826426309   -2.171913425333818370432936717   -2.966628379857723540879987922   -8.158260713731095847833785228   -2.344417714551063181005474689
  62 2    3.614812999999999831857167010    1.621164360000000081996063273    9.540652789999999328074409277    0.693299460314961146778500733    0.885519877379884690071776276   -0.954017444771130485037247126   -9.270907382921238948370046273    1.781376182792824502953976662  -14.299837397984749287616068614
  63 2    5.788870469999999990307060216    0.010757700000000000248312482    8.840197870000000790469130152   -1.116529215583740075601326680    1.800981006747661261613302486    0.127113729311689294121379135  -14.865082715450872896667533496   -8.105773960431751135047306889   -8.049096207515649581409888924
  64 2   10.896863350000000281170287053    9.156391100000000449199433206    9.644156830000000013569660950    0.343983335807172663223241216   -1.317977933393256195770959494   -1.441895239238783155144574266  -15.693896109482334821905169520    4.289504177135936124898307753   10.851040441113440238041221164
  65 2    3.484418849999999956423835101    5.083448579999999772383034724    3.793037729999999996266524249    0.776182295824482615387296391    0.593183379803397969887157615    0.960672243910007384037896827   -3.203669279662418212240027060    0.962623655584131543427872657  -16.601009653300753399207678740
  66 2    5.592534569999999760625541967    3.369782279999999907715846348    3.371224160000000136250264404    0.000165213978917166937065986    3.790846797916043620091386401    0.044305756439568175220067303   -7.290839597767450719345561083  -13.313760877559136730496902601   -9.581141519265010231265478069
  67 2    5.325381609999999987792307365    4.155090170000000249217464443    0.542552629999999980192626481    0.523795483197090905314041720    1.466830414555996942027604746    2.066033346949523341606891336   14.894879280645810126770811621   -6.592949257198799095647245849   -8.526701974605231271198135801
  68 2    8.984033070000000620325408818    7.099243900000000273564637610    6.240616669999999643891896994    1.248834427735050045527032125   -0.590670321860838676286675764    1.791131570456740984553789531   -9.229391701974655859430640703    6.243951116542427293154560175  -15.320797293858605669925054826
  69 2    3.514173149999999967718622429    5.488705000000000389093202102    9.191194440000000298596205539    2.200067881473315445362004539    0.488073669550226019175909187    0.887176964054900984990581492    6.870958038691197700131851889    8.947271048261725923111953307    2.292536723282959876257791620
  70 2    5.300510720000000119966898637    3.745419580000000081554389908    6.023561759999999765113898320    3.215655721055799443064415755   -3.839502138034888378825826294    0.026755580410583401640423062    9.555380654891568070752327912  -10.073982063061388103619719914    1.399164247302087771274159422
  71 2   10.942880849999999881561052462    5.458748560000000082936821855    9.191889789999999393899088318   -0.098719111757582300725744062   -0.890804340055728616221131233    0.537252736009313558440680936   -9.665012159262076352206349839   -3.234655742773914877119523226   10.564649560968852881615021033
  72 2    9.159881029999999313417902158    0.083711510000000002862385884    6.438247200000000169950453710   -0.394106239192721474751124333   -2.080563202632526476065777388   -1.152337463623611668595003721   29.482886700144025127201530267   13.034465751027900282110749686   -2.166452500147965309906794573
  73 2    1.734713989999999927960061541    3.596683669999999999333795131    6.294625489999999601309355057   -0.197731290872223880450420097   -1.475050941937857462704641875   -1.177761364743166172530663971   15.430372145172935205437170225   -8.122703642594064632476147381   -0.526717632287212689234934260
  74 2    6.620186880000000329005160893    1.937912840000000080920017353    0.956906119999999971170723256    1.024827822354941186944188303   -0.200354233422951999443739624    0.950444863118905081122989031    5.805836113266417797262874956    9.039803487153069028181562317    7.071643596294523881340410298
  75 2    9.019277089999999219571691356    0.757089510000000021072708023    0.855259830000000054184283726   -1.251798668617125187552119314   -2.127007213728595580448654800   -1.450202179664596524588660031    6.423301312590770528743178147   10.567433987651355664638685994  -16.058473623869939927999439533
  76 2    7.325876540000000325392193190    8.717104040000000608756636211    4.383967079999999683082023694   -0.557184626630653156986738850    2.980157449389960522267983833   -0.330596353319407509907534859    1.126103206361918740441296904   -5.800935902953989753427777032   -4.894881263251712688600036927
  77 2    7.500802010000000130673925014    1.907809260000000062262870415    3.908682530000000099335011328   -2.275287668242518712702349148   -2.826744291421271260134062686    1.551838114098417209518743221    5.038765001162714085580773826   -3.192829711891921107280722936  -17.372696968435437980815549963
  78 2    3.511436349999999873006117923    9.568796969999999291189851647    7.256765439999999678377662349    2.897914501533689790591097335    0.263259827340923013849760537   -0.367426011314183231792895867    6.544967886767241616041701491  -10.507100448285108029722323408    8.922738838351296664086476085
  79 2    8.945128199999999196734279394    7.260508220000000179084054253    9.057303799999999682768248022    1.469708759926481977942103185   -0.418066465352659066834206669   -4.313539318171764058718054002   -3.710126668124209103893917927    4.910137646104115738410200720    2.187903640754683909364075589
  80 2    7.348457840000000018676473701    1.721818340000000002731894710    9.313388079999999291658241418    0.623927613333795982875074060    0.549430484116347539469416006   -0.137108783413633861236746725   11.965615737363709314422521857   22.596268297401650215761037543    4.185860718591236206975736422
  81 2    7.714256330000000438928964286    9.094098689999999152178133954    9.645029779999999774986463308   -1.865922458508532333354423827    2.745021111961387649813559619   -1.056023816881437538128807319   -7.236005545151310336393635225   -1.479881408908235496113547924    3.221876686825966284999367417
  82 2    5.844856400000000284933321382    7.278290799999999727276644990    8.696497510000000374930095859    0.565112620847459168338389190   -0.716248062509361460570289637   -0.014002706974597156630579775   -8.846767648037300091345969122  -20.181429175853786261995992390    0.810178706494141032123934565
  83 2    9.057191319999999379319888249    7.209691880000000274719695881    3.642728359999999998564135240   -0.161504942581992771977184020   -1.073180824261870336400193082   -0.393410018848824205583980529    2.998931825385903415792654414    6.118667154033591515371881542   -1.449577642560210266609033170
  84 2    5.149134840000000323811946146    7.411208770000000001232365321    6.171599180000000295365225611    2.838812515370667366454426883   -1.543715969189739745104361646    0.439904169938329425715295429  -14.382998813039698404736554949   13.350426082675852512693381868   -0.938459477775564931967267057
  85 2    7.300659220000000004802132025    8.942661129999999403139554488    1.438412790000000107681898953   -0.534909357474592006553848478    0.803578825354375192446809706    1.481696621838811456228768293    7.136594746190094262772163347   -0.974453786728025850294443444  -11.890819836939186870949924923
  86 2    9.089107679999999689357537136    7.300772509999999826391103852    0.667789030000000005671267900    3.938590709827450186963915257   -0.773022823956657889610255552    2.762320201062002489322821930    0.257485856810090563140391851    7.904704296787792294765040424   -2.466718093771899766863953118
  87 2    7.636225399999999829958596820    5.247418050000000278032530332    9.466307190000000204577190743   -1.328612674991068276497685474    1.041519095032448216642251282   -0.641493563037536351778555854   -5.133543802221998575419092958   14.150164576281957451442394813    0.039242768822725399013862102
  88 2    4.034540859999999895535438554    8.978513209999999133970050025    9.639727609999999557999217359   -1.247091122750117353490395544    0.949858319187125044180675104    1.644261995692052336082156216    6.214841712260133377299098356   -2.440455926066707803556710132    9.857012432876059548902958340
  89 2    9.323872850000000767067831475   10.899982299999999568740349787    9.031152309999999516776370001    0.185165381975921028434584059    0.496912951373489841788710919   -1.479658604299314728081071735   -5.917595775993206963505599560    2.252831879149557625652278148   -6.677540400911539109074510634
  90 2    7.229691189999999600956925860    5.181592539999999580402345600    6.832519109999999784577084938   -0.850700832772183779262320513    0.293385679726770043362904516    1.630653653351699761131499145    2.445114912699825726605240561    6.952027415816731448217069556   -5.464988377862298740694768640
  91 2    5.481094190000000310192262987    0.416356269999999972775128754    5.907082800000000410989287047   -2.319985962835994008912621211   -0.625801548187079226259754705    0.977756125918615270897760183   -9.068494532854373346708598547  -20.651037198479777146076230565    5.796898862077425107486305933
  92 2    0.415841010000000010915499615    5.613805319999999987601313478    6.492439690000000318548245559   -1.137343924705948028375246395   -2.530659326386532015362718084    3.065179933326990457942429202    7.665486717068070277036895277    2.587083021842987662353152700   -4.462409923599245153980064060
  93 2   10.861363609999999724209374108    9.207080239999999804467734066    4.036716270000000328366240865   -0.116565109386411125402815969   -1.252715679634224699157130090    2.169134973272878408323549593   -8.171354540567136837125872262    6.804406951910105583181120892    1.616939682185371651712557650
  94 2    1.581015110000000056800217862    7.323643050000000265242761088    3.451352689999999778791561766    1.142640821341047496773057901   -2.947043459391485153986423029    1.527124555794950877540827605  -18.160024496066565546925630770   -5.911603187828760042066278402   -5.216103635594794063479184842
  95 2    3.957490710000000078139237303    9.063814439999999805763764016    4.211261989999999677536379750   -0.845545418654807590108646309    1.417669592063365069378733097    0.161489154713915950001279498    1.512626487450747791996263913    5.312394415183554485793138156    3.635248224737357425340178452
  96 2    3.236044909999999941163650874    5.997076110000000070954229159    1.548869250000000086231466412    0.873409268887406553538710341   -0.777630463978219221843346531    0.180604454158287408560568110    0.218753797350474260552388728    2.659739684760388911399786593    3.902128715225279265155222674
  97 2    5.254545040000000000190993887    7.174171109999999629280864610    0.843935270000000015144792087   -0.935241478405881787594466914    0.869297052521850854844842615   -0.409753833749598173064043749   -0.604281243669351875169581945    0.607698764714746153536850670    1.854378666117366236676389235