ITEM: TIMESTEP
29
ITEM: NUMBER OF ATOMS
96
ITEM: BOX BOUNDS xy xz yz pp pp pp
-6.4849579455069835e+00 1.2832300549287780e+01 -6.4383160712214336e+00
-4.0316757816691126e-02 1.1112971156921729e+01 5.8675002226468321e-05
5.2037918313221715e-02 1.5101262081686778e+01 -3.5212858751293515e-09
ITEM: ATOMS id type x y z
1 1     6.39121697576122     11.1113779667741     15.0992656708977
2 1  -0.0491985495211377     1.82015773072492     2.56223783730508
3 1     6.39080258325912     11.1111609576998     5.06902806715664
4 1  -0.0453639855301048     1.81795512666175     7.57545441076794
5 1  -0.0455542393672096  -0.0397074438452152      10.086049295792
6 1  -0.0495349272864918     1.82037455254832     12.5924756468052
7 1     11.2191251428407      2.7500786424094     15.0995723223672
8 1    -1.65641745967013     4.60622011984192     2.56231150983963
9 1     11.2188236721352     2.75023021137207     5.07348286645038
10 1    -1.65659029925117     4.60794082123292     7.57887803346245
11 1    -1.65446720887717     2.74701223796488     10.0830307954789
12 1    -1.65666378478311     4.60815147162571     12.5894930187823
13 1    -3.26395894379108     5.53739421632093   0.0524413599656542
14 1    -3.26637315018444     7.39519462489835     2.56231176828815
15 1     9.61244066954923     5.53594825584651     5.07089607423285
16 1    -3.26495913073421     7.39416605032569     7.57887830940864
17 1     9.61097898824944     5.53509309615423     10.0846212918672
18 1    -3.26480449518123     7.39398099005532     12.5894933540191
19 1     8.00355670680761     8.32050433960208     15.0995727453975
20 1    -4.87517646337825     10.1803429604993     2.56223832917858
21 1     8.00351790251645     8.32020032888098     5.07348325082569
22 1     -4.8751552416016     10.1847473420991     7.57545460264766
23 1    -4.87534549113359      8.3266363822027     10.0830310601617
24 1    -4.87513726363517     10.1799088152006     12.5924759947757
25 1    -3.26242518569225     11.1113785078214     15.0992661998258
26 1     3.17604278977137     1.82015823240916     2.56223837316288
27 1    -3.26208782499215     11.1111611647918     5.06902835952878
28 1     3.17224782745071     1.81795488764715     7.57545476608966
29 1     3.17205764790384  -0.0397077084830361     10.0860496541388
30 1     3.17645810270671     1.82037486209171     12.5924760382175
31 1     1.56355254903527     2.75119331138806     15.0992656968639
32 1     1.56370413859853     4.61103169920051     2.56193131785945
33 1     1.56351394535083     2.75162682260545     5.06902810134445
34 1     1.56372343299741     4.60489897548234     7.57847283814348
35 1     1.56353286753614     2.74678813574451     10.0860493610247
36 1     1.56374340321404      4.6113354279717     12.5880207996219
37 1  -0.0452500496269888     5.53634143648933      15.099192226674
38 1  -0.0477227436321166      7.3941416792911     2.55983840281912
39 1  -0.0468180797683103     5.53755443255317     5.07201052795162
40 1  -0.0437168022922651     7.39644196586413     7.57688275208837
41 1  -0.0466623671358507     5.53736917118212     10.0826257423714
42 1  -0.0451794391599047     7.39558722556654     12.5906078361432
43 1    -1.65520552592957     8.32531575551739       15.09919250175
44 1    -1.65186503797608     10.1814574201083     2.56193165666483
45 1    -1.65495844945517     8.32338390599297      5.0720108541251
46 1    -1.65715477228472     10.1845228254394     7.57847315573667
47 1     -1.6550312877605     8.32359437417433     10.0826260679348
48 1    -1.65156293670088     10.1813053012775     12.5880212951196
49 1  -0.0458411791371921     11.1122923558532     15.0991923876973
50 1     6.39262651345338       1.819243350944     2.56231188761261
51 1     6.39425233567391  -0.0402777046373645     5.07201096492321
52 1     6.39423385790725     1.81855052327934     7.57887830979389
53 1     6.41717110682538  -0.0403030706315659     10.0826260934339
54 1      6.3944813999537     1.81852561675187     12.5894934290379
55 1     4.78686338693949      2.7500787355816     15.0995728898263
56 1      4.7838241803313     4.60622017307715     2.56231171878274
57 1     4.78708763428132      2.7502305552674     5.07348330439549
58 1     4.78403821526837      4.6079408340757      7.5788784204769
59 1     4.78153290916436     2.74701224832124     10.0830312036025
60 1      4.7841494537211     4.60815156291947     12.5894933830541
61 1      3.1729171442609     5.53634101304589     15.0991923685932
62 1     3.17569299986426     7.39414140546612     2.55983842706619
63 1     3.17440850998421     5.53755432684799     5.07201078229581
64 1     3.17172811902384     7.39644213124126     7.57688256340253
65 1     3.17429195780758     5.53736936688941      10.082625694878
66 1     3.17322821683693     7.39558699227966      12.590607843859
67 1     1.56411540638423     8.32464979702543     15.1008231429246
68 1     1.56426652058675     10.1856632222887     2.55983843323593
69 1     1.56407663099933     8.32464955661432     5.06598996713867
70 1     1.56428636304984     10.1810611989945     7.57688282114114
71 1     1.56409629855585     8.32464949991255     10.0842677384964
72 1     1.56430538954453     10.1827717883335     12.5906078363932
73 1     3.17463335026337     11.1122925879811     15.0991922438839
74 1     9.61310152560852     1.81924365167775      2.5623115973879
75 1     9.61109554117924  -0.0402777336679242     5.07201062385517
76 1     9.61153406614448     1.81855050132162     7.57887795232208
77 1     9.63447137800547  -0.0403028897743067     10.0826257682037
78 1     9.61132483440659      1.8185255421457     12.5894931562773
79 1     8.00293488916216     2.74587271781949   0.0524415868687063
80 1     8.00314510909674     4.60688637160169     2.56068069564667
81 1      8.0029554393631     2.74876402600153      5.0708959670655
82 1      8.0031657439327     4.60688584765904      7.5772363310097
83 1     8.00297528100458     2.75047407931121     10.0846213078949
84 1     8.00318450621025     4.60688601831121     12.5955140737865
85 1     6.39150880916305     5.53739462092303   0.0524413977924215
86 1     6.39434318243592      7.3951951667115      2.5623116791107
87 1     6.39403278658673     5.53594867187383     5.07089621065845
88 1     6.39296964437859     7.39416622289446     7.57887822837116
89 1     6.39553360249233     5.53509339978903      10.084621454475
90 1     6.39285255265485     7.39398152590518     12.5894933428021
91 1     4.78343632575493     8.32531589625345      15.099192221207
92 1     4.78039656076203     10.1814573097884     2.56193113722513
93 1     4.78311146149619      8.3233845153607     5.07201072582599
94 1     4.78572828400372     10.1845234056756     7.57847299677489
95 1     4.78322333269335     8.32359463270164     10.0826256992207
96 1     4.78017272033177     10.1813053459103     12.5880207753115
