LAMMPS (2 Aug 2023 - Development - patch_2Aug2023-219-g06e2d5d306)
# Siviraman GAP test
log  ./output/log_2052
