LAMMPS (7 Feb 2024 - Development - patch_2Jun2022-7271-g417598498c)
OMP_NUM_THREADS environment is not set. Defaulting to 1 thread. (src/comm.cpp:98)
  using 1 OpenMP thread(s) per MPI task
log none
