110
Lattice="9.047430736655434 0.0 0.0 0.0 9.047430736655434 0.0 0.0 0.0 26.458860890475076" Properties=species:S:1:pos:R:3:forces:R:3:charge:R:1 simulation_info=1-doped energy=-1480190.9067329187 pbc="T T T"
Mg       0.00000000       0.00000000      10.58354436       0.00000000       0.00000000       0.00000000       0.37112284
O        1.50790512       1.50790512      10.58354436       0.00000000       0.00000000       0.00000000      -0.34179453
O        0.00000000       0.00000000      12.71604423       0.00000000       0.00000000       0.00000000      -0.34162914
Mg       1.50790512       1.50790512      12.71604423       0.00000000       0.00000000       0.00000000       0.33733392
Mg       0.00000000       0.00000000      14.84854410       0.00000000       0.00000000       0.00000000       0.34134406
O        1.50790512       1.50790512      14.84854410       0.00000000       0.00000000       0.00000000      -0.34076900
O        0.00000000       0.00000000      16.98104398       0.00000000       0.00000000       0.00000000      -0.30986398
Mg       1.50790512       1.50790512      16.98104398       0.00000000       0.00000000       0.00000000       0.33285616
Al       0.00000000       0.00000000      19.11354385       0.00000000       0.00000000       0.00000000       0.40015313
O        1.50790512       1.50790512      19.11354385       0.00000000       0.00000000       0.00000000      -0.29052532
O        0.00000000       0.00000000      21.24604373       0.00000000       0.00000000       0.00000000      -0.36235664
Mg       1.50790512       1.50790512      21.24604373       0.00000000       0.00000000       0.00000000       0.37265756
Mg       0.00000000       3.01581024      10.58354436       0.00000000       0.00000000       0.00000000       0.37089060
O        1.50790512       4.52371536      10.58354436       0.00000000       0.00000000       0.00000000      -0.39812929
O        0.00000000       3.01581024      12.71604423       0.00000000       0.00000000       0.00000000      -0.34159260
Mg       1.50790512       4.52371536      12.71604423       0.00000000       0.00000000       0.00000000       0.32983740
Mg       0.00000000       3.01581024      14.84854410       0.00000000       0.00000000       0.00000000       0.33813310
O        1.50790512       4.52371536      14.84854410       0.00000000       0.00000000       0.00000000      -0.34061143
O        0.00000000       3.01581024      16.98104398       0.00000000       0.00000000       0.00000000      -0.34465308
Mg       1.50790512       4.52371536      16.98104398       0.00000000       0.00000000       0.00000000       0.33372792
Mg       0.00000000       3.01581024      19.11354385       0.00000000       0.00000000       0.00000000       0.32183060
O        1.50790512       4.52371536      19.11354385       0.00000000       0.00000000       0.00000000      -0.31554725
O        0.00000000       3.01581024      21.24604373       0.00000000       0.00000000       0.00000000      -0.40529197
Mg       1.50790512       4.52371536      21.24604373       0.00000000       0.00000000       0.00000000       0.38438778
Mg       0.00000000       6.03162048      10.58354436       0.00000000       0.00000000       0.00000000       0.42799299
O        1.50790512       7.53952561      10.58354436       0.00000000       0.00000000       0.00000000      -0.39813710
O        0.00000000       6.03162048      12.71604423       0.00000000       0.00000000       0.00000000      -0.34253195
Mg       1.50790512       7.53952561      12.71604423       0.00000000       0.00000000       0.00000000       0.32984235
Mg       0.00000000       6.03162048      14.84854410       0.00000000       0.00000000       0.00000000       0.33810700
O        1.50790512       7.53952561      14.84854410       0.00000000       0.00000000       0.00000000      -0.34061173
O        0.00000000       6.03162048      16.98104398       0.00000000       0.00000000       0.00000000      -0.34464384
Mg       1.50790512       7.53952561      16.98104398       0.00000000       0.00000000       0.00000000       0.33372798
Mg       0.00000000       6.03162048      19.11354385       0.00000000       0.00000000       0.00000000       0.32182660
O        1.50790512       7.53952561      19.11354385       0.00000000       0.00000000       0.00000000      -0.31554726
O        0.00000000       6.03162048      21.24604373       0.00000000       0.00000000       0.00000000      -0.40529751
Mg       1.50790512       7.53952561      21.24604373       0.00000000       0.00000000       0.00000000       0.38438775
Mg       3.01581024       0.00000000      10.58354436       0.00000000       0.00000000       0.00000000       0.37119755
O        4.52371536       1.50790512      10.58354436       0.00000000       0.00000000       0.00000000      -0.39813496
O        3.01581024       0.00000000      12.71604423       0.00000000       0.00000000       0.00000000      -0.34159659
Mg       4.52371536       1.50790512      12.71604423       0.00000000       0.00000000       0.00000000       0.32984114
Mg       3.01581024       0.00000000      14.84854410       0.00000000       0.00000000       0.00000000       0.33813374
O        4.52371536       1.50790512      14.84854410       0.00000000       0.00000000       0.00000000      -0.34061165
O        3.01581024       0.00000000      16.98104398       0.00000000       0.00000000       0.00000000      -0.34465315
Mg       4.52371536       1.50790512      16.98104398       0.00000000       0.00000000       0.00000000       0.33372797
Mg       3.01581024       0.00000000      19.11354385       0.00000000       0.00000000       0.00000000       0.32183061
O        4.52371536       1.50790512      19.11354385       0.00000000       0.00000000       0.00000000      -0.31554726
O        3.01581024       0.00000000      21.24604373       0.00000000       0.00000000       0.00000000      -0.40529198
Mg       4.52371536       1.50790512      21.24604373       0.00000000       0.00000000       0.00000000       0.38438775
Mg       3.01581024       3.01581024      10.58354436       0.00000000       0.00000000       0.00000000       0.37103554
O        4.52371536       4.52371536      10.58354436       0.00000000       0.00000000       0.00000000      -0.39843456
O        3.01581024       3.01581024      12.71604423       0.00000000       0.00000000       0.00000000      -0.34162761
Mg       4.52371536       4.52371536      12.71604423       0.00000000       0.00000000       0.00000000       0.33143521
Mg       3.01581024       3.01581024      14.84854410       0.00000000       0.00000000       0.00000000       0.34134392
O        4.52371536       4.52371536      14.84854410       0.00000000       0.00000000       0.00000000      -0.34056687
O        3.01581024       3.01581024      16.98104398       0.00000000       0.00000000       0.00000000      -0.30986395
Mg       4.52371536       4.52371536      16.98104398       0.00000000       0.00000000       0.00000000       0.33281292
Al       3.01581024       3.01581024      19.11354385       0.00000000       0.00000000       0.00000000       0.40015314
O        4.52371536       4.52371536      19.11354385       0.00000000       0.00000000       0.00000000      -0.29051831
O        3.01581024       3.01581024      21.24604373       0.00000000       0.00000000       0.00000000      -0.36235664
Mg       4.52371536       4.52371536      21.24604373       0.00000000       0.00000000       0.00000000       0.37253299
Mg       3.01581024       6.03162048      10.58354436       0.00000000       0.00000000       0.00000000       0.42798727
O        4.52371536       7.53952561      10.58354436       0.00000000       0.00000000       0.00000000      -0.39844276
O        3.01581024       6.03162048      12.71604423       0.00000000       0.00000000       0.00000000      -0.34253198
Mg       4.52371536       7.53952561      12.71604423       0.00000000       0.00000000       0.00000000       0.33130485
Mg       3.01581024       6.03162048      14.84854410       0.00000000       0.00000000       0.00000000       0.33810693
O        4.52371536       7.53952561      14.84854410       0.00000000       0.00000000       0.00000000      -0.34057903
O        3.01581024       6.03162048      16.98104398       0.00000000       0.00000000       0.00000000      -0.34464386
Mg       4.52371536       7.53952561      16.98104398       0.00000000       0.00000000       0.00000000       0.33374112
Mg       3.01581024       6.03162048      19.11354385       0.00000000       0.00000000       0.00000000       0.32182659
O        4.52371536       7.53952561      19.11354385       0.00000000       0.00000000       0.00000000      -0.31554669
O        3.01581024       6.03162048      21.24604373       0.00000000       0.00000000       0.00000000      -0.40529751
Mg       4.52371536       7.53952561      21.24604373       0.00000000       0.00000000       0.00000000       0.38433041
Mg       6.03162048       0.00000000      10.58354436       0.00000000       0.00000000       0.00000000       0.42798289
O        7.53952561       1.50790512      10.58354436       0.00000000       0.00000000       0.00000000      -0.39813144
O        6.03162048       0.00000000      12.71604423       0.00000000       0.00000000       0.00000000      -0.34253200
Mg       7.53952561       1.50790512      12.71604423       0.00000000       0.00000000       0.00000000       0.32983862
Mg       6.03162048       0.00000000      14.84854410       0.00000000       0.00000000       0.00000000       0.33810692
O        7.53952561       1.50790512      14.84854410       0.00000000       0.00000000       0.00000000      -0.34061151
O        6.03162048       0.00000000      16.98104398       0.00000000       0.00000000       0.00000000      -0.34464387
Mg       7.53952561       1.50790512      16.98104398       0.00000000       0.00000000       0.00000000       0.33372793
Mg       6.03162048       0.00000000      19.11354385       0.00000000       0.00000000       0.00000000       0.32182659
O        7.53952561       1.50790512      19.11354385       0.00000000       0.00000000       0.00000000      -0.31554725
O        6.03162048       0.00000000      21.24604373       0.00000000       0.00000000       0.00000000      -0.40529752
Mg       7.53952561       1.50790512      21.24604373       0.00000000       0.00000000       0.00000000       0.38438778
Mg       6.03162048       3.01581024      10.58354436       0.00000000       0.00000000       0.00000000       0.42799732
O        7.53952561       4.52371536      10.58354436       0.00000000       0.00000000       0.00000000      -0.39843637
O        6.03162048       3.01581024      12.71604423       0.00000000       0.00000000       0.00000000      -0.34253193
Mg       7.53952561       4.52371536      12.71604423       0.00000000       0.00000000       0.00000000       0.33130352
Mg       6.03162048       3.01581024      14.84854410       0.00000000       0.00000000       0.00000000       0.33810702
O        7.53952561       4.52371536      14.84854410       0.00000000       0.00000000       0.00000000      -0.34057871
O        6.03162048       3.01581024      16.98104398       0.00000000       0.00000000       0.00000000      -0.34464383
Mg       7.53952561       4.52371536      16.98104398       0.00000000       0.00000000       0.00000000       0.33374114
Mg       6.03162048       3.01581024      19.11354385       0.00000000       0.00000000       0.00000000       0.32182660
O        7.53952561       4.52371536      19.11354385       0.00000000       0.00000000       0.00000000      -0.31554668
O        6.03162048       3.01581024      21.24604373       0.00000000       0.00000000       0.00000000      -0.40529751
Mg       7.53952561       4.52371536      21.24604373       0.00000000       0.00000000       0.00000000       0.38433049
Mg       6.03162048       6.03162048      10.58354436       0.00000000       0.00000000       0.00000000       0.42655190
O        7.53952561       7.53952561      10.58354436       0.00000000       0.00000000       0.00000000      -0.39843698
O        6.03162048       6.03162048      12.71604423       0.00000000       0.00000000       0.00000000      -0.34244742
Mg       7.53952561       7.53952561      12.71604423       0.00000000       0.00000000       0.00000000       0.33143561
Mg       6.03162048       6.03162048      14.84854410       0.00000000       0.00000000       0.00000000       0.34146385
O        7.53952561       7.53952561      14.84854410       0.00000000       0.00000000       0.00000000      -0.34056698
O        6.03162048       6.03162048      16.98104398       0.00000000       0.00000000       0.00000000      -0.30982619
Mg       7.53952561       7.53952561      16.98104398       0.00000000       0.00000000       0.00000000       0.33281291
Al       6.03162048       6.03162048      19.11354385       0.00000000       0.00000000       0.00000000       0.40016664
O        7.53952561       7.53952561      19.11354385       0.00000000       0.00000000       0.00000000      -0.29051831
O        6.03162048       6.03162048      21.24604373       0.00000000       0.00000000       0.00000000      -0.36236881
Mg       7.53952561       7.53952561      21.24604373       0.00000000       0.00000000       0.00000000       0.37253298
Au       1.50675405       1.51013501       8.25357967       0.00023019       0.00034174      -0.00005947       0.01399647
Au       1.50502453       1.51554476       5.69542078      -0.00006317      -0.00011594       0.00011856      -0.24090603
