110
Lattice="9.047430736655434 0.0 0.0 0.0 9.047430736655434 0.0 0.0 0.0 26.458860890475076" Properties=species:S:1:pos:R:3:forces:R:3:charge:R:1 simulation_info=1-undoped energy=-1476723.6744394903 pbc="T T T"
Mg       0.00000000       0.00000000      10.58354436       0.00000000       0.00000000       0.00000000       0.36962203
O        1.50790512       1.50790512      10.58354436       0.00000000       0.00000000       0.00000000      -0.30701552
O        0.00000000       0.00000000      12.71604423       0.00000000       0.00000000       0.00000000      -0.34083070
Mg       1.50790512       1.50790512      12.71604423       0.00000000       0.00000000       0.00000000       0.34398586
Mg       0.00000000       0.00000000      14.84854410       0.00000000       0.00000000       0.00000000       0.34107368
O        1.50790512       1.50790512      14.84854410       0.00000000       0.00000000       0.00000000      -0.34051080
O        0.00000000       0.00000000      16.98104398       0.00000000       0.00000000       0.00000000      -0.34023568
Mg       1.50790512       1.50790512      16.98104398       0.00000000       0.00000000       0.00000000       0.34115533
Mg       0.00000000       0.00000000      19.11354385       0.00000000       0.00000000       0.00000000       0.33280329
O        1.50790512       1.50790512      19.11354385       0.00000000       0.00000000       0.00000000      -0.34209266
O        0.00000000       0.00000000      21.24604373       0.00000000       0.00000000       0.00000000      -0.40041763
Mg       1.50790512       1.50790512      21.24604373       0.00000000       0.00000000       0.00000000       0.41258938
Mg       0.00000000       3.01581024      10.58354436       0.00000000       0.00000000       0.00000000       0.36967543
O        1.50790512       4.52371536      10.58354436       0.00000000       0.00000000       0.00000000      -0.39774603
O        0.00000000       3.01581024      12.71604423       0.00000000       0.00000000       0.00000000      -0.34083124
Mg       1.50790512       4.52371536      12.71604423       0.00000000       0.00000000       0.00000000       0.33107901
Mg       0.00000000       3.01581024      14.84854410       0.00000000       0.00000000       0.00000000       0.34107378
O        1.50790512       4.52371536      14.84854410       0.00000000       0.00000000       0.00000000      -0.34025651
O        0.00000000       3.01581024      16.98104398       0.00000000       0.00000000       0.00000000      -0.34023569
Mg       1.50790512       4.52371536      16.98104398       0.00000000       0.00000000       0.00000000       0.34105118
Mg       0.00000000       3.01581024      19.11354385       0.00000000       0.00000000       0.00000000       0.33280329
O        1.50790512       4.52371536      19.11354385       0.00000000       0.00000000       0.00000000      -0.34208522
O        0.00000000       3.01581024      21.24604373       0.00000000       0.00000000       0.00000000      -0.40041762
Mg       1.50790512       4.52371536      21.24604373       0.00000000       0.00000000       0.00000000       0.41260341
Mg       0.00000000       6.03162048      10.58354436       0.00000000       0.00000000       0.00000000       0.42099664
O        1.50790512       7.53952561      10.58354436       0.00000000       0.00000000       0.00000000      -0.39774411
O        0.00000000       6.03162048      12.71604423       0.00000000       0.00000000       0.00000000      -0.34224907
Mg       1.50790512       7.53952561      12.71604423       0.00000000       0.00000000       0.00000000       0.33107787
Mg       0.00000000       6.03162048      14.84854410       0.00000000       0.00000000       0.00000000       0.34090668
O        1.50790512       7.53952561      14.84854410       0.00000000       0.00000000       0.00000000      -0.34025645
O        0.00000000       6.03162048      16.98104398       0.00000000       0.00000000       0.00000000      -0.34020258
Mg       1.50790512       7.53952561      16.98104398       0.00000000       0.00000000       0.00000000       0.34105116
Mg       0.00000000       6.03162048      19.11354385       0.00000000       0.00000000       0.00000000       0.33279597
O        1.50790512       7.53952561      19.11354385       0.00000000       0.00000000       0.00000000      -0.34208521
O        0.00000000       6.03162048      21.24604373       0.00000000       0.00000000       0.00000000      -0.40041524
Mg       1.50790512       7.53952561      21.24604373       0.00000000       0.00000000       0.00000000       0.41260333
Mg       3.01581024       0.00000000      10.58354436       0.00000000       0.00000000       0.00000000       0.36974396
O        4.52371536       1.50790512      10.58354436       0.00000000       0.00000000       0.00000000      -0.39774851
O        3.01581024       0.00000000      12.71604423       0.00000000       0.00000000       0.00000000      -0.34083079
Mg       4.52371536       1.50790512      12.71604423       0.00000000       0.00000000       0.00000000       0.33107926
Mg       3.01581024       0.00000000      14.84854410       0.00000000       0.00000000       0.00000000       0.34107400
O        4.52371536       1.50790512      14.84854410       0.00000000       0.00000000       0.00000000      -0.34025652
O        3.01581024       0.00000000      16.98104398       0.00000000       0.00000000       0.00000000      -0.34023570
Mg       4.52371536       1.50790512      16.98104398       0.00000000       0.00000000       0.00000000       0.34105118
Mg       3.01581024       0.00000000      19.11354385       0.00000000       0.00000000       0.00000000       0.33280329
O        4.52371536       1.50790512      19.11354385       0.00000000       0.00000000       0.00000000      -0.34208522
O        3.01581024       0.00000000      21.24604373       0.00000000       0.00000000       0.00000000      -0.40041762
Mg       4.52371536       1.50790512      21.24604373       0.00000000       0.00000000       0.00000000       0.41260341
Mg       3.01581024       3.01581024      10.58354436       0.00000000       0.00000000       0.00000000       0.36979723
O        4.52371536       4.52371536      10.58354436       0.00000000       0.00000000       0.00000000      -0.39953018
O        3.01581024       3.01581024      12.71604423       0.00000000       0.00000000       0.00000000      -0.34083133
Mg       4.52371536       4.52371536      12.71604423       0.00000000       0.00000000       0.00000000       0.33287849
Mg       3.01581024       3.01581024      14.84854410       0.00000000       0.00000000       0.00000000       0.34107409
O        4.52371536       4.52371536      14.84854410       0.00000000       0.00000000       0.00000000      -0.34008549
O        3.01581024       3.01581024      16.98104398       0.00000000       0.00000000       0.00000000      -0.34023571
Mg       4.52371536       4.52371536      16.98104398       0.00000000       0.00000000       0.00000000       0.34108194
Mg       3.01581024       3.01581024      19.11354385       0.00000000       0.00000000       0.00000000       0.33280329
O        4.52371536       4.52371536      19.11354385       0.00000000       0.00000000       0.00000000      -0.34207857
O        3.01581024       3.01581024      21.24604373       0.00000000       0.00000000       0.00000000      -0.40041762
Mg       4.52371536       4.52371536      21.24604373       0.00000000       0.00000000       0.00000000       0.41261544
Mg       3.01581024       6.03162048      10.58354436       0.00000000       0.00000000       0.00000000       0.42099233
O        4.52371536       7.53952561      10.58354436       0.00000000       0.00000000       0.00000000      -0.39952940
O        3.01581024       6.03162048      12.71604423       0.00000000       0.00000000       0.00000000      -0.34224892
Mg       4.52371536       7.53952561      12.71604423       0.00000000       0.00000000       0.00000000       0.33287825
Mg       3.01581024       6.03162048      14.84854410       0.00000000       0.00000000       0.00000000       0.34090658
O        4.52371536       7.53952561      14.84854410       0.00000000       0.00000000       0.00000000      -0.34008546
O        3.01581024       6.03162048      16.98104398       0.00000000       0.00000000       0.00000000      -0.34020261
Mg       4.52371536       7.53952561      16.98104398       0.00000000       0.00000000       0.00000000       0.34108195
Mg       3.01581024       6.03162048      19.11354385       0.00000000       0.00000000       0.00000000       0.33279596
O        4.52371536       7.53952561      19.11354385       0.00000000       0.00000000       0.00000000      -0.34207857
O        3.01581024       6.03162048      21.24604373       0.00000000       0.00000000       0.00000000      -0.40041524
Mg       4.52371536       7.53952561      21.24604373       0.00000000       0.00000000       0.00000000       0.41261537
Mg       6.03162048       0.00000000      10.58354436       0.00000000       0.00000000       0.00000000       0.42099592
O        7.53952561       1.50790512      10.58354436       0.00000000       0.00000000       0.00000000      -0.39774163
O        6.03162048       0.00000000      12.71604423       0.00000000       0.00000000       0.00000000      -0.34224902
Mg       7.53952561       1.50790512      12.71604423       0.00000000       0.00000000       0.00000000       0.33107762
Mg       6.03162048       0.00000000      14.84854410       0.00000000       0.00000000       0.00000000       0.34090664
O        7.53952561       1.50790512      14.84854410       0.00000000       0.00000000       0.00000000      -0.34025644
O        6.03162048       0.00000000      16.98104398       0.00000000       0.00000000       0.00000000      -0.34020259
Mg       7.53952561       1.50790512      16.98104398       0.00000000       0.00000000       0.00000000       0.34105116
Mg       6.03162048       0.00000000      19.11354385       0.00000000       0.00000000       0.00000000       0.33279597
O        7.53952561       1.50790512      19.11354385       0.00000000       0.00000000       0.00000000      -0.34208521
O        6.03162048       0.00000000      21.24604373       0.00000000       0.00000000       0.00000000      -0.40041524
Mg       7.53952561       1.50790512      21.24604373       0.00000000       0.00000000       0.00000000       0.41260333
Mg       6.03162048       3.01581024      10.58354436       0.00000000       0.00000000       0.00000000       0.42099305
O        7.53952561       4.52371536      10.58354436       0.00000000       0.00000000       0.00000000      -0.39952856
O        6.03162048       3.01581024      12.71604423       0.00000000       0.00000000       0.00000000      -0.34224897
Mg       7.53952561       4.52371536      12.71604423       0.00000000       0.00000000       0.00000000       0.33287787
Mg       6.03162048       3.01581024      14.84854410       0.00000000       0.00000000       0.00000000       0.34090661
O        7.53952561       4.52371536      14.84854410       0.00000000       0.00000000       0.00000000      -0.34008551
O        6.03162048       3.01581024      16.98104398       0.00000000       0.00000000       0.00000000      -0.34020260
Mg       7.53952561       4.52371536      16.98104398       0.00000000       0.00000000       0.00000000       0.34108194
Mg       6.03162048       3.01581024      19.11354385       0.00000000       0.00000000       0.00000000       0.33279596
O        7.53952561       4.52371536      19.11354385       0.00000000       0.00000000       0.00000000      -0.34207857
O        6.03162048       3.01581024      21.24604373       0.00000000       0.00000000       0.00000000      -0.40041524
Mg       7.53952561       4.52371536      21.24604373       0.00000000       0.00000000       0.00000000       0.41261538
Mg       6.03162048       6.03162048      10.58354436       0.00000000       0.00000000       0.00000000       0.41934878
O        7.53952561       7.53952561      10.58354436       0.00000000       0.00000000       0.00000000      -0.39952777
O        6.03162048       6.03162048      12.71604423       0.00000000       0.00000000       0.00000000      -0.34226270
Mg       7.53952561       7.53952561      12.71604423       0.00000000       0.00000000       0.00000000       0.33287763
Mg       6.03162048       6.03162048      14.84854410       0.00000000       0.00000000       0.00000000       0.34115860
O        7.53952561       7.53952561      14.84854410       0.00000000       0.00000000       0.00000000      -0.34008547
O        6.03162048       6.03162048      16.98104398       0.00000000       0.00000000       0.00000000      -0.34015327
Mg       7.53952561       7.53952561      16.98104398       0.00000000       0.00000000       0.00000000       0.34108194
Mg       6.03162048       6.03162048      19.11354385       0.00000000       0.00000000       0.00000000       0.33280567
O        7.53952561       7.53952561      19.11354385       0.00000000       0.00000000       0.00000000      -0.34207856
O        6.03162048       6.03162048      21.24604373       0.00000000       0.00000000       0.00000000      -0.40041342
Mg       7.53952561       7.53952561      21.24604373       0.00000000       0.00000000       0.00000000       0.41261531
Au       1.50672133       1.50737449       8.39521635       0.00043203      -0.00049848      -0.00000132       0.11644642
Au       1.50486238       1.50550015       5.87978676      -0.00000382       0.00026927      -0.00001938      -0.13788350
