110
Lattice="9.047430736655434 0.0 0.0 0.0 9.047430736655434 0.0 0.0 0.0 26.458860890475076" Properties=species:S:1:pos:R:3:forces:R:3:charge:R:1 simulation_info=3-undoped energy=-1476722.7396195226 pbc="T T T"
Mg       0.00000000       0.00000000      10.58354436       0.00000000       0.00000000       0.00000000       0.40982595
O        1.50790512       1.50790512      10.58354436       0.00000000       0.00000000       0.00000000      -0.40033513
O        0.00000000       0.00000000      12.71604423       0.00000000       0.00000000       0.00000000      -0.34086054
Mg       1.50790512       1.50790512      12.71604423       0.00000000       0.00000000       0.00000000       0.33269860
Mg       0.00000000       0.00000000      14.84854410       0.00000000       0.00000000       0.00000000       0.34108801
O        1.50790512       1.50790512      14.84854410       0.00000000       0.00000000       0.00000000      -0.34013036
O        0.00000000       0.00000000      16.98104398       0.00000000       0.00000000       0.00000000      -0.34023260
Mg       1.50790512       1.50790512      16.98104398       0.00000000       0.00000000       0.00000000       0.34107256
Mg       0.00000000       0.00000000      19.11354385       0.00000000       0.00000000       0.00000000       0.33284879
O        1.50790512       1.50790512      19.11354385       0.00000000       0.00000000       0.00000000      -0.34205192
O        0.00000000       0.00000000      21.24604373       0.00000000       0.00000000       0.00000000      -0.40052318
Mg       1.50790512       1.50790512      21.24604373       0.00000000       0.00000000       0.00000000       0.41084457
Mg       0.00000000       3.01581024      10.58354436       0.00000000       0.00000000       0.00000000       0.40982579
O        1.50790512       4.52371536      10.58354436       0.00000000       0.00000000       0.00000000      -0.38986671
O        0.00000000       3.01581024      12.71604423       0.00000000       0.00000000       0.00000000      -0.34086048
Mg       1.50790512       4.52371536      12.71604423       0.00000000       0.00000000       0.00000000       0.33359297
Mg       0.00000000       3.01581024      14.84854410       0.00000000       0.00000000       0.00000000       0.34108802
O        1.50790512       4.52371536      14.84854410       0.00000000       0.00000000       0.00000000      -0.34023376
O        0.00000000       3.01581024      16.98104398       0.00000000       0.00000000       0.00000000      -0.34023260
Mg       1.50790512       4.52371536      16.98104398       0.00000000       0.00000000       0.00000000       0.34107765
Mg       0.00000000       3.01581024      19.11354385       0.00000000       0.00000000       0.00000000       0.33284879
O        1.50790512       4.52371536      19.11354385       0.00000000       0.00000000       0.00000000      -0.34205188
O        0.00000000       3.01581024      21.24604373       0.00000000       0.00000000       0.00000000      -0.40052318
Mg       1.50790512       4.52371536      21.24604373       0.00000000       0.00000000       0.00000000       0.41084535
Mg       0.00000000       6.03162048      10.58354436       0.00000000       0.00000000       0.00000000       0.39544962
O        1.50790512       7.53952561      10.58354436       0.00000000       0.00000000       0.00000000      -0.38986757
O        0.00000000       6.03162048      12.71604423       0.00000000       0.00000000       0.00000000      -0.34113653
Mg       1.50790512       7.53952561      12.71604423       0.00000000       0.00000000       0.00000000       0.33359285
Mg       0.00000000       6.03162048      14.84854410       0.00000000       0.00000000       0.00000000       0.34111649
O        1.50790512       7.53952561      14.84854410       0.00000000       0.00000000       0.00000000      -0.34023375
O        0.00000000       6.03162048      16.98104398       0.00000000       0.00000000       0.00000000      -0.34023337
Mg       1.50790512       7.53952561      16.98104398       0.00000000       0.00000000       0.00000000       0.34107765
Mg       0.00000000       6.03162048      19.11354385       0.00000000       0.00000000       0.00000000       0.33285064
O        1.50790512       7.53952561      19.11354385       0.00000000       0.00000000       0.00000000      -0.34205188
O        0.00000000       6.03162048      21.24604373       0.00000000       0.00000000       0.00000000      -0.40052311
Mg       1.50790512       7.53952561      21.24604373       0.00000000       0.00000000       0.00000000       0.41084535
Mg       3.01581024       0.00000000      10.58354436       0.00000000       0.00000000       0.00000000       0.40371525
O        4.52371536       1.50790512      10.58354436       0.00000000       0.00000000       0.00000000      -0.40041160
O        3.01581024       0.00000000      12.71604423       0.00000000       0.00000000       0.00000000      -0.34191198
Mg       4.52371536       1.50790512      12.71604423       0.00000000       0.00000000       0.00000000       0.33307855
Mg       3.01581024       0.00000000      14.84854410       0.00000000       0.00000000       0.00000000       0.34102595
O        4.52371536       1.50790512      14.84854410       0.00000000       0.00000000       0.00000000      -0.34013117
O        3.01581024       0.00000000      16.98104398       0.00000000       0.00000000       0.00000000      -0.34019982
Mg       4.52371536       1.50790512      16.98104398       0.00000000       0.00000000       0.00000000       0.34107466
Mg       3.01581024       0.00000000      19.11354385       0.00000000       0.00000000       0.00000000       0.33284905
O        4.52371536       1.50790512      19.11354385       0.00000000       0.00000000       0.00000000      -0.34204595
O        3.01581024       0.00000000      21.24604373       0.00000000       0.00000000       0.00000000      -0.40052165
Mg       4.52371536       1.50790512      21.24604373       0.00000000       0.00000000       0.00000000       0.41085533
Mg       3.01581024       3.01581024      10.58354436       0.00000000       0.00000000       0.00000000       0.40371397
O        4.52371536       4.52371536      10.58354436       0.00000000       0.00000000       0.00000000      -0.39465681
O        3.01581024       3.01581024      12.71604423       0.00000000       0.00000000       0.00000000      -0.34191195
Mg       4.52371536       4.52371536      12.71604423       0.00000000       0.00000000       0.00000000       0.33181651
Mg       3.01581024       3.01581024      14.84854410       0.00000000       0.00000000       0.00000000       0.34102595
O        4.52371536       4.52371536      14.84854410       0.00000000       0.00000000       0.00000000      -0.34016604
O        3.01581024       3.01581024      16.98104398       0.00000000       0.00000000       0.00000000      -0.34019983
Mg       4.52371536       4.52371536      16.98104398       0.00000000       0.00000000       0.00000000       0.34106192
Mg       3.01581024       3.01581024      19.11354385       0.00000000       0.00000000       0.00000000       0.33284905
O        4.52371536       4.52371536      19.11354385       0.00000000       0.00000000       0.00000000      -0.34204597
O        3.01581024       3.01581024      21.24604373       0.00000000       0.00000000       0.00000000      -0.40052165
Mg       4.52371536       4.52371536      21.24604373       0.00000000       0.00000000       0.00000000       0.41085649
Mg       3.01581024       6.03162048      10.58354436       0.00000000       0.00000000       0.00000000       0.30731690
O        4.52371536       7.53952561      10.58354436       0.00000000       0.00000000       0.00000000      -0.39465722
O        3.01581024       6.03162048      12.71604423       0.00000000       0.00000000       0.00000000      -0.34049099
Mg       4.52371536       7.53952561      12.71604423       0.00000000       0.00000000       0.00000000       0.33181654
Mg       3.01581024       6.03162048      14.84854410       0.00000000       0.00000000       0.00000000       0.34087523
O        4.52371536       7.53952561      14.84854410       0.00000000       0.00000000       0.00000000      -0.34016604
O        3.01581024       6.03162048      16.98104398       0.00000000       0.00000000       0.00000000      -0.34020664
Mg       4.52371536       7.53952561      16.98104398       0.00000000       0.00000000       0.00000000       0.34106192
Mg       3.01581024       6.03162048      19.11354385       0.00000000       0.00000000       0.00000000       0.33284767
O        4.52371536       7.53952561      19.11354385       0.00000000       0.00000000       0.00000000      -0.34204597
O        3.01581024       6.03162048      21.24604373       0.00000000       0.00000000       0.00000000      -0.40052143
Mg       4.52371536       7.53952561      21.24604373       0.00000000       0.00000000       0.00000000       0.41085649
Mg       6.03162048       0.00000000      10.58354436       0.00000000       0.00000000       0.00000000       0.40371369
O        7.53952561       1.50790512      10.58354436       0.00000000       0.00000000       0.00000000      -0.40033548
O        6.03162048       0.00000000      12.71604423       0.00000000       0.00000000       0.00000000      -0.34191297
Mg       7.53952561       1.50790512      12.71604423       0.00000000       0.00000000       0.00000000       0.33269915
Mg       6.03162048       0.00000000      14.84854410       0.00000000       0.00000000       0.00000000       0.34102594
O        7.53952561       1.50790512      14.84854410       0.00000000       0.00000000       0.00000000      -0.34013017
O        6.03162048       0.00000000      16.98104398       0.00000000       0.00000000       0.00000000      -0.34019980
Mg       7.53952561       1.50790512      16.98104398       0.00000000       0.00000000       0.00000000       0.34107258
Mg       6.03162048       0.00000000      19.11354385       0.00000000       0.00000000       0.00000000       0.33284905
O        7.53952561       1.50790512      19.11354385       0.00000000       0.00000000       0.00000000      -0.34205192
O        6.03162048       0.00000000      21.24604373       0.00000000       0.00000000       0.00000000      -0.40052165
Mg       7.53952561       1.50790512      21.24604373       0.00000000       0.00000000       0.00000000       0.41084456
Mg       6.03162048       3.01581024      10.58354436       0.00000000       0.00000000       0.00000000       0.40371284
O        7.53952561       4.52371536      10.58354436       0.00000000       0.00000000       0.00000000      -0.38989333
O        6.03162048       3.01581024      12.71604423       0.00000000       0.00000000       0.00000000      -0.34191295
Mg       7.53952561       4.52371536      12.71604423       0.00000000       0.00000000       0.00000000       0.33359075
Mg       6.03162048       3.01581024      14.84854410       0.00000000       0.00000000       0.00000000       0.34102593
O        7.53952561       4.52371536      14.84854410       0.00000000       0.00000000       0.00000000      -0.34023368
O        6.03162048       3.01581024      16.98104398       0.00000000       0.00000000       0.00000000      -0.34019980
Mg       7.53952561       4.52371536      16.98104398       0.00000000       0.00000000       0.00000000       0.34107763
Mg       6.03162048       3.01581024      19.11354385       0.00000000       0.00000000       0.00000000       0.33284905
O        7.53952561       4.52371536      19.11354385       0.00000000       0.00000000       0.00000000      -0.34205187
O        6.03162048       3.01581024      21.24604373       0.00000000       0.00000000       0.00000000      -0.40052165
Mg       7.53952561       4.52371536      21.24604373       0.00000000       0.00000000       0.00000000       0.41084534
Mg       6.03162048       6.03162048      10.58354436       0.00000000       0.00000000       0.00000000       0.30737386
O        7.53952561       7.53952561      10.58354436       0.00000000       0.00000000       0.00000000      -0.38989384
O        6.03162048       6.03162048      12.71604423       0.00000000       0.00000000       0.00000000      -0.34049351
Mg       7.53952561       7.53952561      12.71604423       0.00000000       0.00000000       0.00000000       0.33359070
Mg       6.03162048       6.03162048      14.84854410       0.00000000       0.00000000       0.00000000       0.34087528
O        7.53952561       7.53952561      14.84854410       0.00000000       0.00000000       0.00000000      -0.34023368
O        6.03162048       6.03162048      16.98104398       0.00000000       0.00000000       0.00000000      -0.34020662
Mg       7.53952561       7.53952561      16.98104398       0.00000000       0.00000000       0.00000000       0.34107763
Mg       6.03162048       6.03162048      19.11354385       0.00000000       0.00000000       0.00000000       0.33284767
O        7.53952561       7.53952561      19.11354385       0.00000000       0.00000000       0.00000000      -0.34205187
O        6.03162048       6.03162048      21.24604373       0.00000000       0.00000000       0.00000000      -0.40052143
Mg       7.53952561       7.53952561      21.24604373       0.00000000       0.00000000       0.00000000       0.41084534
Au       5.79438348       6.03159157       7.68591758      -0.00023815      -0.00000323      -0.00012501       0.09267214
Au       3.25003759       6.03157700       7.68604011      -0.00012498      -0.00000178       0.00005670       0.09264715
