110
Lattice="9.047430736655434 0.0 0.0 0.0 9.047430736655434 0.0 0.0 0.0 26.458860890475076" Properties=species:S:1:pos:R:3:forces:R:3 simulation_info=my_1-doped energy=-1476723.6744394903 pbc="T T T"
Mg       0.00000000       0.00000000      10.58354436       0.00000000       0.00000000       0.00000000
O        1.50790512       1.50790512      10.58354436       0.00000000       0.00000000       0.00000000
O        0.00000000       0.00000000      12.71604423       0.00000000       0.00000000       0.00000000
Mg       1.50790512       1.50790512      12.71604423       0.00000000       0.00000000       0.00000000
Mg       0.00000000       0.00000000      14.84854410       0.00000000       0.00000000       0.00000000
O        1.50790512       1.50790512      14.84854410       0.00000000       0.00000000       0.00000000
O        0.00000000       0.00000000      16.98104398       0.00000000       0.00000000       0.00000000
Mg       1.50790512       1.50790512      16.98104398       0.00000000       0.00000000       0.00000000
Al       0.00000000       0.00000000      19.11354385       0.00000000       0.00000000       0.00000000
O        1.50790512       1.50790512      19.11354385       0.00000000       0.00000000       0.00000000
O        0.00000000       0.00000000      21.24604373       0.00000000       0.00000000       0.00000000
Mg       1.50790512       1.50790512      21.24604373       0.00000000       0.00000000       0.00000000
Mg       0.00000000       3.01581024      10.58354436       0.00000000       0.00000000       0.00000000
O        1.50790512       4.52371536      10.58354436       0.00000000       0.00000000       0.00000000
O        0.00000000       3.01581024      12.71604423       0.00000000       0.00000000       0.00000000
Mg       1.50790512       4.52371536      12.71604423       0.00000000       0.00000000       0.00000000
Mg       0.00000000       3.01581024      14.84854410       0.00000000       0.00000000       0.00000000
O        1.50790512       4.52371536      14.84854410       0.00000000       0.00000000       0.00000000
O        0.00000000       3.01581024      16.98104398       0.00000000       0.00000000       0.00000000
Mg       1.50790512       4.52371536      16.98104398       0.00000000       0.00000000       0.00000000
Mg       0.00000000       3.01581024      19.11354385       0.00000000       0.00000000       0.00000000
O        1.50790512       4.52371536      19.11354385       0.00000000       0.00000000       0.00000000
O        0.00000000       3.01581024      21.24604373       0.00000000       0.00000000       0.00000000
Mg       1.50790512       4.52371536      21.24604373       0.00000000       0.00000000       0.00000000
Mg       0.00000000       6.03162048      10.58354436       0.00000000       0.00000000       0.00000000
O        1.50790512       7.53952561      10.58354436       0.00000000       0.00000000       0.00000000
O        0.00000000       6.03162048      12.71604423       0.00000000       0.00000000       0.00000000
Mg       1.50790512       7.53952561      12.71604423       0.00000000       0.00000000       0.00000000
Mg       0.00000000       6.03162048      14.84854410       0.00000000       0.00000000       0.00000000
O        1.50790512       7.53952561      14.84854410       0.00000000       0.00000000       0.00000000
O        0.00000000       6.03162048      16.98104398       0.00000000       0.00000000       0.00000000
Mg       1.50790512       7.53952561      16.98104398       0.00000000       0.00000000       0.00000000
Mg       0.00000000       6.03162048      19.11354385       0.00000000       0.00000000       0.00000000
O        1.50790512       7.53952561      19.11354385       0.00000000       0.00000000       0.00000000
O        0.00000000       6.03162048      21.24604373       0.00000000       0.00000000       0.00000000
Mg       1.50790512       7.53952561      21.24604373       0.00000000       0.00000000       0.00000000
Mg       3.01581024       0.00000000      10.58354436       0.00000000       0.00000000       0.00000000
O        4.52371536       1.50790512      10.58354436       0.00000000       0.00000000       0.00000000
O        3.01581024       0.00000000      12.71604423       0.00000000       0.00000000       0.00000000
Mg       4.52371536       1.50790512      12.71604423       0.00000000       0.00000000       0.00000000
Mg       3.01581024       0.00000000      14.84854410       0.00000000       0.00000000       0.00000000
O        4.52371536       1.50790512      14.84854410       0.00000000       0.00000000       0.00000000
O        3.01581024       0.00000000      16.98104398       0.00000000       0.00000000       0.00000000
Mg       4.52371536       1.50790512      16.98104398       0.00000000       0.00000000       0.00000000
Mg       3.01581024       0.00000000      19.11354385       0.00000000       0.00000000       0.00000000
O        4.52371536       1.50790512      19.11354385       0.00000000       0.00000000       0.00000000
O        3.01581024       0.00000000      21.24604373       0.00000000       0.00000000       0.00000000
Mg       4.52371536       1.50790512      21.24604373       0.00000000       0.00000000       0.00000000
Mg       3.01581024       3.01581024      10.58354436       0.00000000       0.00000000       0.00000000
O        4.52371536       4.52371536      10.58354436       0.00000000       0.00000000       0.00000000
O        3.01581024       3.01581024      12.71604423       0.00000000       0.00000000       0.00000000
Mg       4.52371536       4.52371536      12.71604423       0.00000000       0.00000000       0.00000000
Mg       3.01581024       3.01581024      14.84854410       0.00000000       0.00000000       0.00000000
O        4.52371536       4.52371536      14.84854410       0.00000000       0.00000000       0.00000000
O        3.01581024       3.01581024      16.98104398       0.00000000       0.00000000       0.00000000
Mg       4.52371536       4.52371536      16.98104398       0.00000000       0.00000000       0.00000000
Al       3.01581024       3.01581024      19.11354385       0.00000000       0.00000000       0.00000000
O        4.52371536       4.52371536      19.11354385       0.00000000       0.00000000       0.00000000
O        3.01581024       3.01581024      21.24604373       0.00000000       0.00000000       0.00000000
Mg       4.52371536       4.52371536      21.24604373       0.00000000       0.00000000       0.00000000
Mg       3.01581024       6.03162048      10.58354436       0.00000000       0.00000000       0.00000000
O        4.52371536       7.53952561      10.58354436       0.00000000       0.00000000       0.00000000
O        3.01581024       6.03162048      12.71604423       0.00000000       0.00000000       0.00000000
Mg       4.52371536       7.53952561      12.71604423       0.00000000       0.00000000       0.00000000
Mg       3.01581024       6.03162048      14.84854410       0.00000000       0.00000000       0.00000000
O        4.52371536       7.53952561      14.84854410       0.00000000       0.00000000       0.00000000
O        3.01581024       6.03162048      16.98104398       0.00000000       0.00000000       0.00000000
Mg       4.52371536       7.53952561      16.98104398       0.00000000       0.00000000       0.00000000
Mg       3.01581024       6.03162048      19.11354385       0.00000000       0.00000000       0.00000000
O        4.52371536       7.53952561      19.11354385       0.00000000       0.00000000       0.00000000
O        3.01581024       6.03162048      21.24604373       0.00000000       0.00000000       0.00000000
Mg       4.52371536       7.53952561      21.24604373       0.00000000       0.00000000       0.00000000
Mg       6.03162048       0.00000000      10.58354436       0.00000000       0.00000000       0.00000000
O        7.53952561       1.50790512      10.58354436       0.00000000       0.00000000       0.00000000
O        6.03162048       0.00000000      12.71604423       0.00000000       0.00000000       0.00000000
Mg       7.53952561       1.50790512      12.71604423       0.00000000       0.00000000       0.00000000
Mg       6.03162048       0.00000000      14.84854410       0.00000000       0.00000000       0.00000000
O        7.53952561       1.50790512      14.84854410       0.00000000       0.00000000       0.00000000
O        6.03162048       0.00000000      16.98104398       0.00000000       0.00000000       0.00000000
Mg       7.53952561       1.50790512      16.98104398       0.00000000       0.00000000       0.00000000
Mg       6.03162048       0.00000000      19.11354385       0.00000000       0.00000000       0.00000000
O        7.53952561       1.50790512      19.11354385       0.00000000       0.00000000       0.00000000
O        6.03162048       0.00000000      21.24604373       0.00000000       0.00000000       0.00000000
Mg       7.53952561       1.50790512      21.24604373       0.00000000       0.00000000       0.00000000
Mg       6.03162048       3.01581024      10.58354436       0.00000000       0.00000000       0.00000000
O        7.53952561       4.52371536      10.58354436       0.00000000       0.00000000       0.00000000
O        6.03162048       3.01581024      12.71604423       0.00000000       0.00000000       0.00000000
Mg       7.53952561       4.52371536      12.71604423       0.00000000       0.00000000       0.00000000
Mg       6.03162048       3.01581024      14.84854410       0.00000000       0.00000000       0.00000000
O        7.53952561       4.52371536      14.84854410       0.00000000       0.00000000       0.00000000
O        6.03162048       3.01581024      16.98104398       0.00000000       0.00000000       0.00000000
Mg       7.53952561       4.52371536      16.98104398       0.00000000       0.00000000       0.00000000
Mg       6.03162048       3.01581024      19.11354385       0.00000000       0.00000000       0.00000000
O        7.53952561       4.52371536      19.11354385       0.00000000       0.00000000       0.00000000
O        6.03162048       3.01581024      21.24604373       0.00000000       0.00000000       0.00000000
Mg       7.53952561       4.52371536      21.24604373       0.00000000       0.00000000       0.00000000
Mg       6.03162048       6.03162048      10.58354436       0.00000000       0.00000000       0.00000000
O        7.53952561       7.53952561      10.58354436       0.00000000       0.00000000       0.00000000
O        6.03162048       6.03162048      12.71604423       0.00000000       0.00000000       0.00000000
Mg       7.53952561       7.53952561      12.71604423       0.00000000       0.00000000       0.00000000
Mg       6.03162048       6.03162048      14.84854410       0.00000000       0.00000000       0.00000000
O        7.53952561       7.53952561      14.84854410       0.00000000       0.00000000       0.00000000
O        6.03162048       6.03162048      16.98104398       0.00000000       0.00000000       0.00000000
Mg       7.53952561       7.53952561      16.98104398       0.00000000       0.00000000       0.00000000
Al       6.03162048       6.03162048      19.11354385       0.00000000       0.00000000       0.00000000
O        7.53952561       7.53952561      19.11354385       0.00000000       0.00000000       0.00000000
O        6.03162048       6.03162048      21.24604373       0.00000000       0.00000000       0.00000000
Mg       7.53952561       7.53952561      21.24604373       0.00000000       0.00000000       0.00000000
Au       1.50672133       1.50737449       8.39521635       0.00043203      -0.00049848      -0.00000132
Au       1.50486238       1.50550015       5.87978676      -0.00000382       0.00026927      -0.00001938
