LAMMPS (27 Jun 2024)
OMP_NUM_THREADS environment is not set. Defaulting to 1 thread. (src/comm.cpp:98)
  using 1 OpenMP thread(s) per MPI task
Reading data file ...
  orthogonal box = (0 0 0) to (44.844435 44.38448 40.643788)
  5 by 2 by 2 MPI processor grid
  reading atoms ...
  3584 atoms
  read_data CPU = 0.022 seconds
**************** Begin of POD Potentials ****************
species: Hf 
periodic boundary conditions: 1 1 1
number of environment clusters: 8
number of principal compoments: 2
inner cut-off radius: 1
outer cut-off radius: 5
cut-off function type: 1
gaussian_exponents: 
polynomial_degrees: 
bessel polynomial degree: 4
inverse polynomial degree: 10
one-body potential: 1
two-body radial basis functions: 8
three-body radial basis functions: 8
three-body angular degree: 6
four-body radial basis functions: 7
four-body angular degree: 5
five-body radial basis functions: 0
five-body angular degree: 0
six-body radial basis functions: 0
six-body angular degree: 0
seven-body radial basis functions: 0
seven-body angular degree: 0
number of local descriptors per element for one-body potential: 1
number of local descriptors per element for two-body potential: 8
number of local descriptors per element for three-body potential: 56
number of local descriptors per element for four-body potential: 112
number of local descriptors per element for five-body potential: 0
number of local descriptors per element for six-body potential: 0
number of local descriptors per element for seven-body potential: 0
number of local descriptors per element for all potentials: 177
number of global descriptors: 1409
**************** End of POD Potentials ****************

**************** Begin of Model Coefficients ****************
total number of coefficients for POD potential: 1409
total number of elements for PCA projection matrix: 352
total number of elements for PCA centroids: 16
**************** End of Model Coefficients ****************


CITE-CITE-CITE-CITE-CITE-CITE-CITE-CITE-CITE-CITE-CITE-CITE-CITE

Your simulation uses code contributions which should be cited:
- Type Label Framework: https://doi.org/10.1021/acs.jpcb.3c08419
The log file lists these citations in BibTeX format.

CITE-CITE-CITE-CITE-CITE-CITE-CITE-CITE-CITE-CITE-CITE-CITE-CITE

Neighbor list info ...
  update: every = 1 steps, delay = 0 steps, check = no
  max neighbors/atom: 2000, page size: 100000
  master list distance cutoff = 7
  ghost atom cutoff = 7
  binsize = 3.5, bins = 13 13 12
  1 neighbor lists, perpetual/occasional/extra = 1 0 0
  (1) pair pod, perpetual
      attributes: full, newton on
      pair build: full/bin/atomonly
      stencil: full/bin/3d
      bin: standard
Setting up Verlet run ...
  Unit style    : metal
  Current step  : 0
  Time step     : 0.001
Per MPI rank memory allocation (min/avg/max) = 2.609 | 2.61 | 2.613 Mbytes
   Step          Temp          TotEng         PotEng         KinEng         Press          Volume    
         0   300           -25853.672     -25992.614      138.94173      27705.402      80897.271    
       100   306.12439     -25877.525     -26019.303      141.77818      9852.181       80897.271    
       200   235.69062     -25882.874     -25992.031      109.15754      10502.938      80897.271    
       300   334.65953     -25874.288     -26029.282      154.99391      9445.3035      80897.271    
       400   336.31881     -25893.242     -26049.005      155.76239      9283.1721      80897.271    
       500   339.11086     -25910.759     -26067.814      157.0555       8432.5022      80897.271    
       600   292.22903     -25921.197     -26056.54       135.34269      8225.251       80897.271    
       700   286.47558     -25921.193     -26053.871      132.67804      8979.6777      80897.271    
       800   298.35697     -25916.792     -26054.972      138.18078      8791.5988      80897.271    
       900   303.34988     -25912.919     -26053.412      140.49319      8610.3906      80897.271    
      1000   325.12588     -25911.754     -26062.332      150.57851      8425.3013      80897.271    
      1100   298.79883     -25917.33      -26055.715      138.38542      8729.2986      80897.271    
      1200   294.92523     -25922.057     -26058.648      136.59141      8496.9437      80897.271    
      1300   291.07737     -25922.715     -26057.524      134.80931      8346.9455      80897.271    
      1400   296.50252     -25919.458     -26056.78       137.32191      8532.7041      80897.271    
      1500   296.4523      -25916.804     -26054.102      137.29865      8740.0577      80897.271    
      1600   318.78189     -25912.847     -26060.487      147.64036      8554.2844      80897.271    
      1700   294.11854     -25915.89      -26052.107      136.21779      8779.6858      80897.271    
      1800   303.1539      -25916.866     -26057.268      140.40242      8590.2075      80897.271    
      1900   294.63195     -25921.515     -26057.971      136.45558      8779.6241      80897.271    
      2000   292.12967     -25923.088     -26058.385      135.29667      8425.1461      80897.271    
      2100   312.8207      -25918.618     -26063.497      144.8795       8453.6082      80897.271    
      2200   291.45486     -25917.878     -26052.862      134.98414      8617.0368      80897.271    
      2300   307.39933     -25914.343     -26056.712      142.36865      8784.9314      80897.271    
      2400   294.80828     -25917.433     -26053.97       136.53724      8809.8163      80897.271    
      2500   305.3733      -25917.781     -26059.212      141.43032      8680.4181      80897.271    
      2600   303.45534     -25919.155     -26059.697      140.54203      8595.6812      80897.271    
      2700   290.57834     -25921.512     -26056.09       134.57819      8578.9255      80897.271    
      2800   303.52088     -25917.761     -26058.334      140.57239      8689.4866      80897.271    
      2900   302.8988      -25916.972     -26057.256      140.28428      8684.3428      80897.271    
      3000   297.74457     -25917.904     -26055.802      137.89715      8648.1094      80897.271    
      3100   302.44593     -25917.993     -26058.068      140.07453      8780.0966      80897.271    
      3200   295.1253      -25920.018     -26056.702      136.68406      8687.3632      80897.271    
      3300   303.17349     -25918.964     -26059.376      140.4115       8710.3248      80897.271    
      3400   299.0312      -25917.953     -26056.446      138.49304      8760.6464      80897.271    
      3500   300.71678     -25917.706     -26056.979      139.2737       8751.8883      80897.271    
      3600   301.43451     -25918.436     -26058.042      139.60611      8431.4064      80897.271    
      3700   305.69337     -25916.837     -26058.415      141.57855      8715.4578      80897.271    
      3800   300.848       -25916.349     -26055.683      139.33447      8776.3091      80897.271    
      3900   295.97294     -25918.633     -26055.71       137.07664      8795.2608      80897.271    
      4000   296.38363     -25921.194     -26058.461      137.26685      8706.3833      80897.271    
      4100   297.94475     -25921.493     -26059.483      137.98986      8603.7247      80897.271    
      4200   305.72596     -25917.467     -26059.06       141.59365      8582.9804      80897.271    
      4300   296.37531     -25914.602     -26051.865      137.263        9173.2798      80897.271    
      4400   307.26739     -25913.356     -26055.663      142.30754      9015.0305      80897.271    
      4500   298.58907     -25916.672     -26054.96       138.28827      8743.4586      80897.271    
      4600   297.38003     -25917.829     -26055.557      137.72832      8603.8879      80897.271    
      4700   306.0876      -25917.097     -26058.858      141.76113      8821.3218      80897.271    
      4800   295.66288     -25919.234     -26056.168      136.93304      8623.3472      80897.271    
      4900   297.88983     -25922.483     -26060.447      137.96443      8575.6787      80897.271    
      5000   292.10349     -25924.464     -26059.748      135.28455      8603.6483      80897.271    
      5100   300.10546     -25919.392     -26058.383      138.99057      8769.9369      80897.271    
      5200   302.15393     -25916.659     -26056.599      139.9393       8686.6633      80897.271    
      5300   300.9643      -25916.268     -26055.656      139.38834      8911.0936      80897.271    
      5400   305.90033     -25915.832     -26057.506      141.67441      8901.6131      80897.271    
      5500   291.13247     -25919.814     -26054.648      134.83483      8842.0585      80897.271    
      5600   305.73292     -25919.539     -26061.136      141.59687      8766.3771      80897.271    
      5700   294.32836     -25920.5       -26056.815      136.31497      8621.126       80897.271    
      5800   303.16676     -25917.886     -26058.294      140.40838      8768.299       80897.271    
      5900   299.05501     -25914.382     -26052.886      138.50407      8872.4158      80897.271    
      6000   306.5831      -25914.648     -26056.638      141.99062      8852.594       80897.271    
      6100   298.18085     -25917.046     -26055.145      138.09921      8848.4417      80897.271    
      6200   302.42682     -25917.65      -26057.716      140.06569      8797.6596      80897.271    
      6300   295.20345     -25919.19      -26055.91       136.72026      8925.6649      80897.271    
      6400   303.19284     -25920.96      -26061.38       140.42046      8593.3004      80897.271    
      6500   289.71932     -25924.532     -26058.713      134.18034      8641.1038      80897.271    
      6600   300.37662     -25921.714     -26060.83       139.11616      8788.9375      80897.271    
      6700   295.52658     -25918.89      -26055.76       136.86991      8870.3765      80897.271    
      6800   305.78746     -25916.551     -26058.173      141.62213      8724.5631      80897.271    
      6900   306.48565     -25916.829     -26058.774      141.94549      8708.623       80897.271    
      7000   295.39658     -25919.493     -26056.302      136.80971      8938.7436      80897.271    
      7100   297.16931     -25921.714     -26059.345      137.63073      8732.1693      80897.271    
      7200   292.80344     -25924.319     -26059.927      135.60872      8582.4512      80897.271    
      7300   304.01807     -25921.034     -26061.837      140.80266      8569.5888      80897.271    
      7400   300.44708     -25917.446     -26056.595      139.14879      8837.5016      80897.271    
      7500   298.12467     -25915.863     -26053.936      138.07319      8997.5915      80897.271    
      7600   304.36928     -25915.746     -26056.712      140.96532      8855.5826      80897.271    
      7700   296.81329     -25920.183     -26057.648      137.46584      8745.4186      80897.271    
      7800   289.32711     -25922.659     -26056.658      133.9987       8767.2556      80897.271    
      7900   297.61014     -25920.919     -26058.754      137.83489      8833.4278      80897.271    
      8000   302.669       -25918.823     -26059.001      140.17785      8777.7626      80897.271    
      8100   298.96808     -25917.618     -26056.082      138.46381      8675.4959      80897.271    
      8200   303.60707     -25915.727     -26056.339      140.6123       9008.1856      80897.271    
      8300   297.21418     -25916.756     -26054.408      137.65151      8985.711       80897.271    
      8400   302.83813     -25919.997     -26060.253      140.25618      8704.8152      80897.271    
      8500   293.66284     -25922.77      -26058.777      136.00674      8731.896       80897.271    
      8600   299.08958     -25921.427     -26059.947      138.52008      8850.627       80897.271    
      8700   304.32668     -25916.674     -26057.62       140.94559      8857.1243      80897.271    
      8800   299.66993     -25916.152     -26054.941      138.78886      8660.0092      80897.271    
      8900   303.19106     -25916.101     -26056.521      140.41964      8893.7872      80897.271    
      9000   295.41484     -25919.171     -26055.989      136.81817      9092.5231      80897.271    
      9100   299.53775     -25920.926     -26059.653      138.72765      8676.3236      80897.271    
      9200   297.93531     -25920.63      -26058.616      137.98549      8723.9232      80897.271    
      9300   298.67699     -25918.834     -26057.163      138.32899      9002.9565      80897.271    
      9400   299.07258     -25919.187     -26057.699      138.51221      8763.0572      80897.271    
      9500   292.23824     -25918.998     -26054.345      135.34696      8770.4585      80897.271    
      9600   310.026       -25915.603     -26059.188      143.58516      8822.853       80897.271    
      9700   305.59429     -25916.723     -26058.256      141.53266      8839.4061      80897.271    
      9800   295.22078     -25918.742     -26055.47       136.72829      8852.5707      80897.271    
      9900   295.87011     -25919.542     -26056.571      137.02901      8756.8468      80897.271    
     10000   306.95387     -25918.133     -26060.296      142.16234      8823.0179      80897.271    
     10100   298.47086     -25919.241     -26057.475      138.23353      8879.5168      80897.271    
     10200   300.49029     -25918.351     -26057.52       139.1688       8725.374       80897.271    
     10300   298.63389     -25917.862     -26056.171      138.30903      8952.1479      80897.271    
     10400   297.64027     -25918.12      -26055.969      137.84885      8905.9292      80897.271    
     10500   302.06905     -25917.907     -26057.807      139.89999      8875.0852      80897.271    
     10600   308.70477     -25918.336     -26061.31       142.97325      8789.6162      80897.271    
     10700   292.51156     -25922.915     -26058.388      135.47354      8642.2082      80897.271    
     10800   294.96819     -25922.645     -26059.256      136.6113       8646.6476      80897.271    
     10900   294.57037     -25920.623     -26057.05       136.42705      8704.8731      80897.271    
     11000   303.24059     -25918.393     -26058.836      140.44257      8930.933       80897.271    
     11100   299.0922      -25918.388     -26056.909      138.52129      8872.8937      80897.271    
     11200   296.51764     -25918.941     -26056.27       137.32891      8959.9867      80897.271    
     11300   307.67635     -25917.136     -26059.633      142.49695      8780.9367      80897.271    
     11400   293.94449     -25917.343     -26053.48       136.13718      8974.5065      80897.271    
     11500   301.3722      -25917.335     -26056.912      139.57725      8887.7786      80897.271    
     11600   301.80179     -25919.753     -26059.529      139.77621      8722.6253      80897.271    
     11700   294.60584     -25922.384     -26058.827      136.44348      8738.0891      80897.271    
     11800   297.84794     -25920.807     -26058.752      137.94503      8862.3359      80897.271    
     11900   304.57432     -25915.592     -26056.652      141.06027      8875.2782      80897.271    
     12000   304.19538     -25914.671     -26055.555      140.88477      8840.4808      80897.271    
     12100   304.26427     -25916.014     -26056.931      140.91668      8993.449       80897.271    
     12200   301.36995     -25919.864     -26059.44       139.57621      8869.8764      80897.271    
     12300   296.33924     -25921.037     -26058.283      137.24629      8837.7466      80897.271    
     12400   295.98965     -25920.204     -26057.288      137.08438      8914.2264      80897.271    
     12500   304.61835     -25917.484     -26058.565      141.08067      8902.391       80897.271    
     12600   299.01482     -25916.409     -26054.894      138.48546      8888.8155      80897.271    
     12700   307.17962     -25914.219     -26056.486      142.26689      9054.886       80897.271    
     12800   305.58594     -25912.658     -26054.187      141.5288       9041.6608      80897.271    
     12900   301.56394     -25916.376     -26056.042      139.66605      8943.3943      80897.271    
     13000   298.60026     -25919.661     -26057.954      138.29345      8824.7324      80897.271    
     13100   294.78289     -25921.085     -26057.611      136.52548      8750.2565      80897.271    
     13200   299.73738     -25919.172     -26057.992      138.8201       9008.4761      80897.271    
     13300   304.0119      -25915.489     -26056.289      140.7998       8948.7455      80897.271    
     13400   302.62573     -25914.86      -26055.017      140.15781      9108.8176      80897.271    
     13500   302.83978     -25916.618     -26056.875      140.25694      8929.0033      80897.271    
     13600   301.85131     -25916.891     -26056.691      139.79914      8945.1159      80897.271    
     13700   303.43061     -25917.478     -26058.009      140.53058      8911.0457      80897.271    
     13800   296.0267      -25920.947     -26058.048      137.10154      8927.7015      80897.271    
     13900   300.9374      -25920.907     -26060.283      139.37588      8832.4318      80897.271    
     14000   295.10589     -25919.752     -26056.427      136.67508      8784.9088      80897.271    
     14100   307.43185     -25913.887     -26056.27       142.38371      9010.6651      80897.271    
     14200   304.02934     -25914.403     -26055.211      140.80787      8990.1517      80897.271    
     14300   302.05186     -25917.639     -26057.531      139.89202      8934.7772      80897.271    
     14400   299.24152     -25920.16      -26058.75       138.59045      8760.5231      80897.271    
     14500   298.67959     -25920.926     -26059.256      138.3302       8815.2175      80897.271    
     14600   302.74668     -25918.624     -26058.838      140.21383      8739.8933      80897.271    
     14700   305.84035     -25914.187     -26055.834      141.64663      9020.6548      80897.271    
     14800   298.25717     -25914.812     -26052.947      138.13456      9193.0498      80897.271    
     14900   300.30321     -25917.748     -26056.83       139.08216      9012.6555      80897.271    
     15000   299.18097     -25920.898     -26059.46       138.5624       8792.617       80897.271    
     15100   299.24979     -25920.094     -26058.688      138.59428      8762.0018      80897.271    
     15200   299.34942     -25918.37      -26057.011      138.64042      9005.0087      80897.271    
     15300   299.19257     -25915.834     -26054.402      138.56778      8930.4858      80897.271    
     15400   302.41039     -25913.827     -26053.885      140.05808      9044.8722      80897.271    
     15500   299.15188     -25918.425     -26056.974      138.54893      8863.862       80897.271    
     15600   302.68836     -25922.139     -26062.326      140.18681      8698.6844      80897.271    
     15700   290.84217     -25922.34      -26057.04       134.70038      8822.7651      80897.271    
     15800   298.28528     -25918.843     -26056.99       138.14758      9012.6431      80897.271    
     15900   300.03148     -25917.585     -26056.542      138.95631      8900.4012      80897.271    
     16000   308.64857     -25916.483     -26059.43       142.94722      8830.6713      80897.271    
     16100   298.48364     -25918.806     -26057.045      138.23944      8821.021       80897.271    
     16200   293.90469     -25923.792     -26059.91       136.11875      8784.3326      80897.271    
     16300   293.58754     -25923.083     -26059.055      135.97187      8782.6347      80897.271    
     16400   299.02459     -25919.219     -26057.709      138.48998      8790.5501      80897.271    
     16500   299.2023      -25917.42      -26055.992      138.57228      9017.5397      80897.271    
     16600   303.28917     -25916.772     -26057.237      140.46507      8991.3663      80897.271    
     16700   298.50456     -25918.644     -26056.893      138.24913      8891.593       80897.271    
     16800   296.76765     -25923.294     -26060.739      137.4447       8734.0662      80897.271    
     16900   290.59543     -25924.71      -26059.296      134.58611      8778.2308      80897.271    
     17000   299.4692      -25921.407     -26060.103      138.69589      8785.0291      80897.271    
     17100   298.32332     -25919.459     -26057.624      138.16519      8791.2797      80897.271    
     17200   300.97776     -25917.655     -26057.05       139.39457      8812.3254      80897.271    
     17300   299.39172     -25916.403     -26055.063      138.66001      8998.1341      80897.271    
     17400   305.56531     -25914.871     -26056.391      141.51924      8889.8802      80897.271    
     17500   298.78409     -25918.229     -26056.608      138.3786       8841.8056      80897.271    
     17600   296.01063     -25921.362     -26058.456      137.0941       8777.7026      80897.271    
     17700   295.08844     -25921.537     -26058.204      136.66699      8891.4551      80897.271    
     17800   306.19354     -25917.564     -26059.374      141.8102       8772.7893      80897.271    
     17900   304.5427      -25914.113     -26055.158      141.04563      9097.1781      80897.271    
     18000   302.0646      -25914.895     -26054.793      139.89793      8977.7655      80897.271    
     18100   301.2705      -25916.894     -26056.424      139.53015      8974.8919      80897.271    
     18200   299.63397     -25919.806     -26058.578      138.77221      8839.9432      80897.271    
     18300   299.51313     -25920.926     -26059.642      138.71624      8836.9501      80897.271    
     18400   297.89147     -25920.513     -26058.478      137.96519      8790.9931      80897.271    
     18500   302.28474     -25916.509     -26056.509      139.99988      8918.2847      80897.271    
     18600   298.66364     -25914.384     -26052.707      138.32281      9036.781       80897.271    
     18700   305.61179     -25915.427     -26056.968      141.54077      8973.7561      80897.271    
     18800   298.59559     -25919.107     -26057.398      138.29129      8914.522       80897.271    
     18900   301.332       -25920.103     -26059.662      139.55863      8781.579       80897.271    
     19000   297.39345     -25919.933     -26057.668      137.73453      8905.7519      80897.271    
     19100   302.63556     -25917.425     -26057.587      140.16236      8870.7416      80897.271    
     19200   304.71408     -25912.031     -26053.156      141.125        9027.2534      80897.271    
     19300   310.87451     -25911.147     -26055.125      143.97814      9021.2722      80897.271    
     19400   300.54995     -25915.736     -26054.933      139.19643      8917.2771      80897.271    
     19500   300.90771     -25918.345     -26057.708      139.36212      8905.2889      80897.271    
     19600   294.48482     -25920.35      -26056.738      136.38743      8957.4039      80897.271    
     19700   300.31776     -25920.445     -26059.534      139.0889       8848.5926      80897.271    
     19800   298.65662     -25920.691     -26059.01       138.31956      8777.494       80897.271    
     19900   302.38794     -25916.496     -26056.544      140.04768      8996.5596      80897.271    
     20000   302.50619     -25915.411     -26055.514      140.10244      8923.636       80897.271    
     20100   298.36552     -25917.206     -26055.39       138.18474      8929.5299      80897.271    
     20200   301.70924     -25919.646     -26059.38       139.73334      8834.6746      80897.271    
     20300   293.82078     -25923.95      -26060.03       136.07989      8711.2243      80897.271    
     20400   296.26666     -25922.666     -26059.879      137.21267      8898.4454      80897.271    
     20500   292.98349     -25920.37      -26056.062      135.69211      8877.953       80897.271    
     20600   303.34881     -25918.478     -26058.971      140.49269      8817.5816      80897.271    
     20700   300.29508     -25918.206     -26057.284      139.07839      8870.5056      80897.271    
     20800   300.94684     -25917.494     -26056.875      139.38025      9022.457       80897.271    
     20900   298.96143     -25917.469     -26055.929      138.46073      8973.1945      80897.271    
     21000   299.54184     -25918.455     -26057.184      138.72954      8814.2018      80897.271    
     21100   302.59942     -25919.797     -26059.942      140.14562      8690.5884      80897.271    
     21200   292.30137     -25922.012     -26057.388      135.37619      8858.6203      80897.271    
     21300   304.36118     -25918.969     -26059.93       140.96156      8733.4638      80897.271    
     21400   300.38045     -25917.281     -26056.399      139.11793      8858.092       80897.271    
     21500   305.29348     -25916.003     -26057.396      141.39335      8810.9408      80897.271    
     21600   297.10261     -25917.789     -26055.389      137.59983      8770.6479      80897.271    
     21700   296.88838     -25921.956     -26059.457      137.50062      8746.8472      80897.271    
     21800   296.25147     -25922.151     -26059.357      137.20564      8852.3288      80897.271    
     21900   299.81434     -25918.549     -26057.405      138.85574      8701.8175      80897.271    
     22000   303.4299      -25916.302     -26056.832      140.53025      8933.8584      80897.271    
     22100   300.29397     -25916.937     -26056.014      139.07788      9029.2071      80897.271    
     22200   297.52267     -25918.885     -26056.679      137.79438      9044.9992      80897.271    
     22300   293.90329     -25923.118     -26059.236      136.11811      8824.9818      80897.271    
     22400   299.67314     -25923.506     -26062.296      138.79035      8818.2665      80897.271    
     22500   302.33924     -25918.407     -26058.432      140.02512      8989.1309      80897.271    
     22600   303.21181     -25914.873     -26055.302      140.42925      8967.5643      80897.271    
     22700   300.79839     -25916.375     -26055.686      139.3115       9016.5378      80897.271    
     22800   300.59294     -25919.85      -26059.066      139.21634      8915.1544      80897.271    
     22900   300.30573     -25921.267     -26060.35       139.08332      8732.0661      80897.271    
     23000   300.32509     -25919.656     -26058.748      139.09229      8817.8794      80897.271    
     23100   300.49783     -25915.69      -26054.863      139.17229      9092.6149      80897.271    
     23200   304.95525     -25914.257     -26055.493      141.2367       9046.3257      80897.271    
     23300   300.50518     -25915.878     -26055.054      139.1757       9071.0607      80897.271    
     23400   304.4446      -25916.992     -26057.992      141.0002       9018.1673      80897.271    
     23500   299.1141      -25918.358     -26056.889      138.53143      8906.0255      80897.271    
     23600   305.30873     -25919.018     -26060.419      141.40041      8808.7973      80897.271    
     23700   285.98727     -25922.473     -26054.925      132.45189      8967.9047      80897.271    
     23800   299.63624     -25920.686     -26059.46       138.77326      8890.8603      80897.271    
     23900   304.1981      -25919.3       -26060.186      140.88603      8811.2136      80897.271    
     24000   300.31718     -25918.516     -26057.605      139.08863      8895.8678      80897.271    
     24100   293.78393     -25918.609     -26054.671      136.06282      8991.1523      80897.271    
     24200   300.17021     -25917.558     -26056.578      139.02056      8934.8655      80897.271    
     24300   304.72155     -25916.539     -26057.668      141.12846      9078.8802      80897.271    
     24400   304.19658     -25916.325     -26057.21       140.88533      8908.3679      80897.271    
     24500   299.37731     -25918.57      -26057.223      138.65334      8966.6212      80897.271    
     24600   295.25643     -25921.345     -26058.09       136.7448       8820.611       80897.271    
     24700   294.72893     -25921.435     -26057.935      136.50049      8911.6414      80897.271    
     24800   302.90657     -25917.127     -26057.415      140.28788      8920.1888      80897.271    
     24900   300.59525     -25915.18      -26054.398      139.21742      9057.6562      80897.271    
     25000   306.93645     -25915.536     -26057.69       142.15427      8858.2235      80897.271    
     25100   298.91645     -25916.81      -26055.25       138.43989      8940.7019      80897.271    
     25200   297.18663     -25918.116     -26055.755      137.63875      9003.8333      80897.271    
     25300   299.73739     -25919.518     -26058.338      138.82011      8953.5061      80897.271    
     25400   300.47162     -25920.984     -26060.144      139.16015      8870.1644      80897.271    
     25500   294.8367      -25923.71      -26060.261      136.5504       8865.2998      80897.271    
     25600   291.28072     -25923.409     -26058.313      134.90349      8796.6121      80897.271    
     25700   301.93126     -25918.478     -26058.314      139.83617      8861.1484      80897.271    
     25800   298.78045     -25916.903     -26055.28       138.37691      8948.5086      80897.271    
     25900   306.3872      -25915.597     -26057.497      141.89989      8930.9932      80897.271    
     26000   294.59358     -25919.468     -26055.906      136.43781      8994.8953      80897.271    
     26100   295.68223     -25920.814     -26057.756      136.942        8912.2088      80897.271    
     26200   300.99745     -25919.783     -26059.187      139.40369      8815.3769      80897.271    
     26300   298.72791     -25919.299     -26057.651      138.35257      8901.8369      80897.271    
     26400   303.77075     -25918.468     -26059.156      140.68811      8932.5899      80897.271    
     26500   297.50272     -25918.617     -26056.403      137.78514      8953.5858      80897.271    
     26600   299.65837     -25917.18      -26055.963      138.78351      8889.8991      80897.271    
     26700   309.75859     -25911.681     -26055.142      143.46132      9184.4916      80897.271    
     26800   306.50261     -25910.987     -26052.941      141.95334      9102.9122      80897.271    
     26900   304.04615     -25915.547     -26056.363      140.81566      9068.4144      80897.271    
     27000   300.10379     -25918.496     -26057.485      138.9898       8869.9288      80897.271    
     27100   303.5991      -25917.965     -26058.574      140.60862      8774.5926      80897.271    
     27200   299.41872     -25917.953     -26056.626      138.67252      8979.9294      80897.271    
     27300   299.12599     -25920.252     -26058.789      138.53694      8916.1262      80897.271    
     27400   293.5474      -25923.557     -26059.51       135.95328      8748.665       80897.271    
     27500   290.6962      -25923.313     -26057.946      134.63278      8792.3492      80897.271    
     27600   301.53092     -25917.386     -26057.037      139.65076      8946.6845      80897.271    
     27700   302.53334     -25916.641     -26056.756      140.11502      9029.2894      80897.271    
     27800   299.43434     -25918.339     -26057.019      138.67975      8980.7347      80897.271    
     27900   300.53442     -25920.612     -26059.801      139.18924      8879.3662      80897.271    
     28000   290.77218     -25922.806     -26057.474      134.66796      8849.1549      80897.271    
     28100   302.39466     -25918.482     -26058.532      140.05079      8933.5049      80897.271    
     28200   300.06629     -25916.127     -26055.099      138.97243      8940.8034      80897.271    
     28300   305.13473     -25915.883     -26057.203      141.31982      8933.6774      80897.271    
     28400   296.4019      -25918.185     -26055.46       137.27531      8920.3945      80897.271    
     28500   302.03292     -25918.427     -26058.31       139.88326      8899.53        80897.271    
     28600   297.65885     -25919.123     -26056.98       137.85745      8793.8898      80897.271    
     28700   302.95706     -25919.011     -26059.322      140.31126      8870.4422      80897.271    
     28800   302.29783     -25918.928     -26058.934      140.00595      8840.4756      80897.271    
     28900   295.28859     -25916.937     -26053.697      136.75969      8937.2287      80897.271    
     29000   302.6145      -25914.903     -26055.055      140.15261      9005.0925      80897.271    
     29100   305.55533     -25915.612     -26057.127      141.51462      8940.1869      80897.271    
     29200   298.30285     -25919.236     -26057.391      138.15571      8821.5768      80897.271    
     29300   294.21871     -25921.868     -26058.132      136.26419      8801.3612      80897.271    
     29400   298.29818     -25920.555     -26058.708      138.15355      8840.0757      80897.271    
     29500   301.48854     -25917.768     -26057.399      139.63113      8973.4581      80897.271    
     29600   298.46481     -25917.077     -26055.308      138.23072      8971.7016      80897.271    
     29700   297.08531     -25917.752     -26055.344      137.59182      8943.2999      80897.271    
     29800   305.31828     -25918.411     -26059.815      141.40483      8817.9745      80897.271    
     29900   293.36595     -25920.722     -26056.592      135.86924      8924.2434      80897.271    
     30000   300.95058     -25919.803     -26059.185      139.38198      9014.6585      80897.271    
     30100   305.52577     -25918.115     -26059.616      141.50093      8862.5653      80897.271    
     30200   297.35033     -25917.009     -26054.724      137.71456      9037.7177      80897.271    
     30300   309.99867     -25914.454     -26058.027      143.5725       9014.1703      80897.271    
     30400   290.42631     -25917.833     -26052.34       134.50778      9053.1615      80897.271    
     30500   305.19642     -25918.463     -26059.811      141.3484       8999.8521      80897.271    
     30600   302.72481     -25919.989     -26060.192      140.2037       8986.2419      80897.271    
     30700   289.17869     -25924.731     -26058.661      133.92996      8742.4286      80897.271    
     30800   289.1272      -25926.543     -26060.449      133.90611      8809.8461      80897.271    
     30900   294.74479     -25922.363     -26058.871      136.50784      8887.1316      80897.271    
     31000   298.82898     -25919.861     -26058.26       138.39938      8907.464       80897.271    
     31100   301.02475     -25917.374     -26056.791      139.41633      8898.101       80897.271    
     31200   301.58089     -25916.182     -26055.856      139.6739       9087.7535      80897.271    
     31300   298.76839     -25918.042     -26056.413      138.37132      9041.0408      80897.271    
     31400   297.55123     -25922.08      -26059.887      137.80761      8798.0676      80897.271    
     31500   294.83037     -25924.267     -26060.815      136.54747      8723.9332      80897.271    
     31600   300.24476     -25921.082     -26060.137      139.05509      8888.983       80897.271    
     31700   296.12993     -25916.663     -26053.812      137.14935      8928.8394      80897.271    
     31800   302.68725     -25915.619     -26055.805      140.1863       9115.8968      80897.271    
     31900   296.00748     -25918.479     -26055.572      137.09264      9126.4014      80897.271    
     32000   305.88091     -25920.148     -26061.814      141.66541      8782.7442      80897.271    
     32100   295.17243     -25921.849     -26058.555      136.70589      8738.5221      80897.271    
     32200   297.10404     -25918.82      -26056.421      137.6005       9066.3659      80897.271    
     32300   295.48623     -25914.931     -26051.782      136.85123      9229.7045      80897.271    
     32400   312.06316     -25914.278     -26058.806      144.52865      8976.0812      80897.271    
     32500   297.22361     -25917.727     -26055.383      137.65587      8989.9066      80897.271    
     32600   302.08725     -25918.816     -26058.725      139.90842      8972.7351      80897.271    
     32700   297.1096      -25919.497     -26057.1        137.60307      9003.7795      80897.271    
     32800   300.10507     -25917.853     -26056.844      138.99039      8957.9469      80897.271    
     32900   306.87066     -25913.891     -26056.014      142.1238       9053.2142      80897.271    
     33000   307.35899     -25912.568     -26054.918      142.34997      9078.8036      80897.271    
     33100   298.94925     -25916.953     -26055.408      138.45508      9067.5724      80897.271    
     33200   306.14751     -25918.715     -26060.504      141.78888      8803.0469      80897.271    
     33300   294.94215     -25919.651     -26056.25       136.59924      9014.8091      80897.271    
     33400   300.38471     -25917.808     -26056.928      139.1199       9018.5775      80897.271    
     33500   302.32978     -25917.067     -26057.088      140.02074      8914.3012      80897.271    
     33600   300.79035     -25918.134     -26057.442      139.30777      8891.6151      80897.271    
     33700   295.66934     -25920.51      -26057.446      136.93603      8967.4674      80897.271    
     33800   297.74839     -25921.449     -26059.348      137.89892      8717.5321      80897.271    
     33900   302.05823     -25919.009     -26058.904      139.89498      8880.7569      80897.271    
     34000   299.51595     -25915.57      -26054.288      138.71755      9111.8281      80897.271    
     34100   300.45201     -25914.873     -26054.024      139.15107      9135.1799      80897.271    
     34200   301.03992     -25916.789     -26056.212      139.42336      8932.2245      80897.271    
     34300   305.87835     -25917.475     -26059.139      141.66422      9018.0651      80897.271    
     34400   300.454       -25919.568     -26058.72       139.152        9018.5169      80897.271    
     34500   298.51638     -25920.927     -26059.181      138.25461      8761.5135      80897.271    
     34600   300.17275     -25918.587     -26057.609      139.02174      9010.3575      80897.271    
     34700   299.71477     -25915.794     -26054.604      138.80963      9109.8455      80897.271    
     34800   305.13535     -25915.724     -26057.044      141.32011      8895.6037      80897.271    
     34900   301.12736     -25917.586     -26057.05       139.46386      9081.7801      80897.271    
     35000   298.18984     -25918.662     -26056.766      138.10337      8978.7004      80897.271    
     35100   302.62377     -25918.229     -26058.386      140.1569       8907.1422      80897.271    
     35200   302.9578      -25918.118     -26058.429      140.3116       8973.0752      80897.271    
     35300   296.04987     -25919.747     -26056.86       137.11227      9013.9702      80897.271    
     35400   297.8649      -25921.693     -26059.646      137.95288      8907.2157      80897.271    
     35500   294.29942     -25922.033     -26058.334      136.30157      8981.9002      80897.271    
     35600   305.16026     -25917.845     -26059.176      141.33165      8961.3255      80897.271    
     35700   300.8981      -25916.847     -26056.205      139.35767      9071.1897      80897.271    
     35800   292.79379     -25917.65      -26053.255      135.60425      9053.0843      80897.271    
     35900   304.76441     -25916.746     -26057.894      141.14832      9080.3808      80897.271    
     36000   307.018       -25916.908     -26059.1        142.19204      8928.7595      80897.271    
     36100   297.68743     -25919.57      -26057.441      137.87069      8933.0842      80897.271    
     36200   293.68125     -25921.186     -26057.201      136.01527      8891.6988      80897.271    
     36300   305.94768     -25919.117     -26060.813      141.69633      8817.1065      80897.271    
     36400   299.14332     -25917.061     -26055.606      138.54497      9020.0727      80897.271    
     36500   308.03101     -25912.71      -26055.371      142.66121      9119.9811      80897.271    
     36600   302.3512      -25913.609     -26053.64       140.03066      9094.2585      80897.271    
     36700   302.40014     -25917.09      -26057.143      140.05333      9085.8811      80897.271    
     36800   298.00614     -25918.68      -26056.699      138.0183       9028.5117      80897.271    
     36900   297.66225     -25918.979     -26056.838      137.85903      8878.4686      80897.271    
     37000   301.57924     -25918.122     -26057.795      139.67314      8948.465       80897.271    
     37100   305.45958     -25917.801     -26059.272      141.47027      8876.8168      80897.271    
     37200   295.1765      -25919.635     -26056.343      136.70778      8922.72        80897.271    
     37300   299.30868     -25919.187     -26057.809      138.62155      8978.0453      80897.271    
     37400   292.00726     -25920.453     -26055.693      135.23998      8950.4496      80897.271    
     37500   305.81898     -25918.274     -26059.911      141.63673      8865.7458      80897.271    
     37600   304.14713     -25915.788     -26056.651      140.86243      9016.9453      80897.271    
     37700   305.16666     -25914.599     -26055.934      141.33461      9119.6076      80897.271    
     37800   295.85109     -25919.303     -26056.323      137.02021      8931.6068      80897.271    
     37900   294.24774     -25921.189     -26057.466      136.27763      8926.9567      80897.271    
     38000   303.51593     -25919.696     -26060.266      140.5701       8887.1337      80897.271    
     38100   296.15759     -25919.018     -26056.18       137.16216      8930.6794      80897.271    
     38200   305.53102     -25914.231     -26055.734      141.50336      9034.1392      80897.271    
     38300   305.19355     -25913.181     -26054.528      141.34707      9126.5538      80897.271    
     38400   303.11959     -25916.238     -26056.624      140.38654      8921.7363      80897.271    
     38500   302.21076     -25918.759     -26058.725      139.96562      8895.0657      80897.271    
     38600   295.83298     -25919.382     -26056.394      137.01182      8976.3756      80897.271    
     38700   303.72564     -25917.641     -26058.309      140.66722      8958.4088      80897.271    
     38800   300.44061     -25917.142     -26056.288      139.14579      8960.9164      80897.271    
     38900   300.23376     -25918.043     -26057.093      139.04999      8918.792       80897.271    
     39000   299.55953     -25921.199     -26059.937      138.73773      8761.2659      80897.271    
     39100   294.98122     -25922.922     -26059.539      136.61734      8862.1539      80897.271    
     39200   301.83411     -25919.503     -26059.294      139.79118      8840.6703      80897.271    
     39300   297.43247     -25916.15      -26053.903      137.75261      8965.7903      80897.271    
     39400   307.48555     -25915.956     -26058.365      142.40858      8951.0359      80897.271    
     39500   300.00378     -25917.608     -26056.551      138.94348      9000.0776      80897.271    
     39600   296.42759     -25918.75      -26056.037      137.28721      9010.005       80897.271    
     39700   298.6124      -25920.601     -26058.9        138.29908      8971.7588      80897.271    
     39800   296.44742     -25923.887     -26061.183      137.29639      8789.4967      80897.271    
     39900   296.49643     -25922.88      -26060.199      137.31909      8793.4914      80897.271    
     40000   300.39563     -25917.997     -26057.122      139.12496      8988.3699      80897.271    
     40100   301.19657     -25917.208     -26056.704      139.49591      9067.6647      80897.271    
     40200   299.52242     -25918.037     -26056.758      138.72054      8950.4374      80897.271    
     40300   300.79262     -25920.148     -26059.457      139.30882      8826.5585      80897.271    
     40400   291.2776      -25923.916     -26058.818      134.90205      8751.8915      80897.271    
     40500   300.33472     -25921.842     -26060.939      139.09675      8756.3277      80897.271    
     40600   300.17105     -25917.944     -26056.965      139.02095      9033.4179      80897.271    
     40700   295.44622     -25917.959     -26054.791      136.8327       8980.124       80897.271    
     40800   306.17292     -25917.073     -26058.873      141.80065      8789.4001      80897.271    
     40900   299.83001     -25918.511     -26057.374      138.863        8935.8856      80897.271    
     41000   299.54072     -25920.609     -26059.338      138.72902      8937.7601      80897.271    
     41100   289.72677     -25924.288     -26058.472      134.1838       8766.1103      80897.271    
     41200   299.97766     -25922.654     -26061.585      138.93138      8789.4054      80897.271    
     41300   302.34639     -25919.172     -26059.201      140.02843      8888.4114      80897.271    
     41400   295.84881     -25918.194     -26055.213      137.01915      8824.5075      80897.271    
     41500   302.17522     -25916.649     -26056.598      139.94916      8981.5319      80897.271    
     41600   300.73211     -25917.717     -26056.998      139.2808       9003.833       80897.271    
     41700   296.72715     -25921.942     -26059.368      137.42595      8776.1196      80897.271    
     41800   296.44477     -25923.956     -26061.251      137.29516      8838.4776      80897.271    
     41900   294.02321     -25922.318     -26058.492      136.17365      8873.5973      80897.271    
     42000   300.79853     -25916.113     -26055.425      139.31156      8988.0829      80897.271    
     42100   305.6799      -25915.421     -26056.993      141.57231      8989.8754      80897.271    
     42200   299.64329     -25917.984     -26056.76       138.77652      8910.7811      80897.271    
     42300   298.62134     -25919.481     -26057.784      138.30322      8965.1071      80897.271    
     42400   298.10298     -25920.199     -26058.263      138.06314      8839.3895      80897.271    
     42500   294.48037     -25921.973     -26058.358      136.38537      8812.7004      80897.271    
     42600   295.14605     -25921.267     -26057.961      136.69368      8886.9349      80897.271    
     42700   304.08432     -25917.338     -26058.171      140.83334      8867.681       80897.271    
     42800   304.09532     -25915.358     -26056.197      140.83843      8933.6372      80897.271    
     42900   305.24521     -25916.165     -26057.536      141.37099      8950.5923      80897.271    
     43000   293.93051     -25921.36      -26057.49       136.13071      8838.2726      80897.271    
     43100   299.65733     -25921.264     -26060.047      138.78303      8835.8624      80897.271    
     43200   297.36939     -25919.629     -26057.353      137.72339      8905.5933      80897.271    
     43300   303.31881     -25916.706     -26057.185      140.4788       8962.987       80897.271    
     43400   299.0341      -25916.256     -26054.75       138.49438      9006.4346      80897.271    
     43500   305.76642     -25915.679     -26057.292      141.61238      9000.8378      80897.271    
     43600   296.50365     -25919.811     -26057.133      137.32243      8858.739       80897.271    
     43700   298.61435     -25921.529     -26059.829      138.29998      8776.3324      80897.271    
     43800   296.29796     -25920.797     -26058.024      137.22717      8832.0337      80897.271    
     43900   299.36068     -25916.784     -26055.43       138.64563      8965.5666      80897.271    
     44000   299.98814     -25915.621     -26054.557      138.93624      9005.4629      80897.271    
     44100   308.32177     -25916.502     -26059.298      142.79587      8983.1937      80897.271    
     44200   294.74015     -25918.703     -26055.209      136.50569      8975.6311      80897.271    
     44300   301.42293     -25919.011     -26058.612      139.60074      8935.4692      80897.271    
     44400   298.54986     -25919.694     -26057.964      138.27011      9008.2088      80897.271    
     44500   301.78546     -25917.877     -26057.645      139.76864      8868.025       80897.271    
     44600   307.0149      -25915.395     -26057.586      142.1906       8915.928       80897.271    
     44700   295.16961     -25916.34      -26053.045      136.70459      9020.3894      80897.271    
     44800   304.77778     -25918.238     -26059.393      141.1545       8981.2135      80897.271    
     44900   293.43545     -25921.972     -26057.873      135.90143      8882.6311      80897.271    
     45000   302.43289     -25920.721     -26060.79       140.0685       8620.8855      80897.271    
     45100   300.03739     -25917.381     -26056.34       138.95905      9079.3605      80897.271    
     45200   301.12319     -25915.678     -26055.14       139.46192      9026.1458      80897.271    
     45300   297.41989     -25917.299     -26055.045      137.74678      8982.8893      80897.271    
     45400   307.27685     -25918.316     -26060.628      142.31192      8946.8505      80897.271    
     45500   293.02184     -25920.789     -26056.499      135.70987      8886.4129      80897.271    
     45600   298.39417     -25919.672     -26057.87       138.19801      8905.5961      80897.271    
     45700   301.83015     -25919.014     -26058.803      139.78934      8930.3093      80897.271    
     45800   297.11735     -25919.033     -26056.64       137.60666      9110.2108      80897.271    
     45900   301.27598     -25916.84      -26056.373      139.53268      8943.8261      80897.271    
     46000   307.08443     -25912.777     -26054.999      142.22281      9166.6937      80897.271    
     46100   304.02724     -25912.777     -26053.584      140.8069       9235.3483      80897.271    
     46200   298.74052     -25917.071     -26055.43       138.35842      9012.6963      80897.271    
     46300   300.13121     -25919.363     -26058.366      139.0025       8939.214       80897.271    
     46400   298.73892     -25919.663     -26058.02       138.35768      8932.5562      80897.271    
     46500   299.8269      -25918.544     -26057.406      138.86156      9018.8979      80897.271    
     46600   301.40481     -25916.085     -26055.678      139.59235      8956.9733      80897.271    
     46700   303.82878     -25913.741     -26054.456      140.71499      9126.233       80897.271    
     46800   302.28        -25915.398     -26055.395      139.99768      9075.0685      80897.271    
     46900   300.31754     -25920.248     -26059.337      139.0888       8777.7087      80897.271    
     47000   298.08632     -25921.883     -26059.938      138.05543      8911.7524      80897.271    
     47100   297.99198     -25920.397     -26058.409      138.01174      8944.2634      80897.271    
     47200   299.40981     -25917.121     -26055.789      138.66839      8975.3819      80897.271    
     47300   306.40834     -25914.894     -26056.803      141.90968      9017.1828      80897.271    
     47400   300.30496     -25915.76      -26054.843      139.08297      8991.3368      80897.271    
     47500   300.2444      -25916.95      -26056.005      139.05492      9012.6298      80897.271    
     47600   303.07941     -25919.544     -26059.912      140.36793      8820.5629      80897.271    
     47700   298.63532     -25921.18      -26059.49       138.30969      8902.4877      80897.271    
     47800   296.39174     -25920.241     -26057.511      137.27061      8993.388       80897.271    
     47900   301.16374     -25917.128     -26056.609      139.4807       8915.2572      80897.271    
     48000   304.88217     -25911.442     -26052.645      141.20285      9184.9808      80897.271    
     48100   309.81242     -25912.962     -26056.448      143.48624      9049.0581      80897.271    
     48200   302.89359     -25916.425     -26056.706      140.28186      8980.4441      80897.271    
     48300   291.00461     -25920.038     -26054.814      134.77561      9128.6178      80897.271    
     48400   300.96857     -25919.955     -26059.346      139.39031      8848.0229      80897.271    
     48500   298.10247     -25919.174     -26057.237      138.06291      8982.5618      80897.271    
     48600   308.56273     -25914.667     -26057.574      142.90746      9075.7817      80897.271    
     48700   298.52972     -25914.254     -26052.515      138.26079      9135.0185      80897.271    
     48800   300.43815     -25916.344     -26055.488      139.14465      9020.5673      80897.271    
     48900   300.28422     -25919.064     -26058.137      139.07336      8880.4126      80897.271    
     49000   297.23279     -25920.015     -26057.675      137.66013      8933.4804      80897.271    
     49100   297.79646     -25920.121     -26058.042      137.92118      8945.1025      80897.271    
     49200   305.20553     -25918.336     -26059.689      141.35261      8808.0955      80897.271    
     49300   304.31351     -25915.82      -26056.759      140.93948      8890.8393      80897.271    
     49400   299.59685     -25914.225     -26052.98       138.75501      9120.3265      80897.271    
     49500   296.31177     -25915.52      -26052.753      137.23356      9175.8597      80897.271    
     49600   302.52526     -25920.037     -26060.148      140.11128      8875.2521      80897.271    
     49700   298.40862     -25922.321     -26060.526      138.2047       8733.3642      80897.271    
     49800   299.12616     -25919.883     -26058.42       138.53702      8848.6131      80897.271    
     49900   301.53593     -25918.164     -26057.818      139.65308      9059.7647      80897.271    
     50000   294.93963     -25918.154     -26054.752      136.59807      8898.7103      80897.271    
     50100   300.53028     -25917.023     -26056.21       139.18732      9039.1991      80897.271    
     50200   299.40051     -25919.835     -26058.499      138.66408      8941.9342      80897.271    
     50300   299.06717     -25923.007     -26061.517      138.5097       8809.8939      80897.271    
     50400   290.61771     -25923.306     -26057.903      134.59642      8822.6252      80897.271    
     50500   298.91123     -25918.498     -26056.936      138.43748      8980.4319      80897.271    
     50600   302.29355     -25917.06      -26057.064      140.00396      9064.1716      80897.271    
     50700   302.80846     -25917.028     -26057.27       140.24244      8935.0864      80897.271    
     50800   301.8138      -25917.885     -26057.666      139.78177      8874.9592      80897.271    
     50900   295.36932     -25921.097     -26057.894      136.79708      9040.7274      80897.271    
     51000   289.52106     -25923.689     -26057.777      134.08852      8943.7907      80897.271    
     51100   298.61527     -25922.49      -26060.79       138.30041      8763.0395      80897.271    
     51200   302.72169     -25916.785     -26056.987      140.20225      9008.4851      80897.271    
     51300   300.26287     -25915.529     -26054.592      139.06348      9010.2482      80897.271    
     51400   307.19906     -25915.948     -26058.224      142.2759       8900.106       80897.271    
     51500   296.82119     -25919.4       -26056.87       137.4695       8969.462       80897.271    
     51600   296.08006     -25920.983     -26058.11       137.12625      8796.4208      80897.271    
     51700   298.61427     -25920.71      -26059.01       138.29994      8848.0819      80897.271    
     51800   308.81744     -25915.233     -26058.258      143.02543      8988.7381      80897.271    
     51900   298.98895     -25915.357     -26053.83       138.47347      9036.6297      80897.271    
     52000   300.87128     -25917.929     -26057.275      139.34526      8899.4644      80897.271    
     52100   296.30383     -25920.472     -26057.702      137.22989      8806.0268      80897.271    
     52200   303.40166     -25919.482     -26059.999      140.51717      8831.959       80897.271    
     52300   301.19235     -25918.43      -26057.924      139.49396      8966.4456      80897.271    
     52400   300.77192     -25914.842     -26054.142      139.29924      9156.5692      80897.271    
     52500   308.46925     -25910.808     -26053.672      142.86417      9135.7793      80897.271    
     52600   304.55201     -25914.274     -26055.324      141.04994      8957.6167      80897.271    
     52700   299.03976     -25917.496     -26055.993      138.497        8934.4387      80897.271    
     52800   300.08276     -25919.953     -26058.933      138.98006      8937.5128      80897.271    
     52900   296.78796     -25921.074     -26058.528      137.45411      8881.3588      80897.271    
     53000   298.70379     -25918.403     -26056.744      138.34141      8913.9394      80897.271    
     53100   300.32532     -25915.877     -26054.97       139.0924       9023.9981      80897.271    
     53200   303.33042     -25915.901     -26056.385      140.48418      9046.8558      80897.271    
     53300   298.45666     -25918.816     -26057.043      138.22695      8931.7555      80897.271    
     53400   301.86765     -25920.119     -26059.926      139.80671      8887.7844      80897.271    
     53500   293.21714     -25920.222     -26056.022      135.80032      8966.7758      80897.271    
     53600   304.12848     -25916.092     -26056.945      140.85379      8997.5987      80897.271    
     53700   302.25724     -25914.381     -26054.368      139.98715      8972.0946      80897.271    
     53800   304.7168      -25916.46      -26057.586      141.12626      8967.3264      80897.271    
     53900   302.10191     -25920.423     -26060.338      139.91521      8878.3163      80897.271    
     54000   296.77308     -25921.56      -26059.007      137.44722      8933.838       80897.271    
     54100   296.47467     -25919.736     -26057.045      137.30901      9025.1048      80897.271    
     54200   304.79598     -25915.979     -26057.142      141.16294      9045.0919      80897.271    
     54300   302.84836     -25915.744     -26056.005      140.26092      8991.7281      80897.271    
     54400   298.57832     -25918.108     -26056.391      138.2833       8873.8064      80897.271    
     54500   294.86465     -25923.04      -26059.603      136.56335      8755.9034      80897.271    
     54600   295.08418     -25924.413     -26061.078      136.66502      8700.2226      80897.271    
     54700   298.87365     -25922.269     -26060.689      138.42007      8803.6402      80897.271    
     54800   296.6662      -25919.98      -26057.378      137.39772      8937.1875      80897.271    
     54900   302.12357     -25917.162     -26057.088      139.92524      9051.8157      80897.271    
     55000   300.85663     -25916.186     -26055.524      139.33847      8980.5283      80897.271    
     55100   308.16027     -25914.544     -26057.265      142.72107      8981.7866      80897.271    
     55200   303.59559     -25913.659     -26054.266      140.60699      9167.7262      80897.271    
     55300   301.20944     -25917.271     -26056.772      139.50187      8998.1703      80897.271    
     55400   293.26532     -25920.537     -26056.36       135.82264      8928.034       80897.271    
     55500   307.07246     -25919.288     -26061.505      142.21726      8813.1498      80897.271    
     55600   296.49223     -25918.255     -26055.573      137.31714      8978.0596      80897.271    
     55700   300.79842     -25914.893     -26054.205      139.31151      9096.987       80897.271    
     55800   301.78594     -25916.224     -26055.993      139.76887      8992.5223      80897.271    
     55900   305.11924     -25917.304     -26058.616      141.31265      8869.1116      80897.271    
     56000   305.79921     -25918.619     -26060.247      141.62757      8978.2165      80897.271    
     56100   294.84084     -25920.037     -26056.59       136.55232      8855.9191      80897.271    
     56200   294.90196     -25919.489     -26056.069      136.58063      9037.8982      80897.271    
     56300   300.35668     -25918.011     -26057.118      139.10692      8989.699       80897.271    
     56400   308.13137     -25913.421     -26056.129      142.70768      9122.5323      80897.271    
     56500   307.26364     -25914.157     -26056.463      142.30581      8973.5249      80897.271    
     56600   302.14455     -25918.084     -26058.019      139.93495      8918.4257      80897.271    
     56700   292.63925     -25919.568     -26055.1        135.53268      9048.4913      80897.271    
     56800   300.703       -25917.997     -26057.264      139.26732      8944.056       80897.271    
     56900   297.79737     -25917.678     -26055.599      137.92161      9005.1205      80897.271    
     57000   305.52976     -25916.48      -26057.983      141.50278      8882.3112      80897.271    
     57100   305.06622     -25917.23      -26058.519      141.2881       8926.0621      80897.271    
     57200   298.80046     -25920.254     -26058.64       138.38618      8845.7071      80897.271    
     57300   292.2339      -25921.249     -26056.594      135.34495      8923.6836      80897.271    
     57400   302.33767     -25917.656     -26057.681      140.0244       8905.8736      80897.271    
     57500   304.47154     -25915.424     -26056.436      141.01268      8975.6033      80897.271    
     57600   303.49028     -25915.729     -26056.287      140.55822      9084.6313      80897.271    
     57700   296.78021     -25920.754     -26058.205      137.45052      8972.6418      80897.271    
     57800   290.93588     -25923.426     -26058.17       134.74378      8821.3447      80897.271    
     57900   300.64128     -25920.982     -26060.221      139.23873      8784.5223      80897.271    
     58000   302.17778     -25917.352     -26057.303      139.95034      8938.4203      80897.271    
     58100   307.24265     -25915.87      -26058.166      142.29608      8915.069       80897.271    
     58200   295.65305     -25917.517     -26054.445      136.92849      9089.1557      80897.271    
     58300   298.35073     -25918.491     -26056.669      138.17789      9054.3194      80897.271    
     58400   294.50815     -25921.44      -26057.839      136.39824      8874.9036      80897.271    
     58500   296.49168     -25925.481     -26062.798      137.31689      8720.7301      80897.271    
     58600   286.7478      -25928.602     -26061.406      132.80412      8739.2308      80897.271    
     58700   292.26052     -25924.5       -26059.857      135.35727      8848.7302      80897.271    
     58800   296.18001     -25920.687     -26057.86       137.17254      8866.4763      80897.271    
     58900   304.38706     -25917.312     -26058.286      140.97355      8986.6776      80897.271    
     59000   305.93591     -25915.491     -26057.182      141.69088      8964.7405      80897.271    
     59100   294.45795     -25917.062     -26053.437      136.37499      9077.0227      80897.271    
     59200   300.65805     -25919.102     -26058.349      139.2465       8943.4035      80897.271    
     59300   293.45554     -25923.083     -26058.994      135.91074      8773.4179      80897.271    
     59400   295.68975     -25922.826     -26059.771      136.94549      8694.6523      80897.271    
     59500   301.31241     -25917.036     -26056.586      139.54956      8944.2536      80897.271    
     59600   300.8371      -25916.644     -26055.973      139.32942      8973.1285      80897.271    
     59700   299.97926     -25918.291     -26057.223      138.93212      8924.3338      80897.271    
     59800   299.45319     -25920.565     -26059.253      138.68848      8755.4022      80897.271    
     59900   299.21767     -25921.971     -26060.55       138.5794       8728.2593      80897.271    
     60000   298.70693     -25920.124     -26058.467      138.34286      8930.2101      80897.271    
     60100   297.92985     -25916.692     -26054.675      137.98296      9020.0042      80897.271    
     60200   300.10276     -25915.946     -26054.936      138.98932      8981.9303      80897.271    
     60300   307.15993     -25916.269     -26058.527      142.25777      9076.5813      80897.271    
     60400   294.98269     -25921.196     -26057.814      136.61802      8829.4747      80897.271    
     60500   292.80313     -25922.096     -26057.705      135.60858      8840.2119      80897.271    
     60600   303.28992     -25918.897     -26059.363      140.46542      8802.805       80897.271    
     60700   301.2205      -25917.834     -26057.341      139.50699      8952.9772      80897.271    
     60800   299.26374     -25918.063     -26056.663      138.60074      9047.3414      80897.271    
     60900   301.00362     -25918.145     -26057.552      139.40654      8999.9426      80897.271    
     61000   297.90671     -25919.839     -26057.811      137.97224      8855.1199      80897.271    
     61100   294.58718     -25924.061     -26060.495      136.43484      8791.3793      80897.271    
     61200   291.59181     -25924.558     -26059.606      135.04757      8823.944       80897.271    
     61300   298.46606     -25919.392     -26057.624      138.2313       8936.7329      80897.271    
     61400   304.03601     -25917.261     -26058.072      140.81096      8857.4774      80897.271    
     61500   301.27353     -25917.167     -26056.699      139.53155      8907.2156      80897.271    
     61600   306.89841     -25916.225     -26058.362      142.13665      8889.6537      80897.271    
     61700   294.51976     -25918.656     -26055.059      136.40362      8957.6166      80897.271    
     61800   298.36866     -25920.979     -26059.165      138.18619      8856.5875      80897.271    
     61900   295.56755     -25922.356     -26059.245      136.88889      8811.1099      80897.271    
     62000   296.0423      -25921.095     -26058.204      137.10877      8888.0976      80897.271    
     62100   301.00593     -25916.882     -26056.289      139.40762      8991.4227      80897.271    
     62200   298.57348     -25915.848     -26054.129      138.28105      9034.2987      80897.271    
     62300   306.27662     -25915.739     -26057.588      141.84868      9085.7112      80897.271    
     62400   295.90502     -25920.697     -26057.742      137.04518      8819.7118      80897.271    
     62500   298.18899     -25921.897     -26060          138.10298      8773.1446      80897.271    
     62600   298.40094     -25920.39      -26058.592      138.20114      8844.3456      80897.271    
     62700   295.28773     -25917.812     -26054.571      136.75929      9042.1735      80897.271    
     62800   303.21855     -25916.374     -26056.807      140.43237      8983.4144      80897.271    
     62900   305.77804     -25916.497     -26058.114      141.61777      8962.2524      80897.271    
     63000   299.31346     -25918.22      -26056.844      138.62377      8967.9468      80897.271    
     63100   292.94376     -25920.972     -26056.646      135.67371      8976.7557      80897.271    
     63200   302.50958     -25920.72      -26060.824      140.10402      8752.591       80897.271    
     63300   299.93062     -25917.042     -26055.952      138.9096       9012.2233      80897.271    
     63400   307.0015      -25912.635     -26054.819      142.1844       9041.4879      80897.271    
     63500   303.18927     -25915.103     -26055.522      140.41881      8902.1892      80897.271    
     63600   302.38002     -25918.32      -26058.364      140.04401      8831.5725      80897.271    
     63700   297.77263     -25919.936     -26057.846      137.91015      8885.4716      80897.271    
     63800   298.37159     -25919.932     -26058.12       138.18755      8911.6118      80897.271    
     63900   296.13073     -25918.191     -26055.34       137.14972      8941.1063      80897.271    
     64000   308.86505     -25913.319     -26056.366      143.04748      8919.0665      80897.271    
     64100   299.78287     -25915.51      -26054.351      138.84117      8972.0353      80897.271    
     64200   304.55821     -25917.952     -26059.005      141.05281      8863.9672      80897.271    
     64300   294.89022     -25920.782     -26057.357      136.57519      8853.3607      80897.271    
     64400   298.62537     -25920.707     -26059.012      138.30508      8827.1302      80897.271    
     64500   300.19251     -25919.566     -26058.597      139.03089      8724.7728      80897.271    
     64600   298.83315     -25918.544     -26056.945      138.40132      8954.2679      80897.271    
     64700   296.50893     -25917.934     -26055.259      137.32488      9038.8577      80897.271    
     64800   301.24502     -25917.378     -26056.896      139.51835      8850.475       80897.271    
     64900   300.33053     -25918.776     -26057.87       139.09481      8908.9639      80897.271    
     65000   295.10311     -25923.441     -26060.115      136.67379      8726.0465      80897.271    
     65100   292.78455     -25925.917     -26061.517      135.59997      8757.0416      80897.271    
     65200   292.89768     -25922.667     -26058.319      135.65237      8843.022       80897.271    
     65300   300.05298     -25920.137     -26059.103      138.96627      8838.2325      80897.271    
     65400   303.23166     -25919.034     -26059.473      140.43844      8856.1249      80897.271    
     65500   299.45149     -25917.5       -26056.188      138.68769      8975.6422      80897.271    
     65600   299.88491     -25915.049     -26053.937      138.88843      9175.1012      80897.271    
     65700   303.62996     -25915.081     -26055.704      140.62291      9006.9636      80897.271    
     65800   297.7588      -25920.448     -26058.351      137.90374      8843.8914      80897.271    
     65900   296.87664     -25921.443     -26058.938      137.49518      8828.4786      80897.271    
     66000   296.0679      -25919.651     -26056.772      137.12062      8890.442       80897.271    
     66100   303.8396      -25916.735     -26057.455      140.72         9008.0153      80897.271    
     66200   301.51723     -25916.473     -26056.118      139.64442      8958.3059      80897.271    
     66300   304.12421     -25917.22      -26058.071      140.85181      8908.9323      80897.271    
     66400   300.73252     -25918.102     -26057.383      139.28099      8901.1863      80897.271    
     66500   297.26811     -25918.536     -26056.212      137.67649      8966.9505      80897.271    
     66600   304.34161     -25919.945     -26060.897      140.9525       8858.8667      80897.271    
     66700   295.70565     -25921.928     -26058.88       136.95285      8802.0127      80897.271    
     66800   298.05602     -25919.785     -26057.827      138.0414       8858.8782      80897.271    
     66900   294.6287      -25919.229     -26055.683      136.45407      9008.2201      80897.271    
     67000   306.09107     -25917.712     -26059.475      141.76274      8915.3552      80897.271    
     67100   298.24363     -25919.04      -26057.168      138.12829      8751.0908      80897.271    
     67200   300.99511     -25919.488     -26058.891      139.4026       8919.8508      80897.271    
     67300   302.2939      -25918.119     -26058.123      140.00412      8877.7096      80897.271    
     67400   291.86073     -25918.516     -26053.688      135.17212      8906.7219      80897.271    
     67500   312.77794     -25915.401     -26060.26       144.8597       9010.785       80897.271    
     67600   302.59111     -25917.373     -26057.515      140.14177      8933.6845      80897.271    
     67700   300.89108     -25920.062     -26059.416      139.35443      8803.1373      80897.271    
     67800   288.39272     -25925.033     -26058.599      133.56594      8831.0853      80897.271    
     67900   297.59736     -25924.2       -26062.029      137.82897      8701.8006      80897.271    
     68000   301.68059     -25921.883     -26061.603      139.72008      8762.2559      80897.271    
     68100   299.53673     -25919.182     -26057.91       138.72717      8922.1084      80897.271    
     68200   296.82652     -25917.339     -26054.811      137.47197      9168.8065      80897.271    
     68300   302.74341     -25916.738     -26056.95       140.21231      8975.9773      80897.271    
     68400   302.52262     -25917.578     -26057.688      140.11005      8908.9825      80897.271    
     68500   295.39849     -25919.768     -26056.578      136.81059      8931.7659      80897.271    
     68600   295.87262     -25921.925     -26058.955      137.03018      8874.827       80897.271    
     68700   294.86362     -25923.066     -26059.629      136.56287      8873.9561      80897.271    
     68800   299.58115     -25920.307     -26059.055      138.74774      8766.5458      80897.271    
     68900   300.77507     -25917.25      -26056.551      139.30069      9030.4144      80897.271    
     69000   299.09522     -25917.257     -26055.779      138.52269      9000.292       80897.271    
     69100   302.06051     -25917.347     -26057.243      139.89603      8953.2894      80897.271    
     69200   294.88538     -25920.219     -26056.792      136.57295      8969.9084      80897.271    
     69300   292.36212     -25922.916     -26058.32       135.40433      8836.5733      80897.271    
     69400   302.07603     -25920.364     -26060.267      139.90322      8842.1694      80897.271    
     69500   303.68815     -25917.367     -26058.017      140.64986      8918.6528      80897.271    
     69600   299.47176     -25916.699     -26055.396      138.69708      9079.8577      80897.271    
     69700   302.964       -25917.816     -26058.131      140.31447      9037.1953      80897.271    
     69800   300.34496     -25919.342     -26058.443      139.1015       8913.6518      80897.271    
     69900   293.79301     -25920.047     -26056.114      136.06703      8908.865       80897.271    
     70000   303.26498     -25917.861     -26058.315      140.45387      8910.7658      80897.271    
     70100   305.77974     -25913.387     -26055.005      141.61855      9076.8586      80897.271    
     70200   301.74062     -25914.22      -26053.968      139.74788      9143.6857      80897.271    
     70300   296.90269     -25917.721     -26055.228      137.50724      8940.8472      80897.271    
     70400   302.27356     -25918.848     -26058.843      139.99471      8849.4636      80897.271    
     70500   300.8896      -25919.854     -26059.208      139.35374      8994.5451      80897.271    
     70600   296.12253     -25920.405     -26057.551      137.14592      8892.3285      80897.271    
     70700   306.51504     -25916.057     -26058.016      141.9591       8959.1031      80897.271    
     70800   300.90572     -25915.78      -26055.141      139.36121      8964.0461      80897.271    
     70900   298.67501     -25918.258     -26056.587      138.32807      8930.6412      80897.271    
     71000   298.07514     -25920.043     -26058.093      138.05025      8804.8044      80897.271    
     71100   300.17464     -25920.313     -26059.336      139.02261      8798.1215      80897.271    
     71200   300.21033     -25917.579     -26056.618      139.03914      9010.6033      80897.271    
     71300   302.86198     -25914.538     -26054.805      140.26722      9157.5334      80897.271    
     71400   302.76216     -25915.317     -26055.538      140.221        9005.547       80897.271    
     71500   303.41899     -25919.285     -26059.81       140.5252       9005.9582      80897.271    
     71600   292.58924     -25922.222     -26057.731      135.50952      8845.6024      80897.271    
     71700   299.17129     -25920.641     -26059.199      138.55792      8888.0186      80897.271    
     71800   299.28247     -25917.89      -26056.499      138.60941      9043.1143      80897.271    
     71900   298.11603     -25916.244     -26054.313      138.06919      8940.5595      80897.271    
     72000   304.10595     -25916.327     -26057.17       140.84336      9007.7341      80897.271    
     72100   293.99948     -25920.762     -26056.924      136.16265      8880.7925      80897.271    
     72200   294.59789     -25923.529     -26059.969      136.4398       8863.3672      80897.271    
     72300   298.47941     -25922.449     -26060.686      138.23749      8908.3105      80897.271    
     72400   297.41929     -25920.605     -26058.351      137.7465       8851.1115      80897.271    
     72500   301.60869     -25917.594     -26057.281      139.68678      9012.0175      80897.271    
     72600   302.64506     -25915.835     -26056.002      140.16676      8944.1105      80897.271    
     72700   304.18125     -25915.862     -26056.74       140.87823      9084.5541      80897.271    
     72800   296.3852      -25921.367     -26058.635      137.26758      8833.8488      80897.271    
     72900   294.67375     -25922.532     -26059.007      136.47494      8827.2523      80897.271    
     73000   300.96078     -25919.601     -26058.988      139.3867       8761.2002      80897.271    
     73100   301.71685     -25917.319     -26057.056      139.73687      8896.8456      80897.271    
     73200   301.07673     -25916.683     -26056.123      139.4404       8918.8951      80897.271    
     73300   299.57256     -25917.265     -26056.009      138.74376      9050.879       80897.271    
     73400   297.20536     -25920.493     -26058.141      137.64742      8878.5407      80897.271    
     73500   296.65427     -25925.072     -26062.464      137.39219      8638.7983      80897.271    
     73600   294.53797     -25922.467     -26058.879      136.41205      8824.6977      80897.271    
     73700   300.42738     -25918.575     -26057.715      139.13967      8895.9827      80897.271    
     73800   303.54495     -25916.645     -26057.229      140.58354      8955.2288      80897.271    
     73900   303.20408     -25916.589     -26057.015      140.42566      8905.4424      80897.271    
     74000   292.63712     -25920.286     -26055.818      135.53169      8945.3029      80897.271    
     74100   300.05095     -25921.951     -26060.916      138.96533      8806.266       80897.271    
     74200   301.04087     -25921.017     -26060.441      139.4238       8893.5932      80897.271    
     74300   299.06143     -25915.646     -26054.153      138.50704      9051.4411      80897.271    
     74400   304.79255     -25913.849     -26055.01       141.16135      8969.973       80897.271    
     74500   301.52347     -25916.322     -26055.969      139.64731      8993.0784      80897.271    
     74600   297.704       -25919.642     -26057.521      137.87836      8962.5538      80897.271    
     74700   302.01708     -25919.183     -26059.059      139.87592      8860.2852      80897.271    
     74800   300.04228     -25918.366     -26057.327      138.96131      8926.6016      80897.271    
     74900   292.92345     -25918.925     -26054.59       135.6643       8995.5507      80897.271    
     75000   300.58281     -25919.636     -26058.847      139.21165      8870.9297      80897.271    
     75100   302.14208     -25919.659     -26059.593      139.93381      8875.3485      80897.271    
     75200   298.43587     -25918.764     -26056.981      138.21732      8971.7079      80897.271    
     75300   298.74891     -25915.858     -26054.221      138.3623       9068.8771      80897.271    
     75400   307.04459     -25914.279     -26056.483      142.20435      9003.9402      80897.271    
[...]
    181800   302.83978     -25915.855     -26056.111      140.25694      9024.9027      80897.271    
    181900   299.96485     -25920.108     -26059.033      138.92545      8916.0514      80897.271    
    182000   299.68194     -25921.12      -26059.914      138.79442      8866.1605      80897.271    
    182100   296.40361     -25919.947     -26057.223      137.2761       8944.5019      80897.271    
    182200   302.48456     -25917.411     -26057.504      140.09243      9091.5222      80897.271    
    182300   298.7774      -25917.861     -26056.237      138.3755       9049.6518      80897.271    
    182400   302.84478     -25917.71      -26057.969      140.25926      8942.9324      80897.271    
    182500   295.35601     -25918.104     -26054.895      136.79091      9111.8986      80897.271    
    182600   304.16671     -25917.078     -26057.95       140.8715       9019.493       80897.271    
    182700   296.26133     -25919.527     -26056.737      137.21021      8923.7512      80897.271    
    182800   298.76025     -25921.753     -26060.12       138.36755      8864.7882      80897.271    
    182900   298.52139     -25921.869     -26060.126      138.25693      8878.6456      80897.271    
    183000   302.65036     -25917.659     -26057.828      140.16922      8881.5414      80897.271    
    183100   302.85075     -25915.474     -26055.736      140.26202      9015.044       80897.271    
    183200   306.4444      -25915.684     -26057.61       141.92638      8987.321       80897.271    
    183300   295.47014     -25919.015     -26055.859      136.84378      9136.0939      80897.271    
    183400   294.09524     -25924.306     -26060.513      136.20701      8760.9386      80897.271    
    183500   295.00288     -25925.844     -26062.471      136.62737      8605.0143      80897.271    
    183600   294.89711     -25921.66      -26058.239      136.57838      8931.3499      80897.271    
    183700   303.86262     -25917.824     -26058.554      140.73066      8918.9396      80897.271    
    183800   298.84222     -25916.856     -26055.261      138.40552      9060.3705      80897.271    
    183900   302.34861     -25916.269     -26056.299      140.02946      9090.8481      80897.271    
    184000   297.15012     -25918.908     -26056.53       137.62184      8872.5683      80897.271    
    184100   302.6603      -25921.806     -26061.98       140.17382      8771.9844      80897.271    
    184200   292.2489      -25923.655     -26059.007      135.35189      8775.7216      80897.271    
    184300   299.28078     -25918.383     -26056.992      138.60863      9029.7776      80897.271    
    184400   303.19146     -25916.807     -26057.227      140.41982      9015.1679      80897.271    
    184500   303.05789     -25917.635     -26057.993      140.35796      8901.1463      80897.271    
    184600   295.94325     -25919.653     -26056.716      137.06289      9009.0664      80897.271    
    184700   294.55856     -25921.309     -26057.731      136.42159      8894.5958      80897.271    
    184800   302.87912     -25920.954     -26061.229      140.27516      8872.9258      80897.271    
    184900   298.26212     -25918.577     -26056.714      138.13685      9016.5934      80897.271    
    185000   305.73098     -25914.742     -26056.338      141.59597      9035.975       80897.271    
    185100   297.95943     -25915.185     -26053.181      137.99666      9096.5637      80897.271    
    185200   301.58323     -25917.41      -26057.085      139.67499      8940.4862      80897.271    
    185300   297.23511     -25922.082     -26059.743      137.6612       8858.6589      80897.271    
    185400   299.42829     -25921.293     -26059.97       138.67695      8871.0363      80897.271    
    185500   296.77076     -25919.457     -26056.903      137.44614      9026.1798      80897.271    
    185600   296.59764     -25917.385     -26054.751      137.36597      8990.4021      80897.271    
    185700   310.81827     -25913.644     -26057.596      143.95209      8928.7955      80897.271    
    185800   311.03251     -25910.605     -26054.657      144.05132      9201.6437      80897.271    
    185900   297.67429     -25911.494     -26049.359      137.8646       9266.2919      80897.271    
    186000   303.91916     -25916.291     -26057.048      140.75685      8996.7848      80897.271    
    186100   301.57568     -25918.995     -26058.666      139.67149      8891.6846      80897.271    
    186200   294.57665     -25920.599     -26057.029      136.42997      8780.901       80897.271    
    186300   300.34848     -25919.472     -26058.575      139.10313      9041.1011      80897.271    
    186400   302.47046     -25916.203     -26056.289      140.0859       8935.6177      80897.271    
    186500   307.03379     -25913.615     -26055.814      142.19935      8956.797       80897.271    
    186600   298.55045     -25916.126     -26054.396      138.27039      8932.5713      80897.271    
    186700   304.15543     -25917.288     -26058.154      140.86627      8973.9469      80897.271    
    186800   296.97124     -25918.327     -26055.866      137.53899      9117.146       80897.271    
    186900   302.48352     -25918.977     -26059.069      140.09195      8842.4323      80897.271    
    187000   298.13497     -25920.241     -26058.319      138.07796      8868.3079      80897.271    
    187100   305.41445     -25917.118     -26058.567      141.44937      8944.9148      80897.271    
    187200   304.73399     -25912.994     -26054.128      141.13422      8967.5949      80897.271    
    187300   302.08311     -25914.351     -26054.258      139.9065       9172.9048      80897.271    
    187400   303.06521     -25916.811     -26057.172      140.36135      9002.7892      80897.271    
    187500   297.22498     -25918.541     -26056.197      137.65651      9001.2409      80897.271    
    187600   303.42949     -25918.806     -26059.336      140.53006      8811.9821      80897.271    
    187700   295.58502     -25921.269     -26058.166      136.89698      8879.6114      80897.271    
    187800   297.22545     -25923.501     -26061.158      137.65673      8799.5319      80897.271    
    187900   293.14019     -25924.07      -26059.834      135.76468      8808.9065      80897.271    
    188000   299.39621     -25919.943     -26058.605      138.66209      8861.911       80897.271    
    188100   298.74867     -25916.66      -26055.023      138.36219      8898.4765      80897.271    
    188200   302.22481     -25915.61      -26055.582      139.97213      9027.2617      80897.271    
    188300   304.32066     -25917.678     -26058.62       140.9428       8895.2104      80897.271    
    188400   297.91849     -25920.388     -26058.366      137.9777       8697.5074      80897.271    
    188500   299.41685     -25919.719     -26058.39       138.67165      9074.188       80897.271    
    188600   295.31876     -25919.359     -26056.133      136.77366      8990.7135      80897.271    
    188700   301.88917     -25918.592     -26058.409      139.81668      8867.2939      80897.271    
    188800   302.27742     -25918.965     -26058.962      139.99649      8912.7208      80897.271    
    188900   299.99164     -25918.848     -26057.786      138.93786      8848.9963      80897.271    
    189000   300.33816     -25917.262     -26056.361      139.09835      8911.1518      80897.271    
    189100   301.8127      -25915.596     -26055.377      139.78126      8988.6069      80897.271    
    189200   304.10968     -25916.417     -26057.262      140.84508      8943.7777      80897.271    
    189300   293.16386     -25920.601     -26056.376      135.77565      8901.3749      80897.271    
    189400   299.6225      -25921.859     -26060.626      138.7669       8778.8435      80897.271    
    189500   298.51098     -25920.889     -26059.141      138.25211      8955.2163      80897.271    
    189600   297.56092     -25916.203     -26054.015      137.8121       8943.7685      80897.271    
    189700   306.12299     -25914.775     -26056.553      141.77753      8868.1883      80897.271    
    189800   302.14816     -25916.72      -26056.657      139.93662      8985.6047      80897.271    
    189900   297.0568      -25919.564     -26057.142      137.57862      8952.4231      80897.271    
    190000   298.08842     -25920.336     -26058.393      138.0564       8708.3078      80897.271    
    190100   304.69433     -25918.489     -26059.604      141.11586      8884.9689      80897.271    
    190200   299.19504     -25914.542     -26053.111      138.56892      9128.6325      80897.271    
    190300   306.35988     -25912.424     -26054.311      141.88724      9054.7238      80897.271    
    190400   303.79229     -25914.943     -26055.641      140.69809      9090.3844      80897.271    
    190500   295.97474     -25919.884     -26056.961      137.07747      9052.2417      80897.271    
    190600   302.71676     -25920.241     -26060.441      140.19997      8800.1755      80897.271    
    190700   298.42486     -25920.165     -26058.377      138.21222      8824.5218      80897.271    
    190800   304.60957     -25916.149     -26057.226      141.0766       8948.7169      80897.271    
    190900   293.14463     -25916.575     -26052.342      135.76674      9073.7449      80897.271    
    191000   310.76018     -25916.093     -26060.018      143.92519      8872.6791      80897.271    
    191100   295.99435     -25918.486     -26055.573      137.08656      9038.9075      80897.271    
    191200   302.11631     -25919.176     -26059.098      139.92188      8935.0855      80897.271    
    191300   290.14064     -25923.794     -26058.169      134.37548      8916.3868      80897.271    
    191400   292.802       -25926.659     -26062.267      135.60805      8771.0732      80897.271    
    191500   294.84563     -25923.934     -26060.489      136.55454      8830.8246      80897.271    
    191600   299.57702     -25920.62      -26059.366      138.74583      8898.456       80897.271    
    191700   299.04602     -25918.264     -26056.764      138.49991      9045.6784      80897.271    
    191800   301.64553     -25915.804     -26055.507      139.70384      9086.7161      80897.271    
    191900   305.23467     -25914.988     -26056.354      141.36611      8948.447       80897.271    
    192000   300.77684     -25919.255     -26058.557      139.30151      8870.8043      80897.271    
    192100   299.61741     -25921.673     -26060.437      138.76454      8710.3913      80897.271    
    192200   291.6898      -25920.779     -26055.872      135.09295      8966.2985      80897.271    
    192300   300.81362     -25918.452     -26057.771      139.31855      8882.3941      80897.271    
    192400   299.46671     -25917.253     -26055.948      138.69474      9031.06        80897.271    
    192500   303.26373     -25916.589     -26057.042      140.45329      9082.5689      80897.271    
    192600   297.00222     -25919.982     -26057.535      137.55334      8864.7796      80897.271    
    192700   295.10709     -25925.141     -26061.817      136.67563      8752.9813      80897.271    
    192800   296.64504     -25923.402     -26060.79       137.38792      8675.2362      80897.271    
    192900   296.45991     -25920.354     -26057.656      137.30217      8842.1813      80897.271    
    193000   303.22809     -25917.774     -26058.211      140.43678      8972.2048      80897.271    
    193100   299.19741     -25916.734     -26055.304      138.57002      9161.2266      80897.271    
    193200   300.73926     -25916.349     -26055.633      139.28411      8914.6095      80897.271    
    193300   298.74356     -25920.891     -26059.251      138.35982      8789.7752      80897.271    
    193400   296.41545     -25923.697     -26060.978      137.28158      8713.2186      80897.271    
    193500   298.43837     -25921.329     -26059.548      138.21848      8874.8328      80897.271    
    193600   299.90189     -25918.79      -26057.687      138.89629      8892.1955      80897.271    
    193700   301.83223     -25917.482     -26057.273      139.79031      9005.7849      80897.271    
    193800   302.68516     -25917.306     -26057.491      140.18533      8997.9854      80897.271    
    193900   298.98811     -25919.572     -26058.045      138.47308      8933.6429      80897.271    
    194000   293.88624     -25924.576     -26060.686      136.11021      8766.6949      80897.271    
    194100   293.48517     -25923.907     -26059.832      135.92446      8877.4679      80897.271    
    194200   297.77445     -25920.182     -26058.093      137.91099      9015.6999      80897.271    
    194300   302.29516     -25917.85      -26057.855      140.00471      8817.7723      80897.271    
    194400   306.83973     -25916.685     -26058.794      142.10948      9096.4259      80897.271    
    194500   293.8292      -25918.042     -26054.125      136.08379      8945.3103      80897.271    
    194600   301.18289     -25917.751     -26057.24       139.48957      8944.9109      80897.271    
    194700   301.88238     -25919.094     -26058.907      139.81353      8932.0987      80897.271    
    194800   297.47362     -25920.497     -26058.269      137.77167      8908.6822      80897.271    
    194900   296.41863     -25919.476     -26056.759      137.28306      8996.974       80897.271    
    195000   302.32169     -25917.347     -26057.364      140.017        8996.8205      80897.271    
    195100   306.60441     -25913.551     -26055.552      142.00049      9056.5687      80897.271    
    195200   303.20576     -25913.657     -26054.083      140.42644      9197.7408      80897.271    
    195300   302.5395      -25916.821     -26056.938      140.11787      8961.4352      80897.271    
    195400   301.05456     -25918.038     -26057.468      139.43014      8912.1278      80897.271    
    195500   298.5993      -25918.78      -26057.073      138.29301      8963.4566      80897.271    
    195600   293.29242     -25920.367     -26056.202      135.83519      9049.6552      80897.271    
    195700   302.6066      -25921.037     -26061.186      140.14895      8892.5503      80897.271    
    195800   301.1341      -25920.351     -26059.818      139.46698      8863.1853      80897.271    
    195900   293.8333      -25917.513     -26053.599      136.08569      8984.5861      80897.271    
    196000   303.92149     -25915.126     -26055.884      140.75792      8943.0359      80897.271    
    196100   306.9175      -25915.712     -26057.858      142.1455       9045.4879      80897.271    
    196200   297.9774      -25919.357     -26057.362      138.00499      8822.7147      80897.271    
    196300   298.26758     -25921.247     -26059.386      138.13938      8858.1219      80897.271    
    196400   298.3969      -25920.483     -26058.682      138.19927      8866.203       80897.271    
    196500   295.93762     -25919.319     -26056.379      137.06028      8937.4311      80897.271    
    196600   304.57634     -25916.565     -26057.626      141.06121      9022.622       80897.271    
    196700   302.9266      -25915.567     -26055.864      140.29715      9069.8269      80897.271    
    196800   300.8804      -25916.297     -26055.647      139.34948      8889.0411      80897.271    
    196900   299.45372     -25918.713     -26057.402      138.68873      8956.5844      80897.271    
    197000   295.16345     -25921.448     -26058.15       136.70173      8939.5656      80897.271    
    197100   297.98927     -25922.587     -26060.597      138.01048      8877.1009      80897.271    
    197200   293.76878     -25920.797     -26056.853      136.05581      8857.6665      80897.271    
    197300   303.65453     -25916.226     -26056.86       140.63428      8975.063       80897.271    
    197400   298.81979     -25917.287     -26055.682      138.39513      9008.2772      80897.271    
    197500   298.07585     -25918.972     -26057.023      138.05058      8887.5845      80897.271    
    197600   301.3855      -25920.47      -26060.053      139.58341      8812.3275      80897.271    
    197700   295.97022     -25923.372     -26060.448      137.07538      8799.0471      80897.271    
    197800   293.07327     -25923.398     -26059.132      135.73369      8906.3078      80897.271    
    197900   298.39976     -25918.459     -26056.659      138.20059      8920.6645      80897.271    
    198000   299.24684     -25916.115     -26054.708      138.59291      9042.105       80897.271    
    198100   304.9665      -25915.337     -26056.579      141.24191      8915.2704      80897.271    
    198200   294.99733     -25919.335     -26055.96       136.6248       8854.6396      80897.271    
    198300   302.601       -25919.862     -26060.008      140.14635      8909.838       80897.271    
    198400   295.30894     -25919.822     -26056.592      136.76912      8934.2287      80897.271    
    198500   299.28471     -25918.306     -26056.917      138.61045      8960.924       80897.271    
    198600   304.27876     -25915.609     -26056.532      140.92339      8942.1859      80897.271    
    198700   307.9707      -25911.757     -26054.39       142.63327      8992.7507      80897.271    
    198800   304.11881     -25914.149     -26054.999      140.84931      9106.854       80897.271    
    198900   298.7692      -25917.9       -26056.272      138.3717       8949.8607      80897.271    
    199000   302.10091     -25918.95      -26058.864      139.91475      8884.6922      80897.271    
    199100   296.23924     -25920.022     -26057.222      137.19998      8829.1376      80897.271    
    199200   299.52874     -25918.782     -26057.505      138.72347      8864.5887      80897.271    
    199300   298.81675     -25916.655     -26055.049      138.39372      8979.2831      80897.271    
    199400   308.52077     -25913.684     -26056.572      142.88803      9068.0125      80897.271    
    199500   299.91987     -25915.803     -26054.708      138.90462      8974.1314      80897.271    
    199600   293.9924      -25920.225     -26056.384      136.15937      9019.5123      80897.271    
    199700   293.70771     -25921.637     -26057.665      136.02752      8779.3383      80897.271    
    199800   308.03728     -25919.494     -26062.158      142.66411      8782.0486      80897.271    
    199900   299.44084     -25918.666     -26057.349      138.68276      8776.8654      80897.271    
    200000   300.02695     -25916.637     -26055.591      138.95421      9047.9745      80897.271    
Loop time of 11846.9 on 20 procs for 200000 steps with 3584 atoms

Performance: 1.459 ns/day, 16.454 hours/ns, 16.882 timesteps/s, 60.505 katom-step/s
99.9% CPU use with 20 MPI tasks x 1 OpenMP threads

MPI task timing breakdown:
Section |  min time  |  avg time  |  max time  |%varavg| %total
---------------------------------------------------------------
Pair    | 9607.3     | 10726      | 11533      | 659.0 | 90.54
Neigh   | 115.51     | 131.22     | 144.23     |  78.8 |  1.11
Comm    | 73.548     | 919.98     | 2108.4     |2370.3 |  7.77
Output  | 0.29777    | 0.34221    | 0.39947    |   4.7 |  0.00
Modify  | 7.359      | 68.409     | 110.81     | 423.5 |  0.58
Other   |            | 0.8931     |            |       |  0.01

Nlocal:          179.2 ave         193 max         160 min
Histogram: 4 0 1 1 3 1 1 1 0 8
Nghost:        1125.25 ave        1214 max        1083 min
Histogram: 8 0 4 4 0 0 0 0 0 4
Neighs:              0 ave           0 max           0 min
Histogram: 20 0 0 0 0 0 0 0 0 0
FullNghs:      10267.3 ave       11116 max        9151 min
Histogram: 4 0 1 1 3 1 2 0 4 4

Total # of neighbors = 205346
Ave neighs/atom = 57.295201
Neighbor list builds = 200000
Dangerous builds not checked
Total wall time: 3:17:27
