LAMMPS (27 Jun 2024)
OMP_NUM_THREADS environment is not set. Defaulting to 1 thread. (src/comm.cpp:98)
  using 1 OpenMP thread(s) per MPI task
Reading data file ...
  orthogonal box = (0 0 0) to (67.266653 66.57672 40.643788)
  5 by 2 by 2 MPI processor grid
  reading atoms ...
  8064 atoms
  read_data CPU = 0.044 seconds
**************** Begin of POD Potentials ****************
species: Hf 
periodic boundary conditions: 1 1 1
number of environment clusters: 8
number of principal compoments: 2
inner cut-off radius: 1
outer cut-off radius: 5
cut-off function type: 1
gaussian_exponents: 
polynomial_degrees: 
bessel polynomial degree: 4
inverse polynomial degree: 10
one-body potential: 1
two-body radial basis functions: 8
three-body radial basis functions: 8
three-body angular degree: 6
four-body radial basis functions: 7
four-body angular degree: 5
five-body radial basis functions: 0
five-body angular degree: 0
six-body radial basis functions: 0
six-body angular degree: 0
seven-body radial basis functions: 0
seven-body angular degree: 0
number of local descriptors per element for one-body potential: 1
number of local descriptors per element for two-body potential: 8
number of local descriptors per element for three-body potential: 56
number of local descriptors per element for four-body potential: 112
number of local descriptors per element for five-body potential: 0
number of local descriptors per element for six-body potential: 0
number of local descriptors per element for seven-body potential: 0
number of local descriptors per element for all potentials: 177
number of global descriptors: 1409
**************** End of POD Potentials ****************

**************** Begin of Model Coefficients ****************
total number of coefficients for POD potential: 1409
total number of elements for PCA projection matrix: 352
total number of elements for PCA centroids: 16
**************** End of Model Coefficients ****************


CITE-CITE-CITE-CITE-CITE-CITE-CITE-CITE-CITE-CITE-CITE-CITE-CITE

Your simulation uses code contributions which should be cited:
- Type Label Framework: https://doi.org/10.1021/acs.jpcb.3c08419
The log file lists these citations in BibTeX format.

CITE-CITE-CITE-CITE-CITE-CITE-CITE-CITE-CITE-CITE-CITE-CITE-CITE

Neighbor list info ...
  update: every = 1 steps, delay = 0 steps, check = no
  max neighbors/atom: 2000, page size: 100000
  master list distance cutoff = 7
  ghost atom cutoff = 7
  binsize = 3.5, bins = 20 20 12
  1 neighbor lists, perpetual/occasional/extra = 1 0 0
  (1) pair pod, perpetual
      attributes: full, newton on
      pair build: full/bin/atomonly
      stencil: full/bin/3d
      bin: standard
Setting up Verlet run ...
  Unit style    : metal
  Current step  : 0
  Time step     : 0.001
Per MPI rank memory allocation (min/avg/max) = 2.639 | 2.639 | 2.64 Mbytes
   Step          Temp          TotEng         PotEng         KinEng         Press          Volume    
         0   300           -58717.63      -59030.297      312.66736      3272.0584      182018.86    
       100   105.51812     -58707.938     -58817.911      109.97357      4061.5935      182018.86    
       200   157.17829     -58674.13      -58837.945      163.81507      4591.4212      182018.86    
       300   191.49228     -58634.608     -58834.186      199.57796      4620.9586      182018.86    
       400   243.37402     -58593.139     -58846.789      253.65038      4387.7765      182018.86    
       500   267.52219     -58548.829     -58827.647      278.81819      5133.7143      182018.86    
       600   245.73085     -58506.185     -58762.292      256.10672      6142.5799      182018.86    
       700   264.24615     -58466.696     -58742.1        275.40382      6859.7876      182018.86    
       800   290.73613     -58433.603     -58736.615      303.01233      6853.0095      182018.86    
       900   321.10307     -58407.483     -58742.144      334.66151      6840.866       182018.86    
      1000   320.15018     -58405.467     -58739.135      333.66837      6939.7427      182018.86    
      1100   300.91994     -58420.731     -58734.358      313.62615      7011.4348      182018.86    
      1200   292.58465     -58436.016     -58740.955      304.9389       6927.4084      182018.86    
      1300   282.71701     -58446.142     -58740.796      294.65461      6771.9723      182018.86    
      1400   300.69699     -58436.522     -58749.915      313.39379      6751.302       182018.86    
      1500   307.33336     -58424.114     -58744.425      320.31038      6797.4733      182018.86    
      1600   313.8038      -58413.207     -58740.261      327.05403      7000.0361      182018.86    
      1700   298.33049     -58417.462     -58728.389      310.92736      7212.7158      182018.86    
      1800   285.18735     -58431.01      -58728.239      297.22925      7050.2399      182018.86    
      1900   303.04841     -58436.48      -58752.325      315.8445       6671.0547      182018.86    
      2000   300.71228     -58439.389     -58752.799      313.40972      6543.7684      182018.86    
      2100   299.63802     -58430.645     -58742.935      312.2901       6867.3909      182018.86    
      2200   302.13752     -58420.391     -58735.286      314.89514      7023.3019      182018.86    
      2300   293.68386     -58417.508     -58723.593      306.08452      7145.6372      182018.86    
      2400   306.35946     -58420.352     -58739.647      319.29535      6977.3754      182018.86    
      2500   301.54796     -58432.511     -58746.791      314.28069      6686.818       182018.86    
      2600   303.02353     -58436.382     -58752.2        315.81856      6680.1106      182018.86    
      2700   291.01912     -58435.649     -58738.956      303.30727      6879.102       182018.86    
      2800   298.54232     -58426.853     -58738.001      311.14813      6926.9907      182018.86    
      2900   303.99713     -58420.437     -58737.27       316.83327      6970.287       182018.86    
      3000   301.28127     -58419.452     -58733.454      314.00274      6935.2701      182018.86    
      3100   313.3847      -58420.739     -58747.357      326.61723      6851.934       182018.86    
      3200   290.34402     -58433.427     -58736.031      302.60367      6748.3453      182018.86    
      3300   297.17861     -58435.105     -58744.832      309.72684      6885.9674      182018.86    
      3400   297.13704     -58433.406     -58743.089      309.68351      6779.2495      182018.86    
      3500   301.4743      -58427.312     -58741.516      314.20392      6864.9347      182018.86    
      3600   305.69476     -58420.622     -58739.224      318.60259      6910.4208      182018.86    
      3700   301.06481     -58421.787     -58735.564      313.77713      7008.7773      182018.86    
      3800   298.61009     -58427.358     -58738.577      311.21877      6944.0932      182018.86    
      3900   300.49192     -58432.897     -58746.077      313.18006      6792.1185      182018.86    
      4000   293.58037     -58435.596     -58741.572      305.97667      6845.2296      182018.86    
      4100   303.67293     -58429.624     -58746.119      316.49538      6856.2783      182018.86    
      4200   298.69437     -58425.428     -58736.735      311.3066       6941.0813      182018.86    
      4300   306.50525     -58420.86      -58740.307      319.4473       6949.0282      182018.86    
      4400   295.41235     -58424.593     -58732.479      307.88601      7016.2234      182018.86    
      4500   306.8289      -58426.525     -58746.309      319.78461      6870.6223      182018.86    
      4600   293.48074     -58433.388     -58739.261      305.87283      6839.4108      182018.86    
      4700   299.30557     -58431.287     -58743.23       311.94362      6904.4718      182018.86    
      4800   300.19353     -58429.275     -58742.144      312.86907      6860.4374      182018.86    
      4900   299.11152     -58426.802     -58738.543      311.74137      6936.5697      182018.86    
      5000   303.94597     -58423.896     -58740.676      316.77995      6873.2459      182018.86    
      5100   301.31729     -58425.499     -58739.539      314.04028      6900.9542      182018.86    
      5200   299.3546      -58428.511     -58740.506      311.99472      6953.2723      182018.86    
      5300   297.90797     -58430.841     -58741.328      310.487        6853.712       182018.86    
      5400   296.25315     -58430.777     -58739.54       308.7623       6844.7939      182018.86    
      5500   303.53811     -58426.803     -58743.158      316.35487      6843.6573      182018.86    
      5600   302.5034      -58423.457     -58738.734      315.27647      6884.5269      182018.86    
      5700   302.02692     -58423.692     -58738.471      314.77987      6963.5104      182018.86    
      5800   296.13278     -58429.372     -58738.009      308.63686      6931.0377      182018.86    
      5900   299.32116     -58432.964     -58744.923      311.95986      6861.0511      182018.86    
      6000   299.35063     -58433.356     -58745.346      311.99058      6820.0639      182018.86    
      6100   303.25299     -58429.006     -58745.064      316.05771      6856.6509      182018.86    
      6200   298.8206      -58425.109     -58736.547      311.43817      6959.3038      182018.86    
      6300   299.75257     -58421.527     -58733.937      312.40948      7024.9349      182018.86    
      6400   297.80517     -58423.36      -58733.739      310.37986      7053.74        182018.86    
      6500   307.10697     -58426.738     -58746.812      320.07443      6846.2262      182018.86    
      6600   299.19062     -58433.13      -58744.954      311.82381      6815.7685      182018.86    
      6700   296.55197     -58435.461     -58744.535      309.07375      6891.4821      182018.86    
      6800   295.01883     -58431.45      -58738.926      307.47587      6921.9213      182018.86    
      6900   298.6573      -58424.611     -58735.879      311.26797      7027.3017      182018.86    
      7000   306.7973      -58420.788     -58740.539      319.75167      6920.2347      182018.86    
      7100   305.46279     -58423.117     -58741.478      318.36082      6955.5696      182018.86    
      7200   297.84623     -58429.78      -58740.202      310.42265      6903.8305      182018.86    
      7300   294.10631     -58434.1       -58740.625      306.52481      6821.0542      182018.86    
      7400   297.8212      -58431.99      -58742.386      310.39657      6858.9697      182018.86    
      7500   300.88215     -58426.612     -58740.198      313.58677      6935.5556      182018.86    
      7600   307.17993     -58421.792     -58741.942      320.15046      6929.1356      182018.86    
      7700   300.25421     -58424.36      -58737.293      312.9323       7009.9398      182018.86    
      7800   298.37915     -58428.922     -58739.9        310.97807      6884.793       182018.86    
      7900   298.46844     -58431.612     -58742.683      311.07113      6917.4661      182018.86    
      8000   298.11576     -58431.4       -58742.103      310.70357      6898.1754      182018.86    
      8100   302.19751     -58428.057     -58743.015      314.95766      6911.9958      182018.86    
      8200   300.43616     -58426.114     -58739.235      313.12194      6994.3369      182018.86    
      8300   299.36886     -58425.605     -58737.615      312.00957      6949.7039      182018.86    
      8400   298.97037     -58427.168     -58738.762      311.59426      6998.5006      182018.86    
      8500   301.52441     -58429.908     -58744.164      314.25614      6873.9963      182018.86    
      8600   300.16504     -58431.216     -58744.056      312.83937      6831.1429      182018.86    
      8700   298.42541     -58429.335     -58740.361      311.02628      6921.9579      182018.86    
      8800   296.06724     -58425.255     -58733.823      308.56855      7045.0674      182018.86    
      8900   301.37452     -58423.006     -58737.106      314.09993      7017.872       182018.86    
      9000   304.90809     -58425.47      -58743.253      317.7827       6886.1973      182018.86    
      9100   296.38721     -58430.222     -58739.124      308.90203      6940.8248      182018.86    
      9200   300.26925     -58431.384     -58744.332      312.94799      6891.9806      182018.86    
      9300   297.50675     -58431.96      -58742.029      310.06884      6897.287       182018.86    
      9400   298.58875     -58428.342     -58739.539      311.19653      6883.6631      182018.86    
      9500   303.07055     -58423.779     -58739.647      315.86757      6867.6112      182018.86    
      9600   300.05782     -58425.038     -58737.766      312.72762      6982.1864      182018.86    
      9700   299.7324      -58429.086     -58741.475      312.38846      6876.2369      182018.86    
      9800   297.34518     -58434.029     -58743.929      309.90044      6879.6642      182018.86    
      9900   298.88248     -58433.048     -58744.551      311.50266      6825.8317      182018.86    
     10000   298.68108     -58425.745     -58737.038      311.29275      6956.9347      182018.86    
     10100   298.32346     -58424.395     -58735.315      310.92003      6989.0824      182018.86    
     10200   303.24861     -58424.201     -58740.254      316.05315      6903.8858      182018.86    
     10300   303.46558     -58427.34      -58743.619      316.27928      6904.0445      182018.86    
     10400   296.68311     -58434.248     -58743.459      309.21042      6845.8351      182018.86    
     10500   296.75775     -58433.458     -58742.746      309.28822      6850.5702      182018.86    
     10600   299.07233     -58429.752     -58741.452      311.70053      6906.6132      182018.86    
     10700   302.33501     -58425.598     -58740.699      315.10097      6921.1906      182018.86    
     10800   299.98046     -58424.561     -58737.208      312.647        6965.3613      182018.86    
     10900   297.41233     -58426.251     -58736.221      309.97043      6964.3218      182018.86    
     11000   301.99754     -58426.23      -58740.979      314.74925      6911.1647      182018.86    
     11100   302.60392     -58426.494     -58741.875      315.38123      6956.2563      182018.86    
     11200   300.85672     -58428.623     -58742.184      313.56026      6893.6187      182018.86    
     11300   299.97465     -58429.531     -58742.172      312.64094      6912.548       182018.86    
     11400   297.4643      -58429.398     -58739.423      310.02459      6863.1289      182018.86    
     11500   296.76628     -58428.672     -58737.969      309.2971       6994.9592      182018.86    
     11600   303.52514     -58424.341     -58740.682      316.34136      6931.7951      182018.86    
     11700   304.53939     -58415.458     -58732.856      317.39843      7052.0679      182018.86    
     11800   306.54507     -58414.078     -58733.567      319.4888       7124.4087      182018.86    
     11900   303.33647     -58419.49      -58735.635      316.14471      7024.1522      182018.86    
     12000   302.87558     -58423.872     -58739.536      315.66436      6992.8791      182018.86    
     12100   298.3713      -58430.199     -58741.169      310.96989      6892.6215      182018.86    
     12200   299.68597     -58432.619     -58744.959      312.34008      6904.5605      182018.86    
     12300   298.18055     -58431.223     -58741.995      310.77109      6895.2654      182018.86    
     12400   298.97123     -58426.229     -58737.824      311.59516      6979.2929      182018.86    
     12500   300.87217     -58423.273     -58736.849      313.57636      6980.8968      182018.86    
     12600   304.65555     -58422.159     -58739.678      317.51949      6926.1759      182018.86    
     12700   295.85254     -58431.353     -58739.698      308.34478      6914.0709      182018.86    
     12800   297.71221     -58434.159     -58744.442      310.28298      6787.3679      182018.86    
     12900   299.77881     -58431.735     -58744.171      312.43684      6870.1076      182018.86    
     13000   298.45155     -58426.674     -58737.728      311.05353      6960.5527      182018.86    
     13100   300.84569     -58423.816     -58737.365      313.54877      6939.9675      182018.86    
     13200   302.98167     -58424.261     -58740.035      315.77493      6950.1641      182018.86    
     13300   295.37064     -58431.019     -58738.862      307.84253      6933.2279      182018.86    
     13400   296.93528     -58433.954     -58743.427      309.47324      6889.8         182018.86    
     13500   296.57539     -58432.794     -58741.892      309.09815      6875.9499      182018.86    
     13600   301.64182     -58428.1       -58742.479      314.37851      6903.9259      182018.86    
     13700   300.88693     -58426.278     -58739.869      313.59175      6947.8957      182018.86    
     13800   301.5466      -58427.07      -58741.349      314.27927      6976.7363      182018.86    
     13900   298.51119     -58431.548     -58742.664      311.11569      6904.9677      182018.86    
     14000   291.17643     -58438.634     -58742.105      303.47123      6838.6063      182018.86    
     14100   300.25779     -58435.581     -58748.517      312.93604      6782.8624      182018.86    
     14200   297.66411     -58431.33      -58741.563      310.23285      6866.0405      182018.86    
     14300   299.57367     -58428.89      -58741.113      312.22304      6900.9265      182018.86    
     14400   300.69637     -58426.718     -58740.111      313.39314      6973.8212      182018.86    
     14500   302.88804     -58423.683     -58739.361      315.67735      6942.0615      182018.86    
     14600   300.99874     -58423.738     -58737.446      313.70828      6978.3405      182018.86    
     14700   298.2263      -58429.188     -58740.007      310.81877      6955.8725      182018.86    
     14800   298.77756     -58433.205     -58744.599      311.39331      6878.8894      182018.86    
     14900   299.98814     -58432.181     -58744.836      312.655        6797.4719      182018.86    
     15000   301.46071     -58426.019     -58740.209      314.18975      6937.395       182018.86    
     15100   299.09113     -58423.797     -58735.517      311.72012      7094.6226      182018.86    
     15200   302.80914     -58424.503     -58740.098      315.59512      6950.8113      182018.86    
     15300   301.96391     -58428.386     -58743.1        314.7142       6877.1916      182018.86    
     15400   300.37767     -58431.577     -58744.638      313.06098      6821.4177      182018.86    
     15500   296.35333     -58430.586     -58739.453      308.86672      6996.3526      182018.86    
     15600   298.2069      -58428.248     -58739.046      310.79855      6985.3085      182018.86    
     15700   301.13448     -58427.032     -58740.882      313.84974      6966.6544      182018.86    
     15800   301.01821     -58427.109     -58740.838      313.72857      6956.6932      182018.86    
     15900   299.80031     -58427.52      -58739.979      312.45925      6958.7624      182018.86    
     16000   299.08289     -58428.325     -58740.036      311.71153      6954.1729      182018.86    
     16100   300.58155     -58430.573     -58743.846      313.27347      6887.117       182018.86    
     16200   298.16022     -58432.943     -58743.693      310.7499       6826.9028      182018.86    
     16300   301.03446     -58429.606     -58743.351      313.7455       6880.456       182018.86    
     16400   300.35462     -58423.558     -58736.595      313.03696      6985.7211      182018.86    
     16500   299.56365     -58423.098     -58735.31       312.21259      7058.0407      182018.86    
     16600   304.4801      -58424.385     -58741.722      317.33664      6936.9991      182018.86    
     16700   301.87596     -58426.805     -58741.428      314.62253      6926.5064      182018.86    
     16800   297.0252      -58428.446     -58738.013      309.56695      7012.3503      182018.86    
     16900   300.52235     -58428.409     -58741.62       313.21177      6868.6197      182018.86    
     17000   300.62881     -58428.771     -58742.093      313.32273      6868.9385      182018.86    
     17100   300.78741     -58427.608     -58741.096      313.48802      6943.3843      182018.86    
     17200   296.91757     -58425.372     -58734.827      309.45478      7013.83        182018.86    
     17300   303.01556     -58423.196     -58739.006      315.81026      6943.6049      182018.86    
     17400   304.32784     -58424.254     -58741.432      317.17795      6967.1421      182018.86    
     17500   296.61527     -58430.093     -58739.233      309.13971      6964.2732      182018.86    
     17600   295.38498     -58433.656     -58741.513      307.85747      6845.3022      182018.86    
     17700   301.36313     -58430.653     -58744.741      314.08805      6838.8853      182018.86    
     17800   300.21141     -58429.326     -58742.214      312.8877       6847.4041      182018.86    
     17900   298.05639     -58427.948     -58738.589      310.64169      7015.4519      182018.86    
     18000   299.78006     -58426.655     -58739.093      312.43814      6985.7269      182018.86    
     18100   299.82856     -58427.797     -58740.285      312.48868      6991.5561      182018.86    
     18200   299.45368     -58430.394     -58742.492      312.09798      6918.7242      182018.86    
     18300   300.508       -58430.949     -58744.145      313.19682      6881.491       182018.86    
     18400   299.584       -58428.816     -58741.05       312.2338       6971.2129      182018.86    
     18500   299.89986     -58425.555     -58738.118      312.56299      7031.4015      182018.86    
     18600   304.87815     -58420.609     -58738.36       317.7515       7033.0705      182018.86    
     18700   303.91128     -58422.354     -58739.098      316.7438       6985.9145      182018.86    
     18800   299.61996     -58429.902     -58742.173      312.27128      6959.1587      182018.86    
     18900   294.19582     -58432.788     -58739.406      306.6181       6951.6629      182018.86    
     19000   301.1215      -58428.9       -58742.736      313.83622      6869.9521      182018.86    
     19100   300.13613     -58426.496     -58739.306      312.80924      6972.9499      182018.86    
     19200   301.68796     -58425.382     -58739.808      314.42659      6927.1586      182018.86    
     19300   299.68574     -58424.994     -58737.334      312.33984      7078.4742      182018.86    
     19400   299.1205      -58428.165     -58739.916      311.75072      6938.5482      182018.86    
     19500   297.64819     -58431.678     -58741.895      310.21625      6953.1894      182018.86    
     19600   300.99569     -58431.274     -58744.98       313.7051       6849.4061      182018.86    
     19700   301.1481      -58429.061     -58742.925      313.86395      6856.2064      182018.86    
     19800   297.74597     -58424.353     -58734.671      310.31816      7054.0362      182018.86    
     19900   302.01164     -58420.236     -58735          314.76394      7036.6508      182018.86    
     20000   304.19209     -58422.337     -58739.374      317.03646      7013.186       182018.86    
     20100   299.54678     -58430.642     -58742.837      312.195        6893.9251      182018.86    
     20200   297.23626     -58431.015     -58740.802      309.78693      6914.4497      182018.86    
     20300   301.51427     -58427.977     -58742.223      314.24558      6928.8874      182018.86    
     20400   299.66059     -58425.616     -58737.929      312.31362      7008.0827      182018.86    
     20500   304.38423     -58421.477     -58738.714      317.23672      7006.2853      182018.86    
     20600   302.6835      -58422.227     -58737.691      315.46418      6997.0617      182018.86    
     20700   299.6039      -58429.567     -58741.821      312.25454      6938.1743      182018.86    
     20800   298.28272     -58432.796     -58743.674      310.87757      6898.6152      182018.86    
     20900   300.78169     -58430.377     -58743.859      313.48207      6881.8642      182018.86    
     21000   301.85527     -58426.275     -58740.876      314.60097      6933.338       182018.86    
     21100   298.68419     -58425.299     -58736.595      311.296        7000.1508      182018.86    
     21200   301.58436     -58424.45      -58738.769      314.31863      6967.2182      182018.86    
     21300   302.09176     -58426.338     -58741.186      314.84745      6938.3079      182018.86    
     21400   297.04449     -58429.946     -58739.533      309.58705      6979.5918      182018.86    
     21500   296.46185     -58431.886     -58740.866      308.97982      6970.5039      182018.86    
     21600   303.04827     -58430.607     -58746.451      315.84434      6821.8059      182018.86    
     21700   304.00191     -58426.067     -58742.905      316.83825      6912.8642      182018.86    
     21800   296.9722      -58422.567     -58732.079      309.51171      6993.6547      182018.86    
     21900   302.9445      -58421.292     -58737.028      315.7362       7059.6465      182018.86    
     22000   298.83752     -58429.42      -58740.876      311.4558       6846.229       182018.86    
     22100   301.52868     -58431.89      -58746.151      314.26059      6841.5462      182018.86    
     22200   297.55175     -58430.675     -58740.791      310.11573      6980.4213      182018.86    
     22300   299.69391     -58425.686     -58738.035      312.34835      6990.2994      182018.86    
     22400   303.18124     -58424.393     -58740.375      315.98293      6945.1095      182018.86    
     22500   299.61005     -58427.541     -58739.802      312.26094      6949.4924      182018.86    
     22600   297.43811     -58432.832     -58742.83       309.9973       6934.0294      182018.86    
     22700   294.5233      -58439.226     -58746.186      306.95941      6794.7042      182018.86    
     22800   293.86062     -58435.928     -58742.197      306.26875      6856.5769      182018.86    
     22900   298.93151     -58430.87      -58742.424      311.55376      6857.9575      182018.86    
     23000   304.19361     -58427.698     -58744.736      317.03805      6894.2983      182018.86    
     23100   295.96657     -58427.069     -58735.533      308.46363      6967.1324      182018.86    
     23200   301.25542     -58424.018     -58737.994      313.9758       7030.5088      182018.86    
     23300   298.73488     -58426.954     -58738.303      311.34882      6988.3563      182018.86    
     23400   298.30739     -58433.36      -58744.263      310.90329      6884.7654      182018.86    
     23500   298.9392      -58435.091     -58746.653      311.56178      6834.6666      182018.86    
     23600   295.32793     -58430.948     -58738.746      307.79802      6953.6828      182018.86    
     23700   298.8844      -58426.393     -58737.898      311.50466      6973.8342      182018.86    
     23800   302.34427     -58425.125     -58740.236      315.11062      6998.7467      182018.86    
     23900   302.17926     -58426.38      -58741.319      314.93864      6968.5861      182018.86    
     24000   297.4612      -58431.685     -58741.706      310.02136      6919.3839      182018.86    
     24100   297.68536     -58433.325     -58743.58       310.25499      6918.9798      182018.86    
     24200   299.74196     -58427.971     -58740.369      312.39843      6954.3003      182018.86    
     24300   302.15907     -58422.016     -58736.934      314.9176       7067.6428      182018.86    
     24400   303.18267     -58423.084     -58739.069      315.98442      6954.6721      182018.86    
     24500   301.05375     -58427.569     -58741.334      313.7656       6958.2441      182018.86    
     24600   296.50201     -58431.812     -58740.834      309.02167      6947.5542      182018.86    
     24700   298.8553      -58431.069     -58742.543      311.47433      6875.1836      182018.86    
     24800   300.09501     -58429.842     -58742.608      312.76639      6921.7793      182018.86    
     24900   301.95233     -58427.261     -58741.964      314.70213      6971.4038      182018.86    
     25000   299.13504     -58425.673     -58737.439      311.76588      7011.1678      182018.86    
     25100   301.32995     -58423.843     -58737.897      314.05347      7014.9156      182018.86    
     25200   304.13809     -58420.468     -58737.448      316.98018      7043.2242      182018.86    
     25300   299.78367     -58424.35      -58736.792      312.4419       6967.3126      182018.86    
     25400   302.57762     -58428.453     -58743.807      315.35382      6924.0381      182018.86    
     25500   297.71167     -58431.85      -58742.132      310.28241      6883.1513      182018.86    
     25600   299.23239     -58431.006     -58742.873      311.86734      6944.5101      182018.86    
     25700   297.43042     -58426.723     -58736.712      309.98929      7026.2789      182018.86    
     25800   304.54151     -58418.291     -58735.692      317.40064      7115.448       182018.86    
     25900   302.53438     -58421.408     -58736.717      315.30875      7061.2465      182018.86    
     26000   301.60079     -58427.145     -58741.48       314.33575      6981.1067      182018.86    
     26100   299.24614     -58430.347     -58742.228      311.88167      6967.6551      182018.86    
     26200   297.89625     -58430.955     -58741.43       310.47479      6944.9596      182018.86    
     26300   297.34603     -58428.406     -58738.307      309.90133      6953.3452      182018.86    
     26400   307.14823     -58420.968     -58741.085      320.11742      7004.0842      182018.86    
     26500   301.41014     -58423.001     -58737.138      314.13704      7013.5762      182018.86    
     26600   301.6063      -58427.575     -58741.916      314.34149      6976.7111      182018.86    
     26700   299.0166      -58431.086     -58742.729      311.64244      6915.5218      182018.86    
     26800   297.11347     -58430.47      -58740.129      309.65895      6924.4618      182018.86    
     26900   302.43556     -58427.691     -58742.897      315.20576      6935.9281      182018.86    
     27000   301.29212     -58426.313     -58740.327      314.01404      6953.4883      182018.86    
     27100   299.30449     -58427.081     -58739.023      311.94249      6996.2758      182018.86    
     27200   298.19268     -58428.13      -58738.914      310.78373      6961.9857      182018.86    
     27300   303.08528     -58423.837     -58739.72       315.88292      7034.7937      182018.86    
     27400   305.01049     -58422.302     -58740.191      317.88942      6983.5776      182018.86    
     27500   299.74034     -58426.319     -58738.716      312.39674      7001.5074      182018.86    
     27600   298.72115     -58430.552     -58741.886      311.33452      6912.4783      182018.86    
     27700   298.57916     -58431.656     -58742.842      311.18653      6904.1521      182018.86    
     27800   299.7251      -58427.494     -58739.875      312.38085      7002.4341      182018.86    
     27900   302.81885     -58421.169     -58736.775      315.60524      7052.939       182018.86    
     28000   304.45632     -58421.368     -58738.68       317.31185      7066.1329      182018.86    
     28100   301.125       -58426.706     -58740.546      313.83987      6894.366       182018.86    
     28200   299.34244     -58429.298     -58741.28       311.98204      6969.6526      182018.86    
     28300   299.3184      -58429.361     -58741.318      311.95699      6943.9661      182018.86    
     28400   300.59824     -58426.682     -58739.973      313.29087      6943.3052      182018.86    
     28500   303.40129     -58421.808     -58738.02       316.21228      6984.7401      182018.86    
     28600   300.77352     -58422.81      -58736.283      313.47354      6996.2804      182018.86    
     28700   300.33409     -58430.758     -58743.774      313.01556      6882.4199      182018.86    
     28800   296.82386     -58433.297     -58742.654      309.35712      6860.9267      182018.86    
     28900   297.32009     -58430.77      -58740.644      309.8743       6955.2802      182018.86    
     29000   304.23055     -58425.009     -58742.085      317.07655      6972.5165      182018.86    
     29100   300.9498      -58425.399     -58739.057      313.65727      6988.3719      182018.86    
     29200   304.06849     -58425.998     -58742.905      316.90765      6945.1455      182018.86    
     29300   297.18418     -58430.323     -58740.055      309.73265      6899.6574      182018.86    
     29400   296.51148     -58434.486     -58743.518      309.03155      6916.8975      182018.86    
     29500   294.4048      -58439.563     -58746.399      306.83591      6810.5544      182018.86    
     29600   300.19781     -58435.544     -58748.417      312.87353      6853.3075      182018.86    
     29700   298.13459     -58428.411     -58739.134      310.72319      6929.7164      182018.86    
     29800   302.15131     -58425.617     -58740.526      314.90951      6977.8036      182018.86    
     29900   298.85835     -58427.24      -58738.718      311.47751      6972.443       182018.86    
     30000   300.19733     -58429.34      -58742.213      312.87303      6911.9114      182018.86    
     30100   301.61411     -58432.429     -58746.779      314.34963      6825.3123      182018.86    
     30200   292.15116     -58436.939     -58741.426      304.48712      6865.1737      182018.86    
     30300   299.69871     -58431.079     -58743.432      312.35335      6904.3842      182018.86    
     30400   298.93551     -58427.669     -58739.227      311.55793      6890.0995      182018.86    
     30500   299.98554     -58426.744     -58739.396      312.6523       6940.8193      182018.86    
     30600   303.70113     -58425.195     -58741.72       316.52478      6923.7198      182018.86    
     30700   297.55278     -58426.18      -58736.296      310.11681      6979.2415      182018.86    
     30800   303.95224     -58429.184     -58745.97       316.78649      6844.8278      182018.86    
     30900   296.02575     -58434.387     -58742.913      308.52531      6886.3587      182018.86    
     31000   293.74382     -58432.603     -58738.75       306.14702      6937.3495      182018.86    
     31100   301.82925     -58426.934     -58741.508      314.57386      6935.1585      182018.86    
     31200   300.64137     -58426.168     -58739.504      313.33582      6956.4764      182018.86    
     31300   300.08002     -58426.721     -58739.472      312.75076      6914.7033      182018.86    
     31400   299.40991     -58428.836     -58740.889      312.05236      6957.7735      182018.86    
     31500   295.83069     -58433.517     -58741.839      308.32201      6909.2217      182018.86    
     31600   298.27036     -58434.739     -58745.604      310.86469      6864.4001      182018.86    
     31700   300.07329     -58430.053     -58742.797      312.74375      6925.9307      182018.86    
     31800   297.74927     -58424.44      -58734.762      310.3216       7056.764       182018.86    
     31900   304.80825     -58423.601     -58741.28       317.67864      6951.3087      182018.86    
     32000   300.45688     -58426.753     -58739.897      313.14353      6982.001       182018.86    
     32100   301.92473     -58427.43      -58742.104      314.67336      6948.1578      182018.86    
     32200   297.21086     -58430.581     -58740.341      309.76046      6947.7645      182018.86    
     32300   295.59607     -58437.773     -58745.851      308.07748      6854.1846      182018.86    
     32400   296.01849     -58437.489     -58746.007      308.51773      6854.4839      182018.86    
     32500   297.73016     -58432.413     -58742.715      310.30168      6866.1519      182018.86    
     32600   298.21627     -58429.09      -58739.898      310.80831      6909.2472      182018.86    
     32700   302.39378     -58425.48      -58740.642      315.16222      6967.091       182018.86    
     32800   297.95605     -58426.755     -58737.292      310.53711      6958.6904      182018.86    
     32900   302.70612     -58429.049     -58744.537      315.48775      6885.8707      182018.86    
     33000   291.88382     -58436.315     -58740.524      304.20848      6889.0833      182018.86    
     33100   300.43439     -58433.334     -58746.454      313.1201       6804.5391      182018.86    
     33200   299.25788     -58429.381     -58741.275      311.89391      6925.0621      182018.86    
     33300   298.36653     -58427.02      -58737.985      310.96493      7032.7451      182018.86    
     33400   301.91974     -58425.768     -58740.436      314.66816      6957.6663      182018.86    
     33500   302.95294     -58425.621     -58741.366      315.74499      6987.2567      182018.86    
     33600   294.91307     -58431.255     -58738.62       307.36565      6941.3957      182018.86    
     33700   296.25421     -58434.816     -58743.579      308.76341      6822.6111      182018.86    
     33800   299.13379     -58432.24      -58744.005      311.76458      6828.0585      182018.86    
     33900   303.53146     -58427.451     -58743.799      316.34794      6924.0348      182018.86    
     34000   300.1826      -58425.914     -58738.772      312.85768      6970.4206      182018.86    
     34100   297.24479     -58427.047     -58736.843      309.79581      7008.9084      182018.86    
     34200   298.95277     -58431.227     -58742.802      311.57591      6922.6959      182018.86    
     34300   298.8716      -58435.289     -58746.78       311.49132      6825.2346      182018.86    
     34400   294.56525     -58433.692     -58740.696      307.00314      6884.8381      182018.86    
     34500   299.89436     -58426.588     -58739.145      312.55726      6963.0371      182018.86    
     34600   300.47062     -58425.128     -58738.286      313.15786      6967.0756      182018.86    
     34700   302.38971     -58425.794     -58740.952      315.15798      6891.6095      182018.86    
     34800   297.52647     -58430.541     -58740.63       310.0894       6888.148       182018.86    
     34900   297.47045     -58434.449     -58744.48       310.031        6804.7648      182018.86    
     35000   295.25507     -58437.518     -58745.24       307.72208      6807.3337      182018.86    
     35100   298.98593     -58433.865     -58745.476      311.61047      6913.9563      182018.86    
     35200   298.77926     -58427.799     -58739.194      311.39507      6986.5841      182018.86    
     35300   304.65296     -58423.359     -58740.876      317.5168       6978.0006      182018.86    
     35400   301.09496     -58425.08      -58738.889      313.80856      6951.3298      182018.86    
     35500   296.32878     -58428.375     -58737.216      308.84113      6970.9494      182018.86    
     35600   300.41628     -58429.918     -58743.019      313.10122      6878.5898      182018.86    
     35700   299.94804     -58436.768     -58749.382      312.61321      6729.5316      182018.86    
     35800   298.58403     -58436.843     -58748.035      311.19161      6788.007       182018.86    
     35900   294.69935     -58430.525     -58737.668      307.1429       6907.2416      182018.86    
     36000   300.05614     -58425.809     -58738.535      312.72588      6956.9278      182018.86    
     36100   302.3885      -58425.349     -58740.506      315.15672      6918.4521      182018.86    
     36200   303.57365     -58426.14      -58742.532      316.39191      6949.0577      182018.86    
     36300   293.49704     -58430.386     -58736.275      305.88982      6978.5918      182018.86    
     36400   300.28669     -58430.858     -58743.824      312.96616      6910.1267      182018.86    
     36500   299.1609      -58431.97      -58743.763      311.79283      6907.4024      182018.86    
     36600   298.63829     -58429.237     -58740.485      311.24815      6898.271       182018.86    
     36700   302.976       -58424.023     -58739.792      315.76903      6989.576       182018.86    
     36800   299.91966     -58424.297     -58736.881      312.58363      7001.0677      182018.86    
     36900   299.62538     -58427.58      -58739.857      312.27693      6985.3597      182018.86    
     37000   298.96352     -58432.967     -58744.554      311.58712      6866.0221      182018.86    
     37100   298.28811     -58434.158     -58745.041      310.88319      6875.6438      182018.86    
     37200   299.23728     -58428.644     -58740.517      311.87244      6966.0486      182018.86    
     37300   302.76978     -58422.82      -58738.374      315.5541       7033.6171      182018.86    
     37400   298.114       -58424.102     -58734.803      310.70173      7040.738       182018.86    
     37500   302.1445      -58426.261     -58741.164      314.90241      6888.5529      182018.86    
     37600   299.37346     -58432.556     -58744.57       312.01437      6866.8589      182018.86    
     37700   296.53249     -58433.503     -58742.556      309.05344      6913.4303      182018.86    
     37800   298.36946     -58429.971     -58740.939      310.96797      6903.9474      182018.86    
     37900   300.51167     -58427.546     -58740.747      313.20064      6952.7502      182018.86    
     38000   300.13503     -58426.939     -58739.747      312.8081       6984.3761      182018.86    
     38100   303.26769     -58425.354     -58741.427      316.07303      6949.513       182018.86    
     38200   298.49254     -58428.353     -58739.449      311.09625      7000.0775      182018.86    
     38300   298.13039     -58435.066     -58745.784      310.71881      6849.7239      182018.86    
     38400   296.84015     -58434.307     -58743.681      309.3741       6879.5928      182018.86    
     38500   301.5604      -58428.849     -58743.143      314.29365      6896.2161      182018.86    
     38600   301.95714     -58426.256     -58740.963      314.70714      6964.7827      182018.86    
     38700   299.14233     -58426.787     -58738.561      311.77348      6966.1473      182018.86    
     38800   301.65264     -58426.549     -58740.939      314.38979      6940.073       182018.86    
     38900   298.60025     -58426.862     -58738.07       311.20852      6994.7283      182018.86    
     39000   303.15722     -58427.228     -58743.186      315.9579       6953.8689      182018.86    
     39100   298.50843     -58430.955     -58742.068      311.11282      6939.6362      182018.86    
     39200   295.7499      -58433.067     -58741.305      308.23781      6896.7287      182018.86    
     39300   298.57583     -58429.415     -58740.598      311.18306      6953.6295      182018.86    
     39400   302.39516     -58423.329     -58738.492      315.16366      6996.6187      182018.86    
     39500   300.66031     -58424.59      -58737.945      313.35556      6980.4477      182018.86    
     39600   300.49975     -58427.395     -58740.583      313.18822      6969.4519      182018.86    
     39700   297.94374     -58430.26      -58740.784      310.52428      6879.3898      182018.86    
     39800   298.49252     -58431.561     -58742.657      311.09623      6863.1037      182018.86    
     39900   298.6882      -58431.775     -58743.075      311.30017      6900.8863      182018.86    
     40000   299.74898     -58428.314     -58740.719      312.40575      6966.2259      182018.86    
     40100   301.31691     -58424.653     -58738.693      314.03988      6921.1682      182018.86    
     40200   300.42939     -58424.467     -58737.582      313.11489      7018.5585      182018.86    
     40300   301.79192     -58427.276     -58741.811      314.53495      6894.2621      182018.86    
     40400   297.07987     -58433.115     -58742.739      309.62394      6924.0613      182018.86    
     40500   299.19636     -58432.482     -58744.312      311.82979      6854.808       182018.86    
     40600   301.8128      -58427.69      -58742.247      314.55671      6912.8605      182018.86    
     40700   300.72049     -58421.993     -58735.412      313.41828      7017.1613      182018.86    
     40800   304.59645     -58422.036     -58739.494      317.4579       7039.0465      182018.86    
     40900   300.16632     -58424.927     -58737.767      312.84071      6997.8587      182018.86    
     41000   300.40524     -58427.95      -58741.04       313.08971      6933.516       182018.86    
     41100   297.95069     -58432.491     -58743.022      310.53152      6911.1294      182018.86    
     41200   297.30476     -58433.155     -58743.013      309.85832      6895.5576      182018.86    
     41300   303.40846     -58424.178     -58740.398      316.21974      7004.6564      182018.86    
     41400   303.79926     -58422.765     -58739.392      316.62705      6984.0321      182018.86    
     41500   300.48859     -58426.101     -58739.277      313.17658      7044.584       182018.86    
     41600   298.89695     -58430.886     -58742.404      311.51774      6902.6736      182018.86    
     41700   300.41948     -58432.249     -58745.354      313.10456      6895.1486      182018.86    
     41800   299.24625     -58430.538     -58742.42       311.88179      6928.508       182018.86    
     41900   303.79394     -58421.986     -58738.608      316.6215       7058.6148      182018.86    
     42000   301.53548     -58419.823     -58734.091      314.26768      7144.7524      182018.86    
     42100   300.81647     -58423.706     -58737.225      313.51831      7028.188       182018.86    
     42200   301.93492     -58429.016     -58743.7        314.68399      6930.5405      182018.86    
     42300   297.91862     -58430.676     -58741.174      310.49809      6963.8884      182018.86    
     42400   296.28224     -58429.694     -58738.487      308.79262      7006.193       182018.86    
     42500   301.3429      -58425.41      -58739.477      314.06697      6939.1767      182018.86    
     42600   306.02248     -58418.4       -58737.344      318.94414      7045.3596      182018.86    
     42700   303.22485     -58419.787     -58735.815      316.02838      7040.9714      182018.86    
     42800   301.46193     -58423.386     -58737.577      314.19103      7066.8979      182018.86    
     42900   299.16635     -58427.237     -58739.036      311.79851      7003.6648      182018.86    
     43000   298.89088     -58430.284     -58741.795      311.51141      6861.2826      182018.86    
     43100   303.98853     -58430.224     -58747.049      316.82431      6857.6393      182018.86    
     43200   295.35833     -58430.42      -58738.249      307.8297       6966.554       182018.86    
     43300   302.71511     -58424.764     -58740.262      315.49712      6967.4327      182018.86    
     43400   302.03126     -58423.48      -58738.264      314.78439      7030.6699      182018.86    
     43500   298.9548      -58427.03      -58738.609      311.57803      6999.4396      182018.86    
     43600   300.12608     -58431.135     -58743.934      312.79877      6847.8664      182018.86    
     43700   295.94267     -58436.044     -58744.483      308.43872      6818.9583      182018.86    
     43800   294.94093     -58437.329     -58744.723      307.39468      6888.6541      182018.86    
     43900   296.29932     -58431.088     -58739.898      308.81043      6951.1476      182018.86    
     44000   303.47913     -58425.489     -58741.782      316.2934       6895.8761      182018.86    
     44100   304.67533     -58424.193     -58741.733      317.5401       6958.3435      182018.86    
     44200   300.27858     -58425.651     -58738.609      312.95771      7022.0594      182018.86    
     44300   298.31698     -58430.548     -58741.462      310.91328      6946.3055      182018.86    
     44400   293.5931      -58435.449     -58741.439      305.98993      6897.2327      182018.86    
     44500   298.68023     -58432.569     -58743.861      311.29187      6904.0917      182018.86    
     44600   304.09763     -58429.111     -58746.049      316.93802      6882.5176      182018.86    
     44700   296.47879     -58428.543     -58737.541      308.99748      6979.8175      182018.86    
     44800   297.30892     -58426.671     -58736.534      309.86265      7029.1514      182018.86    
     44900   300.22109     -58424.803     -58737.701      312.89779      7028.4803      182018.86    
     45000   305.60205     -58422.768     -58741.274      318.50595      6988.146       182018.86    
     45100   301.01258     -58426.864     -58740.587      313.7227       6954.6912      182018.86    
     45200   298.92507     -58430.855     -58742.402      311.54704      6903.1165      182018.86    
     45300   295.47942     -58434.917     -58742.873      307.95591      6912.1388      182018.86    
     45400   300.9394      -58431.637     -58745.283      313.64644      6831.4097      182018.86    
     45500   300.31325     -58426.101     -58739.095      312.99385      7008.899       182018.86    
     45600   299.35903     -58425.389     -58737.388      311.99933      7018.2554      182018.86    
     45700   302.09384     -58424.987     -58739.836      314.84962      6988.5899      182018.86    
     45800   299.776       -58429.37      -58741.804      312.43391      6934.3463      182018.86    
     45900   297.79884     -58434.798     -58745.171      310.37326      6844.3276      182018.86    
     46000   298.90381     -58433.621     -58745.146      311.52489      6803.3526      182018.86    
     46100   299.81993     -58430.319     -58742.799      312.47969      6931.0771      182018.86    
     46200   297.82287     -58428.533     -58738.932      310.39831      6938.3781      182018.86    
     46300   298.59167     -58426.3       -58737.5        311.19956      7067.8518      182018.86    
     46400   302.92692     -58424.046     -58739.764      315.71787      7023.4639      182018.86    
     46500   299.88703     -58426.471     -58739.02       312.54962      6980.6689      182018.86    
     46600   299.91329     -58433.119     -58745.696      312.57699      6843.4877      182018.86    
     46700   298.32425     -58434.435     -58745.356      310.92086      6804.4086      182018.86    
     46800   297.9895      -58429.872     -58740.444      310.57197      6932.059       182018.86    
     46900   301.54917     -58425.9       -58740.182      314.28195      6984.0491      182018.86    
     47000   301.41684     -58425.234     -58739.378      314.14403      6966.2646      182018.86    
     47100   301.19808     -58425.952     -58739.868      313.91603      6978.5034      182018.86    
     47200   298.57176     -58431.465     -58742.644      311.17881      6905.4285      182018.86    
     47300   296.77766     -58435.345     -58744.653      309.30896      6817.1324      182018.86    
     47400   295.63426     -58434.201     -58742.318      308.11729      6871.2959      182018.86    
     47500   299.61707     -58429.933     -58742.201      312.26827      6871.8401      182018.86    
     47600   304.17349     -58426.647     -58743.665      317.01708      6881.0327      182018.86    
     47700   299.53527     -58426.351     -58738.534      312.18302      6987.5536      182018.86    
     47800   298.50792     -58428.692     -58739.804      311.11228      6992.9505      182018.86    
     47900   295.57067     -58434.2       -58742.251      308.05101      6937.1166      182018.86    
     48000   300.73552     -58431.931     -58745.365      313.43394      6825.4668      182018.86    
     48100   298.53795     -58430.4       -58741.543      311.14358      6911.3946      182018.86    
     48200   300.3934      -58427.052     -58740.129      313.07738      6931.1503      182018.86    
     48300   299.68847     -58424.061     -58736.404      312.34268      7008.826       182018.86    
     48400   302.16455     -58422.949     -58737.872      314.92331      7036.3358      182018.86    
     48500   297.69262     -58430.385     -58740.648      310.26255      6925.733       182018.86    
     48600   296.73636     -58434.657     -58743.922      309.26592      6832.1394      182018.86    
     48700   300.8922      -58431.622     -58745.219      313.59723      6872.6829      182018.86    
     48800   299.87564     -58428.151     -58740.689      312.53776      6894.4564      182018.86    
     48900   297.82696     -58427.215     -58737.617      310.40257      6946.111       182018.86    
     49000   301.32949     -58424.724     -58738.777      314.05299      6985.9096      182018.86    
     49100   301.25203     -58425.793     -58739.766      313.97226      6926.3867      182018.86    
     49200   303.91541     -58426.354     -58743.102      316.7481       6949.6596      182018.86    
     49300   297.02312     -58428.881     -58738.446      309.56478      6933.9714      182018.86    
     49400   299.43899     -58429.684     -58741.767      312.08266      6900.0952      182018.86    
     49500   297.41161     -58430.432     -58740.402      309.96968      6886.5629      182018.86    
     49600   304.63665     -58426.442     -58743.942      317.4998       6913.1937      182018.86    
     49700   299.57319     -58423.882     -58736.104      312.22253      6987.5678      182018.86    
     49800   305.68309     -58420.87      -58739.461      318.59042      7055.9792      182018.86    
     49900   297.5009      -58427.254     -58737.317      310.06274      6933.7521      182018.86    
     50000   298.44564     -58429.945     -58740.992      311.04738      6956.321       182018.86    
     50100   301.92978     -58429.039     -58743.717      314.67863      6857.9081      182018.86    
     50200   298.28687     -58429.908     -58740.79       310.88189      6878.1048      182018.86    
     50300   300.58134     -58427.558     -58740.832      313.27325      6893.1279      182018.86    
     50400   300.85454     -58424.507     -58738.065      313.55798      6990.5868      182018.86    
     50500   301.01117     -58423.983     -58737.704      313.72123      6988.448       182018.86    
     50600   303.41779     -58424.344     -58740.574      316.22947      6952.7244      182018.86    
     50700   298.16401     -58431.336     -58742.09       310.75385      6872.812       182018.86    
     50800   298.03542     -58432.536     -58743.156      310.61983      6873.3233      182018.86    
     50900   298.45475     -58429.375     -58740.432      311.05686      6870.066       182018.86    
     51000   300.96125     -58425.294     -58738.963      313.66921      6944.4931      182018.86    
     51100   300.3589      -58424.13      -58737.171      313.04142      7036.2552      182018.86    
     51200   304.33253     -58424.55      -58741.732      317.18283      6937.5025      182018.86    
     51300   296.48066     -58430.168     -58739.167      308.99942      6896.7745      182018.86    
     51400   300.8686      -58431.564     -58745.137      313.57264      6836.7539      182018.86    
     51500   298.24528     -58430.71      -58741.548      310.83855      6864.8449      182018.86    
     51600   297.90527     -58426.509     -58736.994      310.48418      6974.2759      182018.86    
     51700   302.32492     -58421.941     -58737.032      315.09046      6973.747       182018.86    
     51800   307.20377     -58419.776     -58739.952      320.17531      6989.3985      182018.86    
     51900   298.04851     -58427.966     -58738.599      310.63348      6957.4657      182018.86    
     52000   297.89591     -58431.848     -58742.322      310.47443      6891.5647      182018.86    
     52100   299.83458     -58431.825     -58744.32       312.49496      6884.6972      182018.86    
     52200   299.25151     -58428.832     -58740.72       311.88727      6901.6668      182018.86    
     52300   300.21693     -58422.849     -58735.742      312.89346      6982.7757      182018.86    
     52400   303.35132     -58420.844     -58737.004      316.16019      7055.5184      182018.86    
     52500   303.97939     -58423.837     -58740.652      316.81478      6908.7409      182018.86    
     52600   298.39023     -58427.365     -58738.355      310.98963      6966.9074      182018.86    
     52700   298.3008      -58428.451     -58739.347      310.89642      6945.936       182018.86    
     52800   302.02872     -58428.378     -58743.16       314.78174      6946.757       182018.86    
     52900   296.30883     -58429.527     -58738.348      308.82033      6926.9337      182018.86    
     53000   304.83459     -58425.651     -58743.357      317.70609      6913.9904      182018.86    
     53100   296.55897     -58426.159     -58735.24       309.08104      6976.532       182018.86    
     53200   302.2797      -58425.912     -58740.955      315.04333      6956.1305      182018.86    
     53300   299.57044     -58430.682     -58742.902      312.21966      6879.594       182018.86    
     53400   302.02929     -58432.65      -58747.433      314.78234      6814.0811      182018.86    
     53500   295.57996     -58432.077     -58740.138      308.0607       6943.29        182018.86    
     53600   298.91294     -58424.27      -58735.805      311.5344       7078.5964      182018.86    
     53700   303.67501     -58422.024     -58738.522      316.49755      6953.1216      182018.86    
     53800   304.74783     -58424.141     -58741.757      317.61567      6879.5932      182018.86    
     53900   299.58179     -58429.341     -58741.573      312.2315       6899.9128      182018.86    
     54000   296.8285      -58431.389     -58740.751      309.36195      6942.64        182018.86    
     54100   297.66158     -58430.655     -58740.885      310.23021      6880.4671      182018.86    
     54200   302.36893     -58427.942     -58743.078      315.13632      6895.4238      182018.86    
     54300   299.27113     -58427.278     -58739.185      311.90772      6898.8629      182018.86    
     54400   305.55696     -58422.957     -58741.416      318.45896      6975.2225      182018.86    
     54500   296.97628     -58420.426     -58729.942      309.51596      7101.9686      182018.86    
     54600   305.10803     -58421.485     -58739.476      317.99108      7003.3204      182018.86    
     54700   298.57878     -58430.57      -58741.756      311.18613      6902.7398      182018.86    
     54800   300.62979     -58431.368     -58744.692      313.32374      6885.3813      182018.86    
     54900   297.06584     -58430.315     -58739.924      309.60931      6967.5711      182018.86    
     55000   300.42225     -58425.185     -58738.293      313.10745      7037.6768      182018.86    
     55100   304.62722     -58422.209     -58739.699      317.48996      6995.9528      182018.86    
     55200   302.14192     -58426.281     -58741.181      314.89972      6945.7427      182018.86    
     55300   296.61308     -58432.858     -58741.996      309.13743      6943.8985      182018.86    
     55400   295.61171     -58431.428     -58739.522      308.09378      6956.5071      182018.86    
     55500   302.45274     -58427.651     -58742.875      315.22367      7022.1816      182018.86    
     55600   301.96757     -58426.766     -58741.484      314.71801      6966.8681      182018.86    
     55700   300.68234     -58425.262     -58738.641      313.37852      7025.1435      182018.86    
     55800   300.56978     -58422.089     -58735.351      313.2612       7047.4413      182018.86    
     55900   305.15563     -58420.956     -58738.997      318.04069      7016.0005      182018.86    
     56000   301.16329     -58427.265     -58741.145      313.87978      6920.9096      182018.86    
     56100   295.71503     -58431.025     -58739.227      308.20146      7011.8039      182018.86    
     56200   297.84554     -58430.913     -58741.335      310.42193      6926.2557      182018.86    
     56300   302.56406     -58428.222     -58743.561      315.3397       6857.2185      182018.86    
     56400   307.90096     -58420.909     -58741.811      320.90194      6992.1176      182018.86    
     56500   300.8746      -58421.112     -58734.691      313.5789       7018.8851      182018.86    
     56600   301.01653     -58423.287     -58737.014      313.72682      7054.2845      182018.86    
     56700   302.13389     -58427.122     -58742.013      314.89136      6944.8388      182018.86    
     56800   300.44865     -58430.278     -58743.412      313.13496      6887.578       182018.86    
     56900   301.90936     -58429.51      -58744.167      314.65735      6904.8632      182018.86    
     57000   297.73266     -58428.684     -58738.988      310.30429      6962.1828      182018.86    
     57100   301.79769     -58423.203     -58737.744      314.54096      7053.7355      182018.86    
     57200   302.38818     -58417.435     -58732.591      315.15638      7167.7634      182018.86    
     57300   304.44704     -58420.207     -58737.509      317.30218      7030.1082      182018.86    
     57400   300.66911     -58426.315     -58739.679      313.36472      6989.4046      182018.86    
     57500   300.78843     -58428.045     -58741.534      313.48909      6880.8542      182018.86    
     57600   299.30879     -58429.209     -58741.156      311.94697      6989.1824      182018.86    
     57700   297.11815     -58430.676     -58740.339      309.66383      6943.3774      182018.86    
     57800   300.25466     -58430.628     -58743.561      312.93277      6917.5106      182018.86    
     57900   300.26214     -58427.244     -58740.184      312.94057      7003.7941      182018.86    
     58000   304.87122     -58421.82      -58739.565      317.74427      7023.2694      182018.86    
     58100   303.2531      -58422.423     -58738.48       316.05783      7070.145       182018.86    
     58200   294.80006     -58429.032     -58736.279      307.24786      6977.9875      182018.86    
     58300   302.57185     -58428.988     -58744.336      315.34781      6913.8559      182018.86    
     58400   299.37119     -58429.309     -58741.321      312.012        6930.4229      182018.86    
     58500   300.02343     -58426.936     -58739.628      312.69178      6961.8813      182018.86    
     58600   303.39372     -58422.284     -58738.488      316.20438      7044.7247      182018.86    
     58700   303.26476     -58419.938     -58736.008      316.06997      7082.8803      182018.86    
     58800   298.6697      -58426.407     -58737.687      311.28089      7003.7288      182018.86    
     58900   299.57328     -58430.891     -58743.114      312.22262      6941.5922      182018.86    
     59000   301.21626     -58430.898     -58744.833      313.93498      6864.585       182018.86    
     59100   301.98521     -58428.274     -58743.01       314.7364       6947.6882      182018.86    
     59200   300.14362     -58423.524     -58736.341      312.81704      7045.6528      182018.86    
     59300   302.82059     -58418.147     -58733.754      315.60705      7130.4971      182018.86    
     59400   307.44741     -58416.934     -58737.364      320.42924      6978.543       182018.86    
     59500   301.41609     -58425.218     -58739.362      314.14325      7024.189       182018.86    
     59600   299.71343     -58429.555     -58741.924      312.3687       6923.2619      182018.86    
     59700   297.57733     -58431.963     -58742.105      310.1424       6876.2491      182018.86    
     59800   297.29208     -58431.586     -58741.431      309.84511      6904.5007      182018.86    
     59900   304.63564     -58425.233     -58742.732      317.49875      6889.9245      182018.86    
     60000   301.51446     -58422.794     -58737.04       314.24577      7021.2668      182018.86    
     60100   301.09419     -58423.991     -58737.799      313.80776      7062.446       182018.86    
     60200   292.84123     -58432.777     -58737.984      305.20632      6933.416       182018.86    
     60300   302.0964      -58432.252     -58747.105      314.85229      6878.999       182018.86    
     60400   297.65469     -58431.788     -58742.011      310.22302      6841.4355      182018.86    
     60500   301.27121     -58426.04      -58740.032      313.99225      6952.1683      182018.86    
     60600   302.33835     -58423.709     -58738.814      315.10445      7027.9182      182018.86    
     60700   300.44454     -58425.851     -58738.982      313.13067      6970.337       182018.86    
     60800   300.69849     -58427.775     -58741.17       313.39535      6963.0245      182018.86    
     60900   298.91266     -58429.609     -58741.143      311.53412      6956.734       182018.86    
     61000   293.96636     -58434.19      -58740.569      306.37896      6925.7183      182018.86    
     61100   298.92742     -58438.009     -58749.559      311.5495       6810.5752      182018.86    
     61200   300.99837     -58434.032     -58747.74       313.70789      6828.8708      182018.86    
     61300   296.21871     -58428.073     -58736.8        308.72641      6995.7947      182018.86    
     61400   300.56822     -58425.923     -58739.183      313.25958      6989.1023      182018.86    
     61500   300.44468     -58427.869     -58740.999      313.13082      6953.5417      182018.86    
     61600   300.1217      -58430.536     -58743.33       312.79421      6902.0674      182018.86    
     61700   299.15424     -58432.409     -58744.195      311.78589      6896.737       182018.86    
     61800   297.11946     -58430.762     -58740.427      309.6652       6908.7704      182018.86    
     61900   298.21899     -58426.472     -58737.283      310.81115      7020.6639      182018.86    
     62000   304.07555     -58423.208     -58740.123      316.915        6976.9839      182018.86    
     62100   304.19618     -58422.564     -58739.605      317.04072      7017.7042      182018.86    
     62200   299.41745     -58427.359     -58739.419      312.06022      6978.6928      182018.86    
     62300   296.75579     -58432.788     -58742.074      309.28616      6921.6346      182018.86    
     62400   298.00865     -58431.12      -58741.712      310.59193      6936.6869      182018.86    
     62500   301.23935     -58427.019     -58740.978      313.95905      6959.054       182018.86    
     62600   301.1391      -58426.262     -58740.117      313.85457      7006.0909      182018.86    
     62700   298.13331     -58429.401     -58740.122      310.72186      6967.736       182018.86    
     62800   297.39744     -58435.288     -58745.243      309.95491      6915.7213      182018.86    
     62900   297.02192     -58434.139     -58743.702      309.56354      6881.2415      182018.86    
     63000   299.79295     -58427.789     -58740.241      312.45157      7034.9655      182018.86    
     63100   302.34769     -58426.222     -58741.336      315.11418      6986.8179      182018.86    
     63200   298.41423     -58427.292     -58738.307      311.01463      7021.2004      182018.86    
     63300   298.40395     -58428.698     -58739.702      311.00392      6970.1641      182018.86    
     63400   295.55127     -58434.487     -58742.518      308.03079      6904.321       182018.86    
     63500   297.26699     -58436.219     -58746.038      309.81895      6839.9775      182018.86    
     63600   299.05606     -58431.124     -58742.808      311.68357      6895.6374      182018.86    
     63700   301.30199     -58425.691     -58739.716      314.02433      6976.4457      182018.86    
     63800   301.09519     -58424.298     -58738.107      313.8088       6989.2009      182018.86    
     63900   304.66895     -58424.545     -58742.079      317.53346      6949.8244      182018.86    
     64000   297.06216     -58431.354     -58740.959      309.60548      6916.2538      182018.86    
     64100   298.44348     -58432.54      -58743.585      311.04513      6911.7873      182018.86    
     64200   298.22446     -58429.858     -58740.675      310.81685      6933.6195      182018.86    
     64300   301.09704     -58425.582     -58739.393      313.81072      6985.4249      182018.86    
     64400   300.22446     -58425.337     -58738.238      312.9013       6974.0672      182018.86    
     64500   301.49472     -58426.752     -58740.978      314.2252       6948.8264      182018.86    
     64600   301.09754     -58429.826     -58743.637      313.81125      6905.3802      182018.86    
     64700   296.14095     -58433.879     -58742.524      308.64536      6883.4501      182018.86    
     64800   298.01455     -58433.524     -58744.122      310.59808      6859.0006      182018.86    
     64900   300.94111     -58425.232     -58738.88       313.64821      6970.9947      182018.86    
     65000   302.86286     -58422.791     -58738.442      315.6511       7026.9754      182018.86    
     65100   300.94337     -58425.585     -58739.235      313.65057      6963.1875      182018.86    
     65200   301.77507     -58430.378     -58744.895      314.51738      6881.3289      182018.86    
     65300   298.05856     -58431.819     -58742.463      310.64395      6862.7504      182018.86    
     65400   292.99243     -58431.31      -58736.674      305.3639       6995.8896      182018.86    
     65500   299.00361     -58428.992     -58740.621      311.62891      6937.1922      182018.86    
     65600   305.19336     -58426.572     -58744.652      318.08001      6893.688       182018.86    
     65700   297.82353     -58428.637     -58739.036      310.399        6940.3089      182018.86    
     65800   297.51217     -58430.436     -58740.51       310.07449      6976.3506      182018.86    
     65900   296.61042     -58432.986     -58742.12       309.13466      6931.8871      182018.86    
     66000   299.45439     -58433.075     -58745.173      312.09872      6839.2682      182018.86    
     66100   300.5725      -58427.19      -58740.454      313.26404      6908.8214      182018.86    
     66200   301.24964     -58424.646     -58738.616      313.96977      7020.9509      182018.86    
     66300   299.84576     -58426.624     -58739.13       312.50661      6954.8534      182018.86    
     66400   298.5703      -58430.189     -58741.366      311.17729      6927.5439      182018.86    
     66500   298.75253     -58435.092     -58746.46       311.36722      6790.5145      182018.86    
     66600   294.22883     -58440.427     -58747.079      306.65251      6812.5365      182018.86    
     66700   295.21552     -58435.715     -58743.395      307.68087      6845.5036      182018.86    
     66800   299.89429     -58429.464     -58742.021      312.55719      6919.5369      182018.86    
     66900   299.68257     -58427.115     -58739.452      312.33653      6886.9318      182018.86    
     67000   303.13937     -58424.453     -58740.392      315.9393       6975.4037      182018.86    
     67100   297.65673     -58424.479     -58734.704      310.22515      6989.8303      182018.86    
     67200   302.64202     -58425.785     -58741.206      315.42095      6966.633       182018.86    
     67300   300.1952      -58431.802     -58744.673      312.87081      6885.8157      182018.86    
     67400   298.28194     -58432.361     -58743.238      310.87676      6852.2818      182018.86    
     67500   299.08608     -58428.304     -58740.019      311.71486      6988.3512      182018.86    
     67600   300.13474     -58423.373     -58736.181      312.8078       7013.5384      182018.86    
     67700   300.50414     -58422.211     -58735.403      313.19279      7108.189       182018.86    
     67800   305.76787     -58423.846     -58742.524      318.67878      6913.0811      182018.86    
     67900   299.2779      -58428.835     -58740.75       311.91477      6923.1299      182018.86    
     68000   295.16222     -58431.241     -58738.866      307.62532      6961.5615      182018.86    
     68100   302.68806     -58428.663     -58744.132      315.46892      6905.2463      182018.86    
     68200   301.68058     -58425.1       -58739.519      314.41891      6959.4496      182018.86    
     68300   305.67874     -58419.007     -58737.593      318.58589      6989.5127      182018.86    
     68400   303.56335     -58420.159     -58736.541      316.38117      7061.2009      182018.86    
     68500   297.63265     -58427.564     -58737.764      310.20005      6921.7466      182018.86    
     68600   298.73604     -58429.557     -58740.907      311.35004      6922.3743      182018.86    
     68700   299.45334     -58429.604     -58741.701      312.09762      6865.2218      182018.86    
     68800   303.01862     -58426.883     -58742.696      315.81344      6882.7076      182018.86    
     68900   301.47382     -58423.985     -58738.188      314.20342      6988.643       182018.86    
     69000   307.0839      -58419.387     -58739.437      320.05038      6980.0133      182018.86    
     69100   296.85947     -58423.543     -58732.937      309.39423      7046.7936      182018.86    
     69200   296.44928     -58430.518     -58739.485      308.96672      6942.0383      182018.86    
     69300   302.0017      -58430.724     -58745.478      314.75358      6849.1761      182018.86    
     69400   298.4203      -58429.891     -58740.912      311.02097      6874.5957      182018.86    
     69500   302.55901     -58425.477     -58740.811      315.33443      6917.7904      182018.86    
     69600   300.90154     -58423.943     -58737.55       313.60697      7026.5836      182018.86    
     69700   301.01832     -58425.373     -58739.101      313.72868      6931.6577      182018.86    
     69800   296.91544     -58431.829     -58741.282      309.45256      6921.767       182018.86    
     69900   297.67826     -58433.121     -58743.369      310.24759      6883.1557      182018.86    
     70000   299.33861     -58428.913     -58740.891      311.97804      6935.7409      182018.86    
     70100   301.40401     -58424.112     -58738.242      314.13066      7062.6998      182018.86    
     70200   299.84418     -58424.863     -58737.368      312.50496      6990.7731      182018.86    
     70300   305.95096     -58424.427     -58743.296      318.86961      6948.6201      182018.86    
     70400   298.05543     -58428.188     -58738.829      310.64069      6956.7974      182018.86    
     70500   302.54831     -58428.036     -58743.36       315.32328      6939.7767      182018.86    
     70600   295.45428     -58429.647     -58737.576      307.9297       6983.8664      182018.86    
     70700   302.04535     -58426.828     -58741.627      314.79908      6992.2805      182018.86    
     70800   305.30888     -58419.853     -58738.053      318.20041      7003.8457      182018.86    
     70900   304.03641     -58419.893     -58736.767      316.87421      7042.8424      182018.86    
     71000   297.84477     -58425.73      -58736.152      310.42114      7027.7825      182018.86    
     71100   298.54932     -58427.861     -58739.016      311.15543      6965.4854      182018.86    
     71200   301.87641     -58428.696     -58743.319      314.62301      6940.6603      182018.86    
     71300   301.20883     -58431.175     -58745.102      313.92724      6850.5438      182018.86    
     71400   290.77234     -58435.747     -58738.797      303.05007      6869.998       182018.86    
     71500   300.06815     -58430.3       -58743.039      312.73839      6899.1814      182018.86    
     71600   302.18625     -58424.293     -58739.239      314.94592      6964.4351      182018.86    
     71700   298.31157     -58424.889     -58735.797      310.90764      7022.2672      182018.86    
     71800   300.78291     -58427.403     -58740.887      313.48333      6981.9673      182018.86    
     71900   300.61552     -58431.458     -58744.767      313.30888      6872.3508      182018.86    
     72000   296.3217      -58432.467     -58741.301      308.83375      6887.7397      182018.86    
     72100   299.68392     -58423.471     -58735.809      312.33794      7023.2016      182018.86    
     72200   303.59005     -58420.735     -58737.144      316.409        7034.0181      182018.86    
     72300   305.31193     -58424.644     -58742.848      318.20359      6915.9778      182018.86    
     72400   297.99705     -58430.764     -58741.344      310.57984      6881.6619      182018.86    
     72500   298.90969     -58429.61      -58741.141      311.53101      6959.4749      182018.86    
     72600   295.78522     -58427.447     -58735.721      308.27461      7023.6079      182018.86    
     72700   305.17717     -58423.556     -58741.619      318.06314      6941.1037      182018.86    
     72800   302.97334     -58422.787     -58738.553      315.76626      7031.6908      182018.86    
     72900   297.17922     -58426.968     -58736.696      309.72748      7032.4205      182018.86    
     73000   299.87724     -58431.13      -58743.67       312.53942      6885.0784      182018.86    
     73100   297.36898     -58433.285     -58743.21       309.92525      6912.3086      182018.86    
     73200   301.39028     -58428.294     -58742.411      314.11635      6883.9785      182018.86    
     73300   300.51214     -58424.765     -58737.966      313.20113      6998.2454      182018.86    
     73400   298.29502     -58425.458     -58736.348      310.8904       6986.8006      182018.86    
     73500   303.38294     -58425.183     -58741.376      316.19314      6928.9426      182018.86    
     73600   299.95968     -58428.593     -58741.218      312.62535      6907.6135      182018.86    
     73700   295.24117     -58436.989     -58744.697      307.7076       6832.0138      182018.86    
     73800   294.64613     -58436.735     -58743.822      307.08744      6893.6334      182018.86    
     73900   299.80945     -58431.672     -58744.14       312.46877      6857.779       182018.86    
     74000   300.37054     -58428.027     -58741.081      313.05355      6912.7438      182018.86    
     74100   303.68915     -58425.417     -58741.929      316.51229      6899.6512      182018.86    
     74200   299.70307     -58426.524     -58738.882      312.35789      6967.584       182018.86    
     74300   296.89208     -58430.635     -58740.063      309.42821      6895.3127      182018.86    
     74400   296.69128     -58436.074     -58745.293      309.21894      6853.0036      182018.86    
     74500   298.43672     -58434.79      -58745.828      311.03807      6840.9191      182018.86    
     74600   301.56645     -58427.332     -58741.632      314.29996      6902.0388      182018.86    
     74700   300.45808     -58425.929     -58739.074      313.14479      6941.8113      182018.86    
     74800   299.61068     -58426.851     -58739.112      312.26161      6931.4523      182018.86    
     74900   300.06193     -58429.01      -58741.742      312.73191      6924.7985      182018.86    
     75000   298.03596     -58432.445     -58743.066      310.62039      6877.1359      182018.86    
     75100   299.69365     -58434.089     -58746.437      312.34808      6845.4638      182018.86    
     75200   295.83285     -58433.353     -58741.677      308.32426      6905.3644      182018.86    
     75300   300.7153      -58426.067     -58739.479      313.41286      7023.565       182018.86    
     75400   304.12422     -58423.243     -58740.209      316.96573      6951.6696      182018.86    
[...]
    181800   298.1625      -58428.95      -58739.703      310.75228      6976.8758      182018.86    
    181900   301.77262     -58428.021     -58742.536      314.51483      6961.1079      182018.86    
    182000   299.24596     -58427.628     -58739.51       311.88148      6984.6427      182018.86    
    182100   301.97749     -58426.12      -58740.848      314.72836      6954.5899      182018.86    
    182200   302.96368     -58423.528     -58739.285      315.75619      7012.6898      182018.86    
    182300   300.36398     -58424.155     -58737.201      313.04671      6980.2604      182018.86    
    182400   300.4475      -58428.906     -58742.039      313.13376      6946.6703      182018.86    
    182500   298.67454     -58433.182     -58744.468      311.28594      6842.5272      182018.86    
    182600   298.24244     -58431.861     -58742.697      310.8356       6931.6431      182018.86    
    182700   301.48118     -58426.693     -58740.905      314.21109      6919.4559      182018.86    
    182800   300.78969     -58425.735     -58739.225      313.4904       7011.8128      182018.86    
    182900   301.26632     -58426.946     -58740.933      313.98716      6911.4036      182018.86    
    183000   298.96725     -58428.427     -58740.018      311.59101      6911.205       182018.86    
    183100   303.06317     -58426.759     -58742.619      315.85988      6946.8064      182018.86    
    183200   300.59077     -58425.336     -58738.619      313.28308      6953.9342      182018.86    
    183300   302.84547     -58424.63      -58740.263      315.63299      6975.5986      182018.86    
    183400   297.62897     -58427.4       -58737.597      310.19622      6933.6659      182018.86    
    183500   300.0788      -58431.296     -58744.045      312.74949      6887.0046      182018.86    
    183600   299.1045      -58433.929     -58745.663      311.73405      6800.4914      182018.86    
    183700   299.96305     -58429.837     -58742.466      312.62885      6917.9809      182018.86    
    183800   298.95056     -58424.761     -58736.334      311.57361      6996.464       182018.86    
    183900   301.7535      -58424.326     -58738.821      314.49491      7016.7497      182018.86    
    184000   300.13318     -58427.568     -58740.374      312.80617      6937.9888      182018.86    
    184100   298.2972      -58429.928     -58740.82       310.89267      6904.7673      182018.86    
    184200   297.87374     -58430.494     -58740.946      310.45132      6976.2045      182018.86    
    184300   295.76591     -58434.145     -58742.399      308.25449      6934.0202      182018.86    
    184400   299.5519      -58434.652     -58746.852      312.20035      6866.0388      182018.86    
    184500   300.98764     -58429.643     -58743.34       313.69671      6936.1182      182018.86    
    184600   298.31512     -58424.283     -58735.194      310.91134      7012.3004      182018.86    
    184700   301.39927     -58423.618     -58737.744      314.12572      7032.0877      182018.86    
    184800   301.10451     -58426.975     -58740.794      313.81851      6983.0619      182018.86    
    184900   301.30671     -58429.988     -58744.018      314.02925      6921.8492      182018.86    
    185000   298.04218     -58431.278     -58741.905      310.62688      6898.8477      182018.86    
    185100   299.74394     -58429.613     -58742.013      312.4005       6933.5637      182018.86    
    185200   297.69307     -58429.241     -58739.504      310.26303      6984.6279      182018.86    
    185300   303.50093     -58426.983     -58743.299      316.31612      6932.3528      182018.86    
    185400   298.71124     -58426.787     -58738.111      311.32418      7020.807       182018.86    
    185500   301.56698     -58424.56      -58738.86       314.30051      7015.6256      182018.86    
    185600   300.02116     -58423.136     -58735.825      312.68942      7056.0329      182018.86    
    185700   302.12848     -58425.383     -58740.268      314.88572      6984.037       182018.86    
    185800   302.60409     -58429.842     -58745.224      315.38142      6852.0765      182018.86    
    185900   296.33406     -58432.306     -58741.153      308.84664      6920.4744      182018.86    
    186000   300.95852     -58428.885     -58742.552      313.66636      6943.0151      182018.86    
    186100   304.53102     -58422.106     -58739.496      317.3897       7062.7873      182018.86    
    186200   299.55212     -58422.492     -58734.693      312.20057      7082.3332      182018.86    
    186300   300.38768     -58424.711     -58737.782      313.07142      7004.4457      182018.86    
    186400   299.78421     -58427.971     -58740.414      312.44246      6978.357       182018.86    
    186500   300.37537     -58429.216     -58742.275      313.05858      6934.7583      182018.86    
    186600   299.87948     -58430.2       -58742.741      312.54175      6893.8918      182018.86    
    186700   293.41695     -58435.451     -58741.258      305.80635      6888.7878      182018.86    
    186800   300.93832     -58434.005     -58747.651      313.6453       6849.9329      182018.86    
    186900   295.93377     -58429.462     -58737.892      308.42944      6961.0603      182018.86    
    187000   304.42806     -58423.699     -58740.982      317.2824       6991.1199      182018.86    
    187100   299.66466     -58425.438     -58737.756      312.31787      6954.9157      182018.86    
    187200   299.99147     -58427.145     -58739.804      312.65847      6962.6925      182018.86    
    187300   298.45394     -58432.225     -58743.281      311.05603      6900.1629      182018.86    
    187400   297.74559     -58435.815     -58746.133      310.31776      6850.2669      182018.86    
    187500   293.36276     -58433.429     -58739.179      305.74987      6899.5788      182018.86    
    187600   298.79956     -58429.215     -58740.631      311.41624      6978.6855      182018.86    
    187700   301.12443     -58427.12      -58740.959      313.83928      6977.9159      182018.86    
    187800   303.84333     -58425.379     -58742.052      316.67298      7015.1631      182018.86    
    187900   297.15099     -58428.615     -58738.313      309.69805      6985.7436      182018.86    
    188000   296.64302     -58433.718     -58742.887      309.16864      6885.0061      182018.86    
    188100   297.56572     -58434.101     -58744.231      310.1303       6847.4365      182018.86    
    188200   299.75256     -58426.808     -58739.218      312.40948      6952.428       182018.86    
    188300   301.08787     -58422.214     -58736.015      313.80117      7053.2541      182018.86    
    188400   302.9247      -58423.063     -58738.779      315.71556      6958.8779      182018.86    
    188500   300.83037     -58428.807     -58742.34       313.5328       6930.8585      182018.86    
    188600   296.98955     -58431.229     -58740.759      309.5298       6937.2456      182018.86    
    188700   299.47757     -58429.86      -58741.983      312.12288      6955.2962      182018.86    
    188800   300.24059     -58426.108     -58739.026      312.91812      7000.2955      182018.86    
    188900   303.7857      -58422.432     -58739.045      316.61291      6920.2419      182018.86    
    189000   303.39756     -58424.533     -58740.742      316.20838      7036.7176      182018.86    
    189100   298.01348     -58426.742     -58737.339      310.59697      6996.5153      182018.86    
    189200   299.41139     -58427.669     -58739.723      312.0539       6906.6953      182018.86    
    189300   300.79359     -58429.144     -58742.638      313.49447      6894.4017      182018.86    
    189400   300.98887     -58431.538     -58745.236      313.69799      6872.887       182018.86    
    189500   293.54621     -58434.903     -58740.844      305.94107      6906.6582      182018.86    
    189600   296.64445     -58430.675     -58739.845      309.17012      6994.9877      182018.86    
    189700   303.97874     -58424.54      -58741.354      316.8141       6923.4946      182018.86    
    189800   303.7717      -58425.033     -58741.631      316.59833      6968.4293      182018.86    
    189900   297.79821     -58427.648     -58738.02       310.3726       6973.0153      182018.86    
    190000   297.77359     -58430.008     -58740.355      310.34695      6906.8168      182018.86    
    190100   296.20035     -58436.639     -58745.346      308.70727      6769.7829      182018.86    
    190200   299.08415     -58437.228     -58748.941      311.71284      6815.7253      182018.86    
    190300   295.84871     -58428.61      -58736.951      308.34079      7012.5145      182018.86    
    190400   303.96846     -58423.519     -58740.322      316.8034       6999.4924      182018.86    
    190500   300.07229     -58425.933     -58738.676      312.74271      6995.0723      182018.86    
    190600   296.46769     -58430.369     -58739.354      308.98591      6993.3606      182018.86    
    190700   300.24419     -58430.705     -58743.627      312.92187      6902.3091      182018.86    
    190800   301.69875     -58429.357     -58743.795      314.43785      6885.9439      182018.86    
    190900   298.11628     -58426.174     -58736.878      310.7041       6980.4234      182018.86    
    191000   306.06086     -58420.846     -58739.83       318.98414      6986.8233      182018.86    
    191100   299.6105      -58423.383     -58735.645      312.26142      6998.3404      182018.86    
    191200   301.66472     -58428.842     -58743.244      314.40238      6922.5697      182018.86    
    191300   295.80568     -58432.799     -58741.095      308.29594      6859.9289      182018.86    
    191400   301.49701     -58429.533     -58743.761      314.22758      6876.0682      182018.86    
    191500   299.20845     -58426.506     -58738.348      311.8424       7004.8095      182018.86    
    191600   302.36085     -58424.036     -58739.163      315.1279       6966.93        182018.86    
    191700   304.61197     -58425.699     -58743.173      317.47407      6892.0548      182018.86    
    191800   298.83177     -58433.154     -58744.604      311.44981      6828.4238      182018.86    
    191900   294.79315     -58435.056     -58742.297      307.24066      6842.0546      182018.86    
    192000   299.50103     -58429.792     -58741.939      312.14733      6907.5499      182018.86    
    192100   299.06171     -58426.7       -58738.389      311.68946      6985.0454      182018.86    
    192200   303.75098     -58426.129     -58742.706      316.57673      6916.7092      182018.86    
    192300   297.00108     -58428.845     -58738.387      309.54182      6913.9519      182018.86    
    192400   300.67709     -58428.246     -58741.619      313.37304      6904.4843      182018.86    
    192500   301.68295     -58427.308     -58741.729      314.42137      6908.7168      182018.86    
    192600   301.02942     -58425.927     -58739.668      313.74025      6960.3353      182018.86    
    192700   297.83095     -58426.007     -58736.413      310.40673      7002.0022      182018.86    
    192800   299.67855     -58427.327     -58739.659      312.33234      6929.413       182018.86    
    192900   306.25445     -58429.349     -58748.535      319.1859       6795.8697      182018.86    
    193000   293.15124     -58434.765     -58740.294      305.52942      6879.2649      182018.86    
    193100   297.19379     -58431.488     -58741.231      309.74266      6944.3199      182018.86    
    193200   297.80909     -58427.745     -58738.129      310.38395      6952.852       182018.86    
    193300   302.64582     -58426.272     -58741.697      315.42491      6925.0838      182018.86    
    193400   304.174       -58426.069     -58743.087      317.01761      6945.4522      182018.86    
    193500   297.04565     -58428.154     -58737.742      309.58826      6951.7321      182018.86    
    193600   299.45997     -58429.019     -58741.124      312.10454      6911.8471      182018.86    
    193700   299.3248      -58432.227     -58744.191      311.96366      6844.6915      182018.86    
    193800   296.81303     -58434.203     -58743.549      309.34582      6853.4418      182018.86    
    193900   301.45688     -58430.272     -58744.458      314.18576      6852.5787      182018.86    
    194000   300.53202     -58424.521     -58737.743      313.22185      6973.3089      182018.86    
    194100   300.7613      -58423.107     -58736.568      313.46081      7033.5454      182018.86    
    194200   303.96247     -58425.457     -58742.254      316.79715      6882.741       182018.86    
    194300   298.41172     -58429.774     -58740.786      311.01202      6870.774       182018.86    
    194400   299.90297     -58429.431     -58741.997      312.56624      6914.7032      182018.86    
    194500   297.02535     -58428.695     -58738.262      309.56711      6954.2021      182018.86    
    194600   303.24585     -58423.677     -58739.727      316.05027      6897.6797      182018.86    
    194700   306.75116     -58418.89      -58738.593      319.70359      6990.9496      182018.86    
    194800   300.99763     -58424.689     -58738.396      313.70712      6885.9574      182018.86    
    194900   296.0538      -58431.79      -58740.344      308.55453      6907.9097      182018.86    
    195000   299.37898     -58430.9       -58742.92       312.02012      6802.8818      182018.86    
    195100   302.65404     -58426.759     -58742.192      315.43347      6821.856       182018.86    
    195200   301.94198     -58423.899     -58738.591      314.69135      6996.0721      182018.86    
    195300   299.26383     -58423.843     -58735.744      311.90011      7008.2722      182018.86    
    195400   300.03858     -58428.677     -58741.384      312.70758      6966.4325      182018.86    
    195500   298.90312     -58432.787     -58744.311      311.52417      6793.919       182018.86    
    195600   302.51206     -58430.896     -58746.182      315.2855       6844.1113      182018.86    
    195700   294.14779     -58428.314     -58734.883      306.56805      6986.4306      182018.86    
    195800   304.3199      -58421.473     -58738.643      317.16967      6961.4946      182018.86    
    195900   302.49522     -58424.129     -58739.397      315.26794      6918.6606      182018.86    
    196000   302.54154     -58427.259     -58742.575      315.31622      6891.9287      182018.86    
    196100   296.81317     -58429.968     -58739.314      309.34597      6903.29        182018.86    
    196200   297.87909     -58428.865     -58739.322      310.4569       6985.8895      182018.86    
    196300   303.46439     -58421.517     -58737.795      316.27804      6973.2901      182018.86    
    196400   306.56782     -58418.746     -58738.259      319.51251      6969.5446      182018.86    
    196500   301.85573     -58424.458     -58739.059      314.60146      6915.4503      182018.86    
    196600   298.87317     -58427.984     -58739.477      311.49295      6923.0206      182018.86    
    196700   296.53692     -58428.476     -58737.534      309.05806      6952.7961      182018.86    
    196800   306.01432     -58425.917     -58744.853      318.93564      6884.0351      182018.86    
    196900   298.86202     -58428.213     -58739.694      311.48133      6985.1897      182018.86    
    197000   296.76421     -58431.901     -58741.196      309.29495      6938.7467      182018.86    
    197100   296.43369     -58435.163     -58744.114      308.95046      6831.1101      182018.86    
    197200   299.44038     -58431.496     -58743.58       312.08412      6828.9314      182018.86    
    197300   300.66282     -58425.519     -58738.877      313.35818      6967.0546      182018.86    
    197400   302.20758     -58425.225     -58740.193      314.96816      6915.2461      182018.86    
    197500   299.44634     -58427.902     -58739.992      312.09033      6961.5151      182018.86    
    197600   298.25189     -58432.513     -58743.359      310.84544      6860.3888      182018.86    
    197700   299.1169      -58436.33      -58748.077      311.74698      6804.4742      182018.86    
    197800   298.2638      -58432.95      -58743.808      310.85786      6857.1035      182018.86    
    197900   300.6653      -58423.203     -58736.564      313.36076      6972.8515      182018.86    
    198000   300.73907     -58424.239     -58737.676      313.43764      7004.5452      182018.86    
    198100   299.05723     -58429.132     -58740.816      311.68479      6868.5067      182018.86    
    198200   299.66337     -58431.354     -58743.67       312.31652      6860.892       182018.86    
    198300   296.74923     -58431.24      -58740.52       309.27934      6867.695       182018.86    
    198400   298.94893     -58425.113     -58736.685      311.57192      6919.7308      182018.86    
    198500   302.17125     -58421.852     -58736.782      314.9303       6942.9052      182018.86    
    198600   301.75153     -58424.914     -58739.407      314.49285      6944.6146      182018.86    
    198700   298.13037     -58428.483     -58739.202      310.71879      6941.1934      182018.86    
    198800   300.71894     -58427.9       -58741.317      313.41666      6924.1264      182018.86    
    198900   298.88741     -58428.6       -58740.107      311.50779      6886.4488      182018.86    
    199000   300.16144     -58428.719     -58741.555      312.83562      6968.1651      182018.86    
    199100   303.00088     -58425.961     -58741.756      315.79495      6916.9781      182018.86    
    199200   303.30589     -58421.641     -58737.754      316.11285      6959.4507      182018.86    
    199300   299.59417     -58422.44      -58734.684      312.2444       6976.4583      182018.86    
    199400   304.16668     -58427.159     -58744.169      317.00998      6901.7352      182018.86    
    199500   297.53024     -58431.303     -58741.396      310.09332      6884.0297      182018.86    
    199600   297.06328     -58430.141     -58739.748      309.60664      6880.7743      182018.86    
    199700   304.58307     -58427.536     -58744.98       317.44396      6830.6396      182018.86    
    199800   299.33021     -58428.503     -58740.472      311.9693       6928.0213      182018.86    
    199900   299.57042     -58426.354     -58738.574      312.21965      6930.4287      182018.86    
    200000   302.27372     -58422.935     -58737.972      315.03709      6973.9449      182018.86    
Loop time of 26322.7 on 20 procs for 200000 steps with 8064 atoms

Performance: 0.656 ns/day, 36.559 hours/ns, 7.598 timesteps/s, 61.270 katom-step/s
100.0% CPU use with 20 MPI tasks x 1 OpenMP threads

MPI task timing breakdown:
Section |  min time  |  avg time  |  max time  |%varavg| %total
---------------------------------------------------------------
Pair    | 22863      | 24100      | 25939      | 695.4 | 91.55
Neigh   | 233.29     | 252.44     | 284.7      |  98.9 |  0.96
Comm    | 92.295     | 1963.7     | 3219.3     |2471.4 |  7.46
Output  | 0.48815    | 0.56801    | 0.65696    |   6.4 |  0.00
Modify  | 3.5605     | 4.4616     | 5.4619     |  26.9 |  0.02
Other   |            | 1.887      |            |       |  0.01

Nlocal:          403.2 ave         432 max         383 min
Histogram: 8 0 0 1 3 2 2 0 0 4
Nghost:        1634.35 ave        1681 max        1598 min
Histogram: 8 3 1 0 0 0 0 0 0 8
Neighs:              0 ave           0 max           0 min
Histogram: 20 0 0 0 0 0 0 0 0 0
FullNghs:      23030.7 ave       24729 max       21834 min
Histogram: 8 0 0 2 2 2 2 0 0 4

Total # of neighbors = 460614
Ave neighs/atom = 57.119792
Neighbor list builds = 200000
Dangerous builds not checked
Total wall time: 7:18:43
