108
 Atoms. Timestep: 0
1    1.9498426099999999    1.6123894800000000    2.2463115000000000
1    3.2310994800000001    7.2917578000000001   10.6101818899999998
1    5.0867491899999999    5.3743590899999996    2.2430686899999999
1    8.9265713699999996    5.1206595400000001    7.8247845199999997
1    0.2592721000000000    7.0133755899999999    5.3305418199999997
1   10.7365987599999997   10.8800927800000000   10.6153213300000004
1    7.1881782400000001    3.5480399000000000    5.1419050200000003
1    7.2680072800000000    7.1069656900000000    5.4505338700000001
1    1.6494264599999999    5.2833683000000002    2.6433772400000000
1   10.7283949100000005    3.2646578100000001    5.3122076399999996
1   10.8235741700000005    3.6351975099999998    0.1936622900000000
1    1.9354248400000000    5.1519876800000004    7.7933675300000003
1    8.9461627799999999    9.0473408899999992    8.0078490599999999
1    1.7098071600000000    1.6894044600000000    7.9303547200000004
1    7.3893707199999996    7.2870110099999996   10.4758578999999994
1    8.7307771299999999    9.0393448700000008    2.9513383800000002
1    5.0789946400000003    8.9861253300000001    2.4193840299999998
1    5.4426058800000003    9.3071524599999993    7.9839223300000004
1   10.9507573300000001   10.7516530699999997    5.3004673799999997
1    3.5276752199999999    3.4735595899999998    5.1816768299999998
1   10.9538038699999998    7.2940740100000001   10.3258917399999994
1    1.6456279000000000    9.0987234299999997    7.9318484199999997
1    7.2406413799999996    3.7825271200000001    0.0748470800000000
1    8.9499556299999998    5.4080370699999998    2.6872656600000000
1    3.8236803699999999    6.9904107199999999    4.8131646100000003
1    3.7737331799999998    0.0466739800000000    0.0220746300000000
1    7.1999626299999999    0.0728454600000000    5.2426781499999997
1    5.6696258100000003    1.6242438699999999    2.6256736900000002
1    5.3494679300000003    1.7250430200000000    7.5813982700000002
1    1.4256022800000001    8.9866387299999992    2.5796010100000002
1    3.3299887699999999   10.9341262399999994    5.2506655200000001
1    3.7357748000000002    3.6106027200000002   10.2165931000000008
1    7.1817182600000002   10.9535638199999994   10.5472857399999995
1    9.0363334999999996    1.7914524800000000    2.5222215200000000
1    5.4428051599999998    5.4758693899999997    7.8838400899999996
1    9.0497654500000007    1.7001676400000001    7.7713846300000000
2   10.5057749000000005    9.5845480799999994    1.6476423200000001
2    5.0698647899999996    7.1086391100000004    3.3652439699999999
2   10.8249983400000005    5.5721666000000001    4.0577155600000001
2   10.5201266100000002    1.7316611000000000    4.2294791399999996
2    1.7629813400000001   10.8695582599999998    3.8848047999999999
2    1.7024185500000000    0.0846790300000000    1.1687234900000001
2    2.1226030599999999    3.9810609000000001    0.6740873500000000
2    0.4495063800000000    1.9355864400000000    9.7257516200000005
2    1.7441040500000000   10.8285213500000008    8.9739178099999997
2    1.7574875700000001   10.4756398799999992    6.2722654799999997
2   10.9542293999999991    1.8100072300000001    6.7498245399999997
2    1.8843236500000000    3.3871044800000001    3.3237903400000000
2    1.4719650000000000    7.5332583900000003    0.9597057000000000
2    1.8063053099999999    7.1928590899999998    8.9430213199999997
2   10.7286291499999997    2.2867134199999999    1.6239633499999999
2    3.7478391100000001    5.1082562500000002    6.4553532999999996
2    3.5104206200000001    1.6528777100000001    6.7340960599999997
2    5.3909712299999999    3.5057395499999999    8.6978579099999997
2   10.8328709900000000    5.2844045199999998    1.4801322500000000
2    2.3622152700000001    7.5195828899999997    5.9504287099999997
2   10.8529835800000001    8.6150234799999996    6.8946615600000003
2    3.8762220599999999    1.6630748900000001    4.1044106700000000
2    5.8673867599999996   10.6716270499999997    3.3763120500000001
2    5.5116577099999997   10.6540145099999997    0.7522161400000000
2    3.9002888900000001    1.6740566400000001    1.6405635100000000
2    3.6148129999999998    1.6211643600000001    9.5406527899999993
2    5.7888704700000000    0.0107577000000000    8.8401978700000008
2   10.8968633500000003    9.1563911000000004    9.6441568300000000
2    3.4844188500000000    5.0834485799999998    3.7930377300000000
2    5.5925345699999998    3.3697822799999999    3.3712241600000001
2    5.3253816100000000    4.1550901700000002    0.5425526300000000
2    8.9840330700000006    7.0992439000000003    6.2406166699999996
2    3.5141731500000000    5.4887050000000004    9.1911944400000003
2    5.3005107200000001    3.7454195800000001    6.0235617599999998
2   10.9428808499999999    5.4587485600000001    9.1918897899999994
2    9.1598810299999993    0.0837115100000000    6.4382472000000002
2    1.7347139899999999    3.5966836700000000    6.2946254899999996
2    6.6201868800000003    1.9379128400000001    0.9569061200000000
2    9.0192770899999992    0.7570895100000000    0.8552598300000001
2    7.3258765400000003    8.7171040400000006    4.3839670799999997
2    7.5008020100000001    1.9078092600000001    3.9086825300000001
2    3.5114363499999999    9.5687969699999993    7.2567654399999997
2    8.9451281999999992    7.2605082200000002    9.0573037999999997
2    7.3484578400000000    1.7218183400000000    9.3133880799999993
2    7.7142563300000004    9.0940986899999992    9.6450297799999998
2    5.8448564000000003    7.2782907999999997    8.6964975100000004
2    9.0571913199999994    7.2096918800000003    3.6427283600000000
2    5.1491348400000003    7.4112087700000000    6.1715991800000003
2    7.3006592200000000    8.9426611299999994    1.4384127900000001
2    9.0891076799999997    7.3007725099999998    0.6677890300000000
2    7.6362253999999998    5.2474180500000003    9.4663071900000002
2    4.0345408599999999    8.9785132099999991    9.6397276099999996
2    9.3238728500000008   10.8999822999999996    9.0311523099999995
2    7.2296911899999996    5.1815925399999996    6.8325191099999998
2    5.4810941900000003    0.4163562700000000    5.9070828000000004
2    0.4158410100000000    5.6138053200000000    6.4924396900000003
2   10.8613636099999997    9.2070802399999998    4.0367162700000003
2    1.5810151100000001    7.3236430500000003    3.4513526899999998
2    3.9574907100000001    9.0638144399999998    4.2112619899999997
2    3.2360449099999999    5.9970761100000001    1.5488692500000001
2    5.2545450400000000    7.1741711099999996    0.8439352700000000
2    9.1459865199999992   10.8676504900000008    3.5999253800000002
2    9.1962395000000008    3.3834953600000000    9.0509243799999997
2    7.1961840099999996    5.9043847300000003    1.6130177100000000
2    8.7533348699999998    3.6848508700000000    1.3186781700000001
2    9.0494758799999993    3.5659999700000000    3.5588294199999999
2    7.1367621699999999    5.2613336000000004    4.5414043599999996
2    3.2418811700000001    9.3051311900000009    1.6329740900000000
2    9.1155543699999999    3.4867889600000002    6.2457008399999996
2    7.2934387799999998    1.7093592799999999    6.7606757899999996
2    2.1277929200000001    3.5278868900000000    8.7864617900000006
2    6.9259656700000001    9.2839186199999997    6.8249149100000004
108
 Atoms. Timestep: 50
1    1.8662552022518610    1.6547035929706311    2.3863998818307124
1    3.4927033162723125    7.2441320688109307   10.5169327001011581
1    5.0404463305061551    5.2497763978488079    2.3078879615374599
1    9.0883779511364224    5.3609952753300405    7.9446174652635566
1    0.0832079794634066    7.0580579294255150    5.4393573890111604
1   10.7190290667592496   10.9130028938330312    0.0505847350743441
1    7.2656684297716536    3.3864701198858560    5.0246837959491097
1    7.3438893755958361    7.1167400230319418    5.5038050050191485
1    1.6577432182459644    5.2641733054303490    2.7474212416769621
1   10.5044774484987968    3.4904572242003225    5.0659481011378613
1   10.8976969872159053    3.4544044157211506    0.1327266240909686
1    1.7917788110120425    5.2758997262833693    7.5413022781438706
1    9.0489610813093133    9.0519877905773072    8.2339137472925739
1    1.9259005570796670    1.7879319100099238    7.9760226602074615
1    7.1843330949877711    7.2472691114082020   10.5320243944276033
1    8.7101460234395010    8.8638537146241578    2.9456549503459111
1    5.2986298666745286    9.0005533067597518    2.5511709731657213
1    5.4662618857523038    9.1315706555482734    7.7657228857995175
1    0.0947801206843829   10.7195628004184833    5.0704425128983077
1    3.5911622819347553    3.5869638469243839    5.3055112234840092
1   10.6906355824060721    7.0267232811834095   10.2210292919220933
1    1.7626314158006986    9.0998258066851214    7.9300086575819240
1    7.3366671096507385    3.6364241429056174    0.0112736141820101
1    8.9804412042967900    5.4833988986730970    2.2564344292134391
1    3.7878467872904906    7.2640962529704165    4.7991719524781482
1    3.6957426017997750    0.0331878662908121   10.5764013476647207
1    7.2822479883684990   10.8095697361607588    5.1629548689460334
1    5.3945568314519035    1.5332653359876418    2.7486809234262970
1    5.4331265399410942    1.8828235535815074    7.8557470052279497
1    1.4698241768789664    9.1327111477508787    2.4194426027715084
1    3.5365048589976151   10.8023649919801823    5.1753312307976183
1    3.6359460149565845    3.7739759073192549   10.0485845773295424
1    7.2250165783915712   10.9188310920165481    0.1112700116267311
1    9.0591777862382319    1.8212262181486651    2.5168179345991297
1    5.3648510407270331    5.5631091677800457    7.8663661141604821
1    9.0967599844445832    1.7573163230020508    7.8754434400917193
2   10.4364598915569182    9.6401042222978752    1.8931121835277664
2    5.1671871565537506    7.2281631851938029    3.4307880168922851
2    0.2306976940971124    4.9896830321486423    4.1932665385636270
2   10.6249357655635599    1.5406739132756548    4.3988414336350470
2    1.7524541452035689   10.8218264104451247    3.6280076233415262
2    1.7095054196179160   10.8485866658660708    0.7861461225248303
2    1.8203308855297868    3.4546918142386303    0.9429391784927451
2    0.3127398957674678    1.7441577892972087    9.8240920119915742
2    1.8057177375999729   10.8178288941770688    9.0311266733753524
2    1.8139950584087234   11.0438856502439346    6.1680625687251744
2    0.0217444314515123    2.3079620281860520    7.3272832645904513
2    2.0205395337816157    3.3608628470806772    3.7146058463322507
2    1.3599611850051772    7.8278645145745918    0.6930050739454539
2    1.6708238017553900    7.0364558554704937    8.8855020273344216
2   10.7435091220283603    1.6851950443744175    1.6738639899207663
2    3.8907746587522136    5.3129677002913542    6.7317858933914643
2    3.6515774141971233    1.7418468525428290    6.7517614327480127
2    5.1673566775123652    3.7224056600222672    8.5691854731281794
2   11.0917364123533879    5.2998267611560514    1.5479359121492196
2    1.9601102732532287    6.9828249732426118    6.2646404492949541
2   10.8348077140998171    9.0686329087957631    7.0440222121300735
2    3.7295146632584601    1.5432008924402081    4.0229045897903335
2    5.6053461077116076   10.6976941548753999    3.7864429975917475
2    5.5366950826384338    0.0939943744984988    1.1862733867614155
2    3.6257570647257995    1.8750484398895362    1.3412880577552757
2    3.6130793017388867    1.8693763167503696    9.2806801914436665
2    5.4613110875597375    0.1582430822736374    9.3770315275065901
2   10.3743164336520231    9.0553557440343742    9.7585764726988291
2    3.4815302502989525    5.3727463921861931    4.3157865364539783
2    5.3475531585399594    3.5294251098076121    3.5028358808966615
2    5.1988926788268461    3.9659362814753027    0.7541858734320690
2    9.2138200994721338    6.8607192817724147    6.3414560419848289
2    3.7926834047603317    5.6863558590604253    9.3228374059929884
2    5.3191836933376848    3.1870641205074803    5.9452485374372896
2   10.8227880810723640    5.2160798599777909    9.5558365734791408
2    9.3775809926478484    0.1626116660381059    6.0262474517898648
2    1.7593267116367888    3.6544054486263016    6.2592660417516131
2    7.2270480366839216    2.0260387302688829    1.6574350742380961
2    8.9914655459193948    0.5029426109627229    1.0542711982258011
2    7.1557123239364273    8.7725219140755577    4.3591117042022232
2    7.0469320157971653    1.8093430342355179    3.9046852175227804
2    3.4359638908131283    8.8681853835320705    7.0569989692378803
2    8.9738952019453073    7.2001914358350829    9.0153105481791282
2    7.0909268701004251    2.3791361645647964    9.0591603690973859
2    7.0479842769622145    9.2851360212336456    9.4262681905983872
2    5.8237029565629683    7.4385028825972128    8.8038371847281667
2    8.8604395391121304    7.0234888852605089    3.5443862617388202
2    5.4696587300055333    7.4186539568422152    6.2466797285886608
2    7.2666326744956669    9.3545026681766643    1.5411593416391072
2    8.8244786470782817    7.1842467112738948    0.9542922444817312
2    7.2091429377352130    5.2244330635123735    9.5275579415204970
2    3.7467341619687158    9.0499918443248770    9.7431907764143784
2    9.0573446053769544    0.0473137603780369    9.0684095469407282
2    7.0705252085312331    5.7148654914608485    6.9268906703206055
2    5.3624732192517737   10.5395885030248717    6.4480013887161869
2   10.6402072874149347    4.8838760480951846    6.8711526410548194
2   10.6293554301944173    8.7364217360346661    4.5694741229101830
2    2.0563841921896859    7.3365402782506788    3.5684068920545706
2    3.5536606764849030    9.1288127591466051    4.2351805849813200
2    3.1252901388946825    5.5813922083849405    1.2897024383909756
2    5.4968226112347045    7.5949004677666254    0.7946991750920028
2    8.7016914426520309   10.7740934384325175    3.3067326325913680
2    9.4217620134101665    3.4303812456891878    8.9042662312819161
2    7.2500793323237778    5.2383468833978153    1.2963501231668855
2    9.1585981791081643    3.4450255652572350    1.2686765354692759
2    8.7342349917057511    3.9818904617383875    3.8355885415801083
2    6.9869886654687301    5.7116465100537592    4.2304243533844028
2    3.3627421528151458    9.3604261766409209    1.8865087887187009
2    8.5671464922009104    3.5974649602979336    6.4391554334758450
2    7.4547878572324402    1.5328650896083453    6.6363900304037582
2    1.8329899952345987    3.9431447188524333    9.0618498996998280
2    7.5893328875891948    9.3569564972801054    6.8051473256532757
108
 Atoms. Timestep: 100
1    1.8963563181718326    1.7949509348401371    2.5264792198510744
1    3.5793602824644921    7.3956460209790231   10.5342972242853552
1    5.1929351112932842    5.1665360980552055    2.4747704737084693
1    9.1265322005968557    5.3402205614424716    8.0716376441207984
1   10.6826180126129948    7.2146935146517572    5.3886132015718973
1   10.7814854561573519   10.9231469467999425    0.1360398579278697
1    7.0945992104836604    3.4739353764670091    5.0278079534118207
1    7.4430830854042593    6.9739190233082340    5.3767080645389633
1    1.7812488945977314    5.2592172750385213    2.7945283595357600
1   10.5718933940198490    3.6864125444732188    5.1880312696630471
1    0.1290448549489330    3.3631300547526215   10.5164282057858944
1    1.6938947359250061    5.5269271928429564    7.4706450720916724
1    9.1977333112681290    9.2840354990896419    8.3083534910068746
1    1.8870420021636889    1.7998079719026734    7.9260689564309752
1    6.8909480460630927    7.1843654217609814   10.4636664416911280
1    8.9820938602553326    8.7807666757592262    2.7468470321172793
1    5.5116442873929179    9.1441177082816392    2.5919414708752218
1    5.4462807940383797    8.9592185150719263    7.6343443007075233
1    0.0164107785939750   10.7625981830704127    4.9971589155865894
1    3.6165109899157066    3.5447941705372918    5.2456566389172181
1   10.7160220320739175    6.9921970763270069   10.4195339182418252
1    1.8775467283841312    9.0203465567695655    7.9487248129992736
1    7.2951976778977965    3.4217406140258277   10.5457572227845997
1    9.0238154364745693    5.5009508668542662    2.0793563622977413
1    3.5753166560206164    7.4074170639264079    5.1100123564658855
1    3.5623324278450972   10.8889957111067837   10.4563378002164793
1    7.4507155970563055   10.5971215743396652    5.2681846753706001
1    5.0444768169314971    1.5406320861537113    2.7307596317110101
1    5.5663176763927078    1.8686051367782617    8.0220692973283469
1    1.6252665493651339    9.1141253158434470    2.1641734192168416
1    3.7872201863570809   10.8514737354874793    5.3015041078704952
1    3.4463287311667630    3.8644269055383500   10.1937973136662805
1    7.1070974517353829   10.8869139999829656    0.1503845209352206
1    8.9525631942946617    1.6713043111093551    2.6357012042099099
1    5.3945400254804445    5.7076696716289215    7.8181284122252590
1    9.0676538540964895    1.8599417147585924    7.8733386069344373
2   10.5840364876926465    9.4185179272569819    1.5299786930422152
2    5.1364337730267327    7.2265322994799890    3.6701756189391888
2    0.3118777399096477    5.0851324221902301    4.1864341604499131
2   10.6791614498023115    1.5500050430344237    3.9961361128947801
2    1.3572834843028849   11.0296209372798657    3.3556591930461703
2    1.9665482793444544   10.8048663681013455    0.8737781730767592
2    1.8236611287272289    3.5061706321915964    0.9885748116784142
2    0.0735056749894189    1.6683445893270530    9.5183547545937586
2    1.9219223423771905   10.9134537555893392    8.9155160079198623
2    1.5409788897926802   -0.0040676662257234    6.3216171746025474
2   10.7182332794974595    1.9192019592954823    6.6431706323376165
2    1.6194594519424310    3.3321753222976538    3.8826775443164996
2    1.5938090812643162    7.6464134777357549    0.5568483467793527
2    1.1420425303104083    7.0968081301806523    8.6166348302460811
2   -0.2632845596075498    1.8917620486159479    1.4698238323198980
2    3.6355247175896914    5.5412463129913769    6.5968466877040788
2    3.9259071918410906    1.7103668738437570    6.8356619724765704
2    4.7926849692289064    3.7390136162251699    8.6494018952599081
2   11.0804076062869790    5.6111648157813701    1.1932430948552812
2    1.9054614569553645    7.1981430997945148    6.1486327555503166
2   -0.1847420093842395    8.9419334238009434    7.0221977883155215
2    3.3843404608878811    1.7318218702021273    4.3432924219963276
2    5.4527608754353309   10.8155046981393941    3.7553640316413697
2    5.4581173447120666   -0.1814198479632172    1.1494225923151848
2    3.5902384632578479    1.5737231357548800    1.5931752886314787
2    3.3330869064743709    1.8129307959891261    9.8099278695204379
2    5.2504785895361685   10.6298142507326752    8.7590544070531866
2   10.7382585904272005    9.1902360559968983    9.5745109918721401
2    3.5712796451843611    5.1926103277925630    3.9692837327859629
2    5.2483454226818997    3.2839850165157873    3.5980948149482979
2    5.2814686517353531    3.7935594229644281    0.4286540650212367
2    9.1012151703470252    7.1518933544986893    6.5335262407198131
2    3.6742434422579273    5.7483010557929077    9.1906171068178786
2    5.6434400265224394    3.4993670601930971    6.5783381964948315
2   10.6255491908326611    4.9707539675480055    9.5250544840452331
2    9.0261138659022464   -0.2171836754862689    6.3732748350712454
2    1.6566912669981846    3.1100821881677945    6.1261400499427348
2    7.1458365492552218    1.7321590051395197    1.6523993219963444
2    8.9681156113942926    0.3454350662180267    0.9862922488333916
2    7.1085894625314356    8.7480297938610718    4.2462644896221375
2    7.2984348924623816    1.7439048043222449    4.1930298729637556
2    3.4948801796115054    9.1507153419036147    6.5414179187239130
2    9.3132458493310732    7.0433907577104122    8.7918371044361656
2    6.9659215916398640    1.5041580599073157    9.9228547046538669
2    7.7598946564905065    9.1635598017135411    9.9026878879817719
2    5.5040687646867070    7.7509851392246505    9.1174471986442551
2    9.0224047048821472    6.8239970797861886    3.8355180105690549
2    5.5168188595895158    7.0916811480222322    6.1740380774541768
2    7.2621585218691562    9.0751813635682304    1.6550411846875936
2    9.1821944460810911    7.5298524752117775    1.1106729959932979
2    7.0181811995812691    5.4264624563195101    9.6365633807742270
2    3.6029773283072504    8.9183234157487767    9.2046421376232566
2    9.1667456287215465    0.1111368202186610    8.7254454376501034
2    7.0952968599931800    5.6057783496454796    7.0221671120661204
2    5.4256895251078419   10.5074197845472153    6.3344006909908304
2   10.7869281517097821    5.3203089783768283    6.7823427325418937
2   10.6915007300320610    8.7546730149066878    4.2187225306653913
2    1.7222221705447391    7.2712363869262058    3.1102160308649807
2    3.4907186514602411    9.3329233780330565    3.9617587381071662
2    3.4841262644119775    5.5173432075652018    1.2364622771143536
2    5.3740072550682543    7.0245744703196626    0.7542444838982757
2    8.9218299636766112   10.5945155724227700    3.7160680912386828
2    8.5024549982949083    3.4757482841629472    8.6814626842308549
2    7.1597643105558006    5.4972125888875913    1.9132935584918878
2    9.1271480678490065    3.6493227136833672    0.6495791658867774
2    9.3001058471919702    3.8430752977282276    3.4366476105389832
2    6.7576743892305222    5.4674602640690626    4.4984137589026139
2    3.7660818768563233    8.9695328387910180    0.9566646958179712
2    8.6171279823240496    3.5364567073626376    6.3326904689297319
2    7.3266333473424510    1.4397218517500856    7.2540395183900266
2    1.7562375283720806    3.7123082400766854    8.6201349984082647
2    7.4533984793092607    8.5927035280351092    7.2289133713145262
108
 Atoms. Timestep: 150
1    1.6644818600223428    1.7660303860663702    2.6363897502006419
1    3.6111157503564479    7.3984270056679939   10.6224885711053734
1    5.3244472056162078    5.3051936614773565    2.5984673626549348
1    8.9702213452953679    5.2970735984936432    8.0073461011728959
1   10.5548068030272013    7.4606219503502142    5.2368923013551516
1   10.7299603406929034   10.9608595275756695    0.1043085761150655
1    7.0101966099079549    3.5668563896246726    5.0862121479769780
1    7.3264683224170080    6.8727730622208689    5.2138738880757405
1    1.8559091436029942    5.4508141080357930    2.7048397656911334
1   10.8071381629549954    3.6231153891683876    5.2578121585598190
1    0.2795518068729982    3.4073097315125618   10.3984782330729502
1    1.7922818705249153    5.6072611420194649    7.5784592703652862
1    9.3048868991007616    9.2539478085239093    8.2145788089025693
1    1.7725688636068453    1.7394406085155294    7.7135993653368642
1    6.9798819803263301    7.1889623627708836   10.5147271534062643
1    9.3541456559567191    8.7504796721401803    2.5560270962937310
1    5.4075063993834167    9.0989406179011958    2.7257974080728613
1    5.3693617124961248    9.0258567318619800    7.5416861175228496
1   -0.0916148977859294   10.8522860864604418    5.1020510439591318
1    3.5748260819097935    3.4757417258893191    5.2154176840978499
1   10.9443908177782596    7.1671334110636096   10.5394450069893892
1    1.7020492021851057    9.0173912831082177    7.8238036210497093
1    7.0606468692926523    3.4496052683441731   10.5998780639576129
1    9.1604366859279391    5.3136396755677522    2.2087675187163196
1    3.4305608978729296    7.3713619604191694    5.1996293961108195
1    3.4812437811057526   10.7772928678250270   10.2290696452594307
1    7.6161623171960464   10.5897074405955927    5.3711232464005310
1    5.1157122757196394    1.5515593368270872    2.5917630892856529
1    5.4637644414691620    1.7785161323333076    8.0659357046453248
1    1.9369928840059703    9.0173776821798786    2.1189176360228359
1    3.8098001653268940   10.8805126898063858    5.4326628253754441
1    3.4405860540825506    3.9930704037078093   10.4341958301665194
1    7.0978249796506079   10.7530071715126248    0.1586445733333218
1    8.8713305409442498    1.4817342223310568    2.8242929441517073
1    5.3185728142171174    5.5272857896372090    7.8179531501227348
1    9.0686402155202472    1.8646277621216567    7.6896403674233405
2   10.7983326970037012    8.9196477645132148    1.2140680152183343
2    4.6539412024020157    7.3496087544148612    3.6527078729991422
2    0.0329637683457547    5.8720023585608914    4.1902537340799011
2   10.5101208332913636    1.9993646886336260    3.9955697574170137
2    1.0541651018197249   11.0834423774385282    3.2551127911874032
2    1.7411647432916213   10.5410672588935945    0.5439980088284676
2    1.8848777522903202    3.1914955615916512    0.8169596837267576
2    0.0519303154820484    2.0147314071646600    8.9308465167718012
2    2.1789504207252617   10.8566684857742750    8.2856674860451633
2    1.5754617647754678   -0.0074963428035439    5.7897125844475434
2   10.8811749552600787    1.7377237964913022    6.4262005968860185
2    1.6533042959605824    3.8211057083959741    3.6718852823174237
2    1.6367436600263234    7.7298246025851194    0.7150942424137527
2    1.2609468154504806    7.2745523431462908    8.7802704591188565
2   -0.0264433423823569    1.6152408247474830    1.3251804726927399
2    3.6006674416026079    5.3692808909006802    6.5891162776982668
2    3.6865783876339187    1.3526741929681254    6.8418987779813349
2    5.3684924094421760    3.8041140194234213    8.9425835842206780
2   11.0219141238622917    5.4124200303007903    1.4009805894230689
2    1.6519475109013306    7.0982161353181494    5.8841181897787109
2    0.0164032789059989    9.0120605243371035    6.8646399247629377
2    3.3708294458100587    1.5738708271601507    4.1637915829149943
2    5.7906201671727207   10.7797786278435961    3.6422159479865379
2    5.3390425524375775   -0.1932201565017805    0.9510087794277750
2    3.3940655508058875    1.2811061417597123    1.5812075820019080
2    3.5374615045018931    1.9633565064745493    9.2174291392022667
2    5.1557036678258088   10.8514886059777638    8.9923185652334574
2   10.9719129288768116    9.4703874478273935    9.4425827206092965
2    3.5129656541068734    5.2657478747723010    4.0182916597216796
2    5.2082025349314058    3.2802597963180813    3.5929704426785949
2    5.1617339657977768    3.5701822877002480    1.1979977855087232
2    9.0439585676629370    7.0667692220537894    6.5660699257104316
2    3.0811245247289820    5.7333808690819996    9.4099313160284073
2    5.3149731122859531    3.3920115934362420    6.4224068679160720
2   10.5329197306221118    5.1646876237293604    9.5274925933022612
2    9.3809338886823888   -0.4181683505093756    6.2487678812045866
2    1.9715855962423272    3.5563208457588442    6.5258183254048854
2    7.0975249184128186    1.9842102150350982    1.5974977986751884
2    8.8827069350320098    0.1371662622922793    1.1978042736004746
2    7.2519052971695945    8.7592031456913624    4.7336158772469625
2    8.0798831181056379    1.7399348250669007    4.7943673572434742
2    3.3000576188573545    9.0090152233486727    6.5997447110538801
2    8.9064692105824275    7.4298491522669607    8.9994085794682235
2    6.7906212093782417    1.5408216302671629    9.9342668187509346
2    7.4196302392051665    9.0808729640589831    9.8877434516960729
2    5.3583704155436243    7.2959175283268571    8.9824719181476791
2    8.9046880467079923    7.1371976576692218    3.8157746906338974
2    5.2951231694577201    7.2626223689338500    6.4289087395641005
2    7.2690556375430670    8.8425985708419947    1.7758722089230234
2    9.0897740106966811    7.0013626301946150    0.9064732297229584
2    7.2138417834397277    5.4654427557371461    9.5120400339981206
2    3.6209696541551328    8.8883524393601476    9.2910649966705314
2    9.0443591912042098    0.1785596294809240    9.3320512672167339
2    6.9174134119920474    5.6483709462184439    6.9338190955291861
2    5.4517834665405882   10.4176824500376615    6.2824309652776593
2   11.0276530282180847    5.2941688225407848    6.8241588392874206
2   10.7179547880851498    8.9832915358486503    4.0890935488257254
2    2.2534539067044501    7.3920365735804738    3.2545421181361651
2    3.5582465708722135    9.5607690393483740    3.9515872622101669
2    3.4625307562965220    5.4349188982795695    1.3220631203828925
2    5.3075588034807932    7.3586448579481383    0.8483454171696837
2    8.9603264205260622   10.5982470480600792    3.5233658766872695
2    8.5027717931667564    3.2569253867051127    8.7515596973673215
2    7.1226201303253038    5.5966647903542412    1.5200535029081077
2    8.9888819030330058    3.7282589955136931    0.7896952023708915
2    8.6557895874688349    3.7372871733135273    3.8155724587034281
2    6.6018550092056945    5.3968968495040865    4.3701394260225195
2    3.7620145325513126    8.9990618361577042    1.1610268202524412
2    9.0192407485070092    3.7280693408237688    6.4114913225936450
2    7.2164197170194635    1.4088983855933830    6.8712854990198595
2    1.8379342339013272    3.7963921329647849    9.2073986829294654
2    7.4487636192228175    9.2513528867461776    7.3787096149779501
108
 Atoms. Timestep: 200
1    1.4335435349446610    1.7695725838505061    2.6234076876642991
1    3.7913876375013436    7.2894018128904658   10.5683210249535442
1    5.3518554573656889    5.4888696644456001    2.6547236291386467
1    8.8496628761107896    5.3192875809645201    7.9511319881752520
1   10.6559671470922748    7.3319063922801879    5.2026420173614722
1   10.5414757796351779    0.0084745123566377   10.5771979461418386
1    7.1469818987495897    3.4965945652334982    5.1675208157385528