ITEM: TIMESTEP
0
ITEM: NUMBER OF ATOMS
12
ITEM: BOX BOUNDS xy xz yz pp pp pp
-8.8344296827430302e-01 5.1364755065543157e+00 0.0000000000000000e+00
0.0000000000000000e+00 5.1934133375444702e+00 -8.8344296827430302e-01
0.0000000000000000e+00 5.2461598045212767e+00 0.0000000000000000e+00
ITEM: ATOMS id type xs ys zs
1 1      0.27613554845712    0.4580647515194298    0.7079069544925712
2 1    0.7238639169901825     0.958064851882665    0.7920922626906507
3 1    0.7238641669461136    0.5419354453560091    0.2920925547634612
4 1    0.2761356994510259   0.04193534691828968     0.207907248471538
5 2     0.447997467554713    0.7425260978405572    0.9785775541140742
6 2    0.5520020146128084    0.2425259994028378    0.5214217602831137
7 2    0.5520021485586477    0.2574740990348816   0.02142195514195839
8 2    0.4479976018284001     0.757474199398117    0.4785777508790751
9 2   0.06836067340024651    0.3307589379766542    0.3462526224295524
10 2    0.9316391933247404    0.8307590364143737     0.153747182711603
11 2    0.9316389430409616    0.6692412608243006    0.6537468887326363
12 2   0.06836042311646771    0.1692411623865812    0.8462523284505857
