ITEM: TIMESTEP
0
ITEM: NUMBER OF ATOMS
12
ITEM: BOX BOUNDS xy xz yz pp pp pp
-8.8344296827430302e-01 5.1364755065543157e+00 0.0000000000000000e+00
0.0000000000000000e+00 5.1934133375444702e+00 -8.8344296827430302e-01
0.0000000000000000e+00 5.2461598045212767e+00 0.0000000000000000e+00
ITEM: ATOMS id element x y z fx fy fz
   1 Hf    0.79296806000000031    2.37891959000000064    3.71379300999999984   -0.00316117092049728   -0.05048968876322890    0.01147394023988912
   2 Hf    3.01834094000000119    4.97562677999999980    4.15544258999999983    0.00315855768150364   -0.05049412969449041   -0.01143432257000848
   3 Hf    3.46006344999999982    2.81449477000000003    1.53236421999999983    0.00315344061745260    0.05049055796959226   -0.01147334004344859
   4 Hf    1.23469005999999992    0.21778759000000000    1.09071465000000023   -0.00315725461741190    0.05049331000345703    0.01143374974959910
   5  O    1.43661056000000009    3.85624494000000029    5.13377423000000022   -0.05755898715128249    0.06195063195179085    0.19018501205179009
   6  O    2.37469844000000174    1.25953776000000017    2.73546187999999990    0.05757023631858613    0.06195130469015113   -0.19017682994332102
   7  O    2.81642043999999991    1.33716941999999994    0.11238299999999998    0.05755962582691685   -0.06195050160703271   -0.19018486012508248
   8  O    1.87833256000000004    3.93387661000000044    2.51069536000000149   -0.05756955794739693   -0.06195195820378114    0.19017662882015646
   9  O    0.04523848000000007    1.71776788000000002    1.81649659000000008   -0.32809291482841418   -0.04836828580482244   -0.01913732814676983
  10  O    4.64951502999999988    4.31447506000000036    0.80658229000000026    0.32807666657107537   -0.04838007789065592    0.01910704453722516
  11  O    4.20779251999999993    3.47564649000000037    3.42966065000000020    0.32809598454161082    0.04836669677301967    0.01913820168389704
  12  O   -0.39648402999999999    0.87893931000000036    4.43957494999999991   -0.32807462609213767    0.04838214057600343   -0.01910789625392495
