(written by ASE)

96 atoms
2 atom types

0.0      12.880619210125166  xlo xhi
0.0      11.154943116692575  ylo yhi
0.0      15.046356078130312  zlo zhi
    -6.4403077717034334  5.3943729299492155e-06  -1.658011824236578e-06  xy xz yz

Masses

     1      178.48999995408445 # Hf
     2      15.998999995884349 # O

Atoms # atomic

     1   1      6.3932655007722801        11.1137915031614    0.053465513347434497
     2   1   -0.047057508306878403        1.81800808595147      2.5611856042390202
     3   1      6.3932681355587402      11.113791365892199      5.0689120006124702
     4   1   -0.047011007588874699        1.81800638721904      7.5766373743600104
     5   1      6.3933153875078998      11.113791144051699      10.084368388538399
     6   1   -0.047010064279991097      1.8180062825941701      12.592093605502001
     7   1      11.223496236520299      2.7475870622208203      0.0534607068808058
     8   1       -1.65713682000672      4.6067427285888503      2.5611854945191301
     9   1        11.2234998706325      2.7475854778220103      5.0689134625959102
    10   1     -1.6570935663787301      4.6067416948274102      7.5766385995323002
    11   1        11.2235490777745      2.7475852471438102      10.084365623278099
    12   1     -1.6570915600189999      4.6067414234715196        12.5920893840185
    13   1      9.6134195557022704      5.5363222869574207    0.053460746592246998
    14   1        -3.2672077950978      7.3954788666742397      2.5611854914849701
    15   1      9.6134203513477896       5.536321093790991      5.0689095160270696
    16   1       -3.26716588801848        7.39547710655813      7.5766368644159199
    17   1      9.6134653730088502      5.5363187687710411        10.0843641575762
    18   1     -3.2671637916644198      7.3954766910279597        12.5920911390448
    19   1      8.0033435666795807      8.3250548788663501    0.053461869080739299
    20   1     -4.8772896735285904      10.184212739690301      2.5611855814907201
    21   1      8.0033454542641795      8.3250563576447192      5.0689122706042298
    22   1     -4.8772452736865599      10.184213908652699      7.5766375384026796
    23   1      8.0033914682715093      8.3250570283237497      10.084365628543599
    24   1     -4.8772435875823197      10.184212470920601        12.5920934121049
    25   1     -3.2671970501479102      11.113792864707699    0.053463559075023398
    26   1      3.1730994927206999      1.8180061570374402      2.5611855624542299
    27   1     -3.2671959177351302      11.113792745565799        5.06891400547239
    28   1      3.1731428196816802      1.8180050222127102      7.5766383242855904
    29   1       -3.26714940036937      11.113792839779901        10.0843683920394
    30   1      3.1731453127169398      1.8180049334502701        12.5920925927489
    31   1      1.5630330165550399      2.7475865352087001    0.053464582313845897
    32   1      1.5630189562121499      4.6067445521819499        2.56118829418552
    33   1        1.56303489610032      2.7475851075357198      5.0689129599309801
    34   1      1.5630602745917299      4.6067404628314899      7.5766405965796304
    35   1        1.56308096774717        2.74758389615711        10.0843683901887
    36   1      1.5630619924647799      4.6067412887021701      12.592093807540699
    37   1     -0.0470455861867747      5.5363217324546401    0.053464687111284298
    38   1   -0.047058774385000501      7.3954783112205202      2.5611894475908601
    39   1   -0.047043713629708897      5.5363216403003896      5.0689155845698703
    40   1   -0.047008987478289598      7.3954782560247896      7.5766413826911201
    41   1   -0.046997517300110897      5.5363197919050799        10.0843687130421
    42   1   -0.047008101163999297      7.3954772194479901      12.592097225253999
    43   1     -1.6571201974452701      8.3250561639226497    0.053465109279779301
    44   1       -1.65713276487648        10.1842132951721        2.56118828822204
    45   1       -1.65711793192582      8.3250553561463594        5.06891512964122
    46   1       -1.65709009991755        10.1842163291094      7.5766411336533501
    47   1     -1.6570696558907301        8.32505591430089      10.084368703871901
    48   1     -1.6570871822228599        10.1842151032711        12.5920932466199
    49   1   -0.047044159741951398        11.1137934559634      0.0534636300939383
    50   1      6.3932524092074896      1.8180055534710104      2.5611854942239898
    51   1   -0.047041857501957399        11.1137926720114      5.0689166177317899
    52   1      6.3932972754732296      1.8180058898389804      7.5766379643480901
    53   1   -0.046992384342010002        11.1137919298697        10.0843686928803
    54   1      6.3932990616492704      1.8180049716233504      12.592090042183401
    55   1        4.78319053516379      2.7475860526152203    0.053462832472843599
    56   1      4.7831725982439197      4.6067416978441198        2.56118549656868
    57   1      4.7831906355940399      2.7475844740887805      5.0689112787202903
    58   1      4.7832172304801404      4.6067418817711401        7.57663636418701
    59   1      4.7832373849982597      2.7475821050175404      10.084365632101701
    60   1      4.7832186560626804      4.6067415657755904      12.592091640253701
    61   1        3.17310911384698      5.5363204091799103      0.0534645592552348
    62   1      3.1730974528564202      7.3954769793568502      2.5611894277555001
    63   1        3.17311103303562      5.5363203111296801      5.0689156959764698
    64   1      3.1731436886993398      7.3954782034135702      7.5766426460758298
    65   1      3.1731565242880402      5.5363213181385698      10.084368712081201
    66   1      3.1731462020681098      7.3954772122042201        12.5920959605153
    67   1      1.5630353889017099      8.3250571195510492      0.0534692015447936
    68   1        1.56302029530624        10.1842147822016      2.5611894385743801
    69   1      1.5630372818682401      8.3250565572701092      5.0689165782572498
    70   1        1.56306709524371      10.184211961827501      7.5766418727944904
    71   1      1.5630871768643899      8.3250559581049401      10.084373247404701
    72   1        1.56306879630429        10.1842123568305      12.592096734974801
    73   1      3.1731108064042499        11.1137921238467    0.053465645360392097
    74   1      9.6134077336076107      1.8180075117891203      2.5611854956287701
    75   1        3.17311228113044        11.1137913603242      5.0689146348873999
    76   1      9.6134517515556404      1.8180072844299504      7.5766370042159101
    77   1        3.17316265233891        11.1137902360139      10.084368729970899
    78   1      9.6134533951360801      1.8180063602229004      12.592090971473199
    79   1      8.0033440654043808      2.7475845184826304    0.053460719714510399
    80   1      8.0033263946293296      4.6067422997120708      2.5611809709851099
    81   1      8.0033459657877497      2.7475852036932102      5.0689095435123503
    82   1      8.0033729543863199       4.606741683043281      7.5766329533673202
    83   1      8.0033958372907907      2.7475858185027406        10.0843641549331
    84   1      8.0033746677199602      4.6067411386145105        12.5920895156732
    85   1      6.3932632044463196      5.5363209821736303      0.0534606623665431
    86   1      6.3932568947016604      7.3954776206780304        2.56118549745015
    87   1      6.3932661585213904      5.5363198095042501      5.0689096009885697
    88   1      6.3932992047123998      7.3954770851902598      7.5766380992817401
    89   1      6.3933128676726803         5.5363202685527      10.084364147229399
    90   1      6.3933005746162399      7.3954766652066901        12.5920898782493
    91   1      4.7831895376682798      8.3250578479744703    0.053464102509201999
    92   1      4.7831729399273604        10.1842122166202      2.5611882984893999
    93   1      4.7831910192708103      8.3250570259336101      5.0689161884632501
    94   1      4.7832215218321403      10.184211535884801        7.57664057904499
    95   1      4.7832387409924104      8.3250561232780402      10.084368721991099
    96   1      4.7832220649577604        10.1842103043032        12.5920938458025
