ITEM: TIMESTEP
0
ITEM: NUMBER OF ATOMS
96
ITEM: BOX BOUNDS xy xz yz pp pp pp
-6.4383160712214327e+00 1.2878942423573331e+01 -6.4383160712214327e+00
-3.5212858751354610e-09 1.1153287911217136e+01 5.8675002226468321e-05
0.0000000000000000e+00 1.5049224163373557e+01 -3.5212858751354610e-09
ITEM: ATOMS id type x y z
1 1       6.391158300759     11.1113779702954   0.0500415075241445
2 1   -0.049198549521138     1.82015773072492     2.56223783730508
3 1     6.39080258325912     11.1111609576998     5.06902806715664
4 1   -0.045363985530105     1.81795512666175     7.57545441076794
5 1     6.39501343798246     11.1135804673719      10.086049295792
6 1  -0.0495349272864919     1.82037455254832     12.5924756468052
7 1     11.2190664678385     2.75007864593069   0.0503481589936439
8 1    -1.65641745967013     4.60622011984192     2.56231150983963
9 1     11.2188236721352     2.75023021137207     5.07348286645038
10 1    -1.65659029925117     4.60794082123292     7.57887803346245
11 1     11.2244165396939     2.74701223796488     10.0830307954789
12 1    -1.65666378478311     4.60815147162571     12.5894930187823
13 1     9.61492480478003     5.53739421632093   0.0524413599656542
14 1    -3.26637315018444     7.39519462489835     2.56231176828815
15 1     9.61244066954924     5.53594825584651     5.07089607423285
16 1    -3.26495913073421     7.39416605032569     7.57887830940864
17 1     9.61097898824945     5.53509309615423     10.0846212918672
18 1    -3.26480449518123     7.39398099005532     12.5894933540191
19 1     8.00349803180538     8.32050434312336    0.050348582023945
20 1    -4.87517646337825     10.1803429604993     2.56223832917858
21 1     8.00351790251645     8.32020032888098     5.07348325082569
22 1     -4.8751552416016     10.1847473420991     7.57545460264766
23 1     8.00353825743752      8.3266363822027     10.0830310601617
24 1    -4.87513726363517     10.1799088152006     12.5924759947757
25 1    -3.26248386069448     11.1113785113427   0.0500420364522452
26 1     3.17604278977137     1.82015823240916     2.56223837316288
27 1    -3.26208782499215     11.1111611647918     5.06902835952878
28 1     3.17224782745071     1.81795488764715     7.57545476608966
29 1    -3.26625842331759     11.1135802027341     10.0860496541388
30 1     3.17645810270671     1.82037486209171     12.5924760382175
31 1     1.56349387403304     2.75119331490935   0.0500415334903439
32 1     1.56370413859853     4.61103169920051     2.56193131785945
33 1     1.56351394535083     2.75162682260545     5.06902810134445
34 1     1.56372343299741     4.60489897548234     7.57847283814348
35 1     1.56353286753614     2.74678813574451     10.0860493610247
36 1     1.56374340321404      4.6113354279717     12.5880207996219
37 1  -0.0453087246292142     5.53634144001061   0.0499680633004439
38 1  -0.0477227436321161      7.3941416792911     2.55983840281912
39 1  -0.0468180797683102     5.53755443255317     5.07201052795162
40 1  -0.0437168022922644     7.39644196586413     7.57688275208837
41 1  -0.0466623671358507     5.53736917118212     10.0826257423714
42 1  -0.0451794391599068     7.39558722556654     12.5906078361432
43 1     -1.6552642009318     8.32531575903868   0.0499683383764454
44 1    -1.65186503797608     10.1814574201083     2.56193165666483
45 1    -1.65495844945517     8.32338390599297      5.0720108541251
46 1    -1.65715477228472     10.1845228254394     7.57847315573667
47 1     -1.6550312877605     8.32359437417433     10.0826260679348
48 1    -1.65156293670088     10.1813053012775     12.5880212951196
49 1  -0.0458998541394187     11.1122923593745    0.049968224323744
50 1     6.39262651345338       1.819243350944     2.56231188761261
51 1  -0.0440637355475225     11.1130102065798     5.07201096492321
52 1     6.39423385790725     1.81855052327934     7.57887830979389
53 1  -0.0211449643960518     11.1129848405856     10.0826260934339
54 1      6.3944813999537     1.81852561675187     12.5894934290379
55 1     4.78680471193727     2.75007873910288    0.050348726452744
56 1      4.7838241803313     4.60622017307715     2.56231171878274
57 1     4.78708763428132      2.7502305552674     5.07348330439549
58 1     4.78403821526837      4.6079408340757      7.5788784204769
59 1     4.78153290916436     2.74701224832124     10.0830312036025
60 1      4.7841494537211     4.60815156291947     12.5894933830541
61 1     3.17285846925867     5.53634101656717   0.0499682052196453
62 1     3.17569299986426     7.39414140546612     2.55983842706619
63 1     3.17440850998421     5.53755432684799     5.07201078229581
64 1     3.17172811902384     7.39644213124126     7.57688256340253
65 1     3.17429195780758     5.53736936688941      10.082625694878
66 1     3.17322821683693     7.39558699227966      12.590607843859
67 1     1.56405673138201     8.32464980054671    0.051598979551044
68 1     1.56426652058675     10.1856632222887     2.55983843323593
69 1     1.56407663099933     8.32464955661432     5.06598996713867
70 1     1.56428636304984     10.1810611989945     7.57688282114114
71 1     1.56409629855585     8.32464949991255     10.0842677384964
72 1     1.56430538954453     10.1827717883335     12.5906078363932
73 1     3.17457467526114     11.1122925915024    0.049968080510344
74 1     9.61310152560852     1.81924365167775      2.5623115973879
75 1     3.17277946995781     11.1130101775492     5.07201062385517
76 1     9.61153406614448     1.81855050132162     7.57887795232208
77 1     3.19615530678404     11.1129850214428     10.0826257682037
78 1     9.61132483440659      1.8185255421457     12.5894931562773
79 1     8.00293488916216     2.74587271781949   0.0524415868687063
80 1     8.00314510909674     4.60688637160169     2.56068069564667
81 1      8.0029554393631     2.74876402600153      5.0708959670655
82 1      8.0031657439327     4.60688584765904      7.5772363310097
83 1     8.00297528100458     2.75047407931121     10.0846213078949
84 1     8.00318450621025     4.60688601831121     12.5955140737865
85 1     6.39150880916305     5.53739462092303   0.0524413977924215
86 1     6.39434318243592      7.3951951667115      2.5623116791107
87 1     6.39403278658673     5.53594867187383     5.07089621065845
88 1     6.39296964437859     7.39416622289446     7.57887822837116
89 1     6.39553360249233     5.53509339978903      10.084621454475
90 1     6.39285255265485     7.39398152590518     12.5894933428021
91 1      4.7833776507527     8.32531589977473   0.0499680578334442
92 1     4.78039656076203     10.1814573097884     2.56193113722513
93 1     4.78311146149619      8.3233845153607     5.07201072582599
94 1     4.78572828400372     10.1845234056756     7.57847299677489
95 1     4.78322333269335     8.32359463270164     10.0826256992207
96 1     4.78017272033177     10.1813053459103     12.5880207753115
ITEM: TIMESTEP
1
ITEM: NUMBER OF ATOMS
96
ITEM: BOX BOUNDS xy xz yz pp pp pp
-6.4410575986094729e+00 1.2880120677000464e+01 -6.4398645282972975e+00
-1.0951476592860868e-03 1.1154383124728982e+01 4.3858117182624382e-05
1.0014014643616948e-03 1.5048222761909196e+01 6.5852559012635616e-08
ITEM: ATOMS id type x y z
1 1     6.39080297284099     11.1124697163657   0.0510442244441811
2 1  -0.0504530477135384      1.8194153728092     2.56289000367212
3 1     6.39044469358879     11.1122540943769     5.06935058954884
4 1  -0.0466350117101571     1.81721802199101     7.57545163763983
5 1     6.39465831558827     11.1146628471892     10.0857039591544
6 1  -0.0507992149156419     1.81963069493543     12.5918062397829
7 1     11.2198728440892     2.74951841590124   0.0513472455200366
8 1    -1.65806340011526     4.60603161766226     2.56296876003686
9 1      11.219627927656     2.74966838112823     5.07379727807429
10 1    -1.65824370380222     4.60774925029736     7.57886755269431
11 1     11.2252076796943     2.74646962576876     10.0826933786313
12 1      -1.658320857932     4.60795766501566     12.5888274188999
13 1     9.61533376924848     5.53738481449095   0.0534351889734052
14 1    -3.26840617063464     7.39555360735541      2.5629690182759
15 1      9.6128493948457     5.53594154701198     5.07121797214486
16 1    -3.26700055684575     7.39452442212497      7.5788684521711
17 1     9.61138336949096     5.53508793992254     10.0842817649962
18 1    -3.26685217692993     7.39434160840472     12.5888271268329
19 1     8.00352234472751     8.32105298344361   0.0513481619900217
20 1      -4.877599760577     10.1812564420778     2.56289049311284
21 1     8.00353727368502     8.32075224747819     5.07379717786778
22 1    -4.87758229388154     10.1856500641332     7.57545231924701
23 1     8.00355406510031     8.32717257664302      10.082693647362
24 1    -4.87756909544761     10.1808250894892     12.5918060958101
25 1    -3.26464399679123     11.1124699162868   0.0510452919500475
26 1     3.17536962079128     1.81941587559718     2.56289053504276
27 1    -3.26425527674332     11.1122539646332      5.0693503343506
28 1     3.17157685018148     1.81721818113024     7.57545288593795
29 1     -3.2684015390857     11.1146702085562     10.0857042576065
30 1      3.1757703387038     1.81963142625176     12.5918057363642
31 1     1.56250256781703     2.75062905511923   0.0510444995159223
32 1     1.56265137211405     4.61083227571721     2.56258690259572
33 1     1.56251768594855     2.75105984652521     5.06935037015331
34 1     1.56266595938728     4.60471204808701     7.57846260029763
35 1     1.56253338273912     2.74623473363743     10.0857039928597
36 1     1.56268078827313     4.61113279210252     12.5873592071981
37 1  -0.0466902587841908     5.53633155186839   0.0509657891852628
38 1  -0.0491601232276215     7.39450017637025     2.56049955028363
39 1  -0.0481991434974844     5.53754318458063     5.07232916030924
40 1  -0.0451655577246638     7.39679783637144     7.57687474718513
41 1  -0.0480494016926654     5.53736159985888     10.0822880679767
42 1  -0.0466328184515115     7.39594329688885      12.589938356946
43 1    -1.65703267990402     8.32585362380642   0.0509661815258459
44 1    -1.65369974197237      10.182366616222     2.56258724245291
45 1    -1.65673029138113     8.32392719877282     5.07232937390624
46 1    -1.65897509233995     10.1854304449702     7.57847503789179
47 1    -1.65680152916338     8.32413831184729      10.082288390203
48 1    -1.65340181107978     10.1822208086645     12.5873475623953
49 1  -0.0474562852451496     11.1133831155229   0.0509664005850944
50 1     6.39255758448175     1.81850163661278     2.56296913763242
51 1   -0.045629079848523     11.1140969768251      5.0723291395659
52 1     6.39415642630781     1.81781296498371     7.57886885733958
53 1  -0.0227726096208088     11.1140757946557     10.0822884874577
54 1     6.39439646623146     1.81778810922064     12.5888268056527
55 1     4.78640234021187     2.74951893838361   0.0513487614820014
56 1     4.78336489372081     4.60603166804915     2.56296896904287
57 1     4.78667749769046     2.74966914535053     5.07379678581886
58 1     4.78357704089874     4.60774914587878     7.57886895655269
59 1     4.78113689757829     2.74644779483796     10.0826937950516
60 1      4.7836820687185     4.60795763049993     12.5888267578441
61 1     3.17207999728621     5.53633138459042   0.0509662808259108
62 1     3.17484748734891     7.39449990560346     2.56049957388767
63 1     3.17361960224035     5.53754333807359     5.07232906590964
64 1     3.17088113074858     7.39679760979854     7.57687431089257
65 1     3.17349972305582     5.53735925054449     10.0822880201321
66 1     3.17237602266547     7.39594263327629     12.5899385849748
67 1     1.56288823826128     8.32518945980218   0.0525936110731928
68 1     1.56303600245904     10.1865652877395     2.56049958027323
69 1      1.5629032017827     8.32518923943316     5.06632073704982
70 1     1.56306674856499     10.1819689567836     7.57687444749888
71 1     1.56292697931353     8.32518897280746     10.0839270477324
72 1     1.56308072069291      10.183679252282     12.5899387124149
73 1     3.17361466026959     11.1133836995802   0.0509657172320491
74 1     9.61362902412147     1.81850193949057     2.56296884733341
75 1     3.17181840954357     11.1140972839539     5.07232935338212
76 1     9.61205573718165     1.81781251780336      7.5788676118821
77 1     3.19512482132273     11.1140680513971      10.082288022471
78 1     9.61184419869324     1.81778761820751     12.5888274058092
79 1     8.00313722476126     2.74531988997194   0.0534356064086802
80 1     8.00328554636215      4.6066959603562     2.56134120200211
81 1     8.00315274845164     2.74820587716296     5.07121767407462
82 1     8.00330184403194     4.60669543475782     7.57722938361526
83 1     8.00317654569448     2.74991613896445     10.0842817815776
84 1     8.00331565888207     4.60669562862655     12.5948356544077
85 1     6.39132590903313       5.537385476252   0.0534355774720269
86 1     6.39409324276645     7.39555415258331     2.56296892945477
87 1     6.39384033633417     5.53594222446593     5.07121775751217
88 1     6.39271956290953     7.39452416959936     7.57886813416103
89 1     6.39533622401581     5.53508572628761     10.0842819280142
90 1     6.39259886673671     7.39434173457974     12.5888273513973
91 1     4.78280870072959     8.32585350454318   0.0509660197985878
92 1     4.77977061667207      10.182366600168     2.56258672099304
93 1     4.78253611165089     8.32392753541482     5.07232911790392
94 1     4.78509498466529     10.1854218464109     7.57845036386198
95 1     4.78264707660036     8.32413220428972      10.082288027155
96 1     4.77954823303668     10.1822116751699     12.5873715929322
ITEM: TIMESTEP
2
ITEM: NUMBER OF ATOMS
96
ITEM: BOX BOUNDS xy xz yz pp pp pp
-6.4429733545996148e+00 1.2880043184678415e+01 -6.4418402830467461e+00
-1.0852182922900667e-03 1.1154373276624561e+01 2.6364554439782680e-05
2.3603246167603446e-03 1.5046863838756797e+01 1.4711513356653411e-07
ITEM: ATOMS id type x y z
1 1     6.38878625331275     11.1124665419107   0.0524051415532627
2 1  -0.0507164525626075     1.81941562369317     2.56377480350451
3 1     6.38842556382083     11.1122528994771      5.0697881468436
4 1  -0.0469209480936371     1.81722611078934     7.57544797739986
5 1     6.39264249907861     11.1146461390666     10.0852352235987
6 1   -0.051074083146294     1.81962879659721     12.5908979514466
7 1     11.2193381568921     2.74951635317935   0.0527031474003099
8 1    -1.65882702227407     4.60603618628434     2.56386057207454
9 1     11.2190913565269     2.74966405954677     5.07422363021174
10 1    -1.65901683962979     4.60774911238815     7.57885322906061
11 1      11.224652931532      2.7464926804396     10.0822355912086
12 1    -1.65909806761605     4.60795437226242     12.5879244114022
13 1     9.61428961370331     5.53738255689901   0.0547838268142407
14 1    -3.26966367824627     7.39555291747375      2.5638608300535
15 1      9.6118067666038     5.53594340084887     5.07165467000913
16 1    -3.26826891052965     7.39452316556986     7.57885499173206
17 1     9.61033625238235     5.53509217851231     10.0838210571028
18 1    -3.26812819206588     7.39434350960934      12.587923250994
19 1     8.00198886364373     8.32106164732512   0.0527047425126704
20 1    -4.87935534259883     10.1812612034608     2.56377528963465
21 1     8.00199800053346     8.32076552260686     5.07422286358396
22 1    -4.87934265989712     10.1856387741657     7.57544932685034
23 1     8.00200997990721     8.32716236076181     10.0822358654828
24 1    -4.87933440377002     10.1808338254324     12.5908971365668
25 1    -3.26659316015946     11.1124662624434   0.0524069300320073
26 1     3.17505377018037      1.8194161259163     2.56377532892029
27 1    -3.26621363084954     11.1122522963462     5.06978715878046
28 1     3.17126631854272     1.81722682898572     7.57545044403591
29 1    -3.27032456750106     11.1146640151664      10.085235439758
30 1     3.17543617284289     1.81963011708635     12.5908962270031
31 1     1.56204561478764     2.75062113521182   0.0524057492784425
32 1     1.56185233409634     4.61082044649452     2.56347641608292
33 1     1.56205482320812     2.75104804291754     5.06978758891493
34 1      1.5618622553221     4.60471915377848     7.57844861277783
35 1     1.56206773374595     2.74624298684506     10.0852352140049
36 1     1.56187008351386      4.6111164282406     12.5864617319986
37 1  -0.0476452161226763     5.53632890771943   0.0523198117034809
38 1  -0.0504484317072758     7.39449910130868     2.56139674754021
39 1  -0.0491522198934661     5.53753832320676     5.07276134248346
40 1  -0.0464699572404959     7.39679250479836     7.57686385043702
41 1  -0.0490097386104004     5.53736188157773     10.0818299239664
42 1   -0.047942101292754     7.39593847209365     12.5890299840283
43 1    -1.65848133871339     8.32584609752295   0.0523203554197475
44 1    -1.65549740188778     10.1823651670321     2.56347675742338
45 1    -1.65818241473288     8.32392769532287     5.07276141118003
46 1    -1.66075090289286     10.1854259667137     7.57847774814935
47 1    -1.65825045419573     8.32413960180719     10.0818302415711
48 1    -1.65520330261087     10.1822281034044       12.58643336158
49 1  -0.0494248602898414     11.1133783235683   0.0523210328990269
50 1     6.39222332388289     1.81850301806437     2.56386094947786
51 1  -0.0476095585834733      11.114086478782     5.07276070196196
52 1     6.39381109899672     1.81782028034236     7.57885594779377
53 1  -0.0248442252893769     11.1140710615537     10.0818304371054
54 1     6.39404170247056      1.8177954916808      12.587922390864
55 1     4.78590408664069      2.7495174663184   0.0527059679321722
56 1     4.78253219327528     4.60603623513873     2.56386078122422
57 1     4.78616941615407     2.74966540174319     5.07422185880755
58 1     4.78274243741034      4.6077488362399     7.57885604034052
59 1     4.78065124330242     2.74644077292898     10.0822360188818
60 1     4.78283981594731     4.60795415549391     12.5879223314379
61 1     3.17110446519047     5.53632909326321   0.0523207844380068
62 1     3.17352174644467     7.39449883537105     2.56139677031829
63 1     3.17263007234867     5.53753883267137      5.0727607683637
64 1     3.16955509552103     7.39679172465587     7.57686307123956
65 1     3.17250665762551     5.53735599181433     10.0818298754887
66 1     3.17104351166815     7.39593720169327     12.5890305174848
67 1     1.56141454530159     8.32518458324143   0.0539433494470672
68 1     1.56121928417559      10.186552837854     2.56139677698997
69 1      1.5614236812702     8.32518439068608     5.06676969351053
70 1     1.56126670136516     10.1819656248987     7.57686304257648
71 1     1.56145410587583     8.32518383291578     10.0834647290353
72 1     1.56127444563587     10.1836750413318     12.5890308292783
73 1     3.17161572839828     11.1133794004728   0.0523196275412374
74 1     9.61326442207525     1.81850332446287     2.56386065903929
75 1      3.1698194125288     11.1140872573351     5.07276165862138
76 1     9.61168459962123     1.81781923720363     7.57885349114405
77 1     3.19302472752265     11.1140523929805     10.0818297802892
78 1     9.61147093545216     1.81779441768315     12.5879241813097
79 1      8.0026217954038     2.74532920306267   0.0547845061690721
80 1     8.00242726766268     4.60669771438584     2.56223752087711
81 1     8.00263096742312     2.74820704364526     5.07165410946409
82 1      8.0024385628514     4.60669718177553     7.57721994989092
83 1     8.00266096083385     2.74991712191007      10.083821074386
84 1      8.0024465355435     4.60669740285512     12.5939149304237
85 1      6.3903191892908     5.53738357206954   0.0547846976302535
86 1     6.39273631557004      7.3955534672423     2.56386074169097
87 1     6.39282094973114     5.53594443673505     5.07165397244971
88 1     6.39136394704229     7.39452231396079     7.57885434546029
89 1     6.39431075413375     5.53508646277772     10.0838212206096
90 1     6.39123932279858     7.39434305675719     12.5879238022383
91 1     4.78130918071028     8.32584560390436   0.0523203770022523
92 1     4.77793653952425     10.1823652838722     2.56347623303494
93 1     4.78102908846807     8.32392764051769     5.07276095954706
94 1     4.78324990442407     10.1854047073748     7.57841930361869
95 1     4.78113972504749     8.32412475309757     10.0818298862521
96 1     4.77771824635505     10.1822063118758     12.5864912111334
ITEM: TIMESTEP
3
ITEM: NUMBER OF ATOMS
96
ITEM: BOX BOUNDS xy xz yz pp pp pp
-6.4477147621329260e+00 1.2879401976565434e+01 -6.4471549587025399e+00
-5.4905693623643064e-04 1.1153837422348365e+01 -4.1575436058095036e-05
7.9374481583445076e-04 1.5048430418557723e+01 4.5419499191650131e-07
ITEM: ATOMS id type x y z
1 1     6.38294113149223     11.1119688697746   0.0509058547115759
2 1  -0.0510189188539822     1.81974362992557     2.56268303804802
3 1     6.38257534342262      11.111765400273     5.06924639370637
4 1  -0.0473329844138111     1.81759451467881     7.57548698608513
5 1     6.38681694929261     11.1140786484922      10.085736906782
6 1  -0.0514206784251119     1.81994562322279     12.5919887599083
7 1     11.2174816433214     2.74975168336507   0.0511783848830316
8 1    -1.66049145206725     4.60614398279441     2.56280488366955
9 1     11.2172326084349     2.74988771216704     5.07362920263788
10 1    -1.66072216203671     4.60783256306659     7.57884108541738
11 1      11.222706358553     2.74685709130163       10.08279028726
12 1    -1.66081688942476     4.60802152041076     12.5890392090097
13 1     9.61102383826114     5.53737440217506   0.0532240160367538
14 1    -3.27265623345591     7.39539110747565     2.56280514143826
15 1      9.6085557684409     5.53595651566121     5.07111061103313
16 1    -3.27131036801639     7.39435853975728     7.57884731074292
17 1      9.6070693139307     5.53511765193503     10.0843624557652
18 1    -3.27120179793925      7.3941951381631      12.589033561123
19 1     7.99741614555967     8.32086763320357   0.0511834479232334
20 1    -4.88369915098917     10.1808851245304     2.56268351074892
21 1     7.99740272775999     8.32059524145096     5.07362503502492
22 1    -4.88370178818034     10.1851797440454     7.57549171654298
23 1     7.99739997999202     8.32687059697748     10.0827905878421
24 1     -4.8837135576899     10.1804781715934     12.5919845478304
25 1     -3.2716316672904     11.1119660281288   0.0509111608857577
26 1     3.17432820921694     1.81974407945657     2.56268354027706
27 1    -3.27129218226202     11.1117622680325     5.06924183412794
28 1     3.17057474927405     1.81759817263048     7.57549562124879
29 1    -3.27521328354849     11.1141504326952     10.0857367040169
30 1     3.17463116507226     1.81994997066414     12.5919808511058
31 1     1.56104854052783      2.7508262671293   0.0509080770395357
32 1     1.55985455943394      4.6108434779905     2.56240850291135
33 1     1.56103488739143     2.75123310455717     5.06924419445892
34 1      1.5598453120543      4.6048401164661     7.57843775487467
35 1     1.56103893266854     2.74653159678168     10.0857366767496
36 1     1.55982708759238     4.61111601103107      12.587603324695
37 1  -0.0499931586938903     5.53631887198324   0.0507849655086443
38 1   -0.053752848819858     7.39433541782355      2.5603660272519
39 1  -0.0514825685072099     5.53751671718912     5.07219527282514
40 1  -0.0498490470042613     7.39660668325275     7.57686717303055
41 1  -0.0513701429991609     5.53736675841545     10.0823823256392
42 1  -0.0513391935223791     7.39575532549894     12.5901183771588
43 1    -1.66215648307685      8.3255684373815   0.0507861995443309
44 1    -1.66021051151695     10.1819570733155     2.56240885397074
45 1     -1.6618688503462     8.32369144093257     5.07219468665627
46 1    -1.66534278015204     10.1850019168145     7.57855243766052
47 1    -1.66191301304273     8.32390721100872     10.0823826194507
48 1    -1.65992155927843     10.1818648625762     12.5874892658427
49 1  -0.0547158930662943     11.1128721752745   0.0507892205662898
50 1     6.39124973101395     1.81883689023913     2.56280526218873
51 1  -0.0529542851577007     11.1135508976599     5.07219155059339
52 1     6.39278761893175     1.81818472884704     7.57885104164956
53 1  -0.0306514668918662     11.1135648728981     10.0823833128024
54 1     6.39297699605468     1.81816022431522     12.5890299896589
55 1      4.7845408020509     2.74975579181618     0.05118787316518
56 1      4.7802062008286     4.60614406028171     2.56280509568711
57 1     4.78476296738926     2.74989197737325     5.07362090249096
58 1      4.7804146518077     4.60783130740243     7.57885117102413
59 1     4.77936645730322      2.7466511456769      10.082790767641
60 1     4.78048009423496     4.60802030713853     12.5890298009379
61 1     3.16849761622426     5.53632088967783   0.0507883976714088
62 1     3.16987142264004      7.3943351660997     2.56036604772121
63 1     3.16995899957382     5.53751904692907     5.07219224725117
64 1      3.1659118855295     7.39660297564996     7.57686461950376
65 1     3.16982471422209     5.53734253282132     10.0823822704548
66 1     3.16737388771611     7.39575083726739     12.5901204951623
67 1     1.55745724491795     8.32492052568725   0.0523882150684571
68 1     1.55625693143078     10.1860877546825     2.56036605501824
69 1     1.55744375474296      8.3249204395066     5.06628326390303
70 1     1.55639535968421     10.1815478956253     7.57686376493398
71 1     1.55751556641465     8.32491841510466     10.0839974265226
72 1     1.55637910531078     10.1832525602452     12.5901217309823
73 1     3.16601541060374     11.1128758459468   0.0507842989459345
74 1     9.61198162115957     1.81883722657596     2.56280496930802
75 1     3.16422653349335     11.1135541669279     5.07219612465331
76 1     9.61037542049626     1.81818057143339     7.57884245653198
77 1      3.1869181878942     11.1134902055583     10.0823816793067
78 1     9.61015817326192     1.81815612558342      12.589037798751
79 1     8.00101554174087     2.74562344886689   0.0532260334152473
80 1      7.9998168746686     4.60679100786207     2.56120325895154
81 1     8.00100056225685     2.74845905650078     5.07110870886841
82 1     7.99980976411644     4.60679040013628     7.57723120375167
83 1     8.00107030514118     2.75016802651678     10.0843624753672
84 1     7.99979504062195     4.60679072443168     12.5949452368835
85 1     6.38739933680228     5.53737723605938   0.0532273506161138
86 1      6.3887729948729     7.39539165356571     2.56280505538741
87 1     6.38984255239115     5.53595937124545     5.07110744506631
88 1     6.38741439833421     7.39435452871581     7.57884496575842
89 1     6.39130801526044     5.53509379715751     10.0843626196051
90 1     6.38727682818473     7.39419159631467     12.5890358051176
91 1     4.77706620662093     8.32556587914114   0.0507873230413957
92 1     4.77273028314845     10.1819579125167     2.56240831012425
93 1     4.77675414334063     8.32368925265137     5.07219306653101
94 1     4.77799532327151     10.1849156936392     7.57832102103419
95 1      4.7768704431482     8.32384768074037     10.0823823010044
96 1      4.7725476625734     10.1817781663151     12.5877203350989
ITEM: TIMESTEP
4
ITEM: NUMBER OF ATOMS
96
ITEM: BOX BOUNDS xy xz yz pp pp pp
-6.4450548680092732e+00 1.2880922367768791e+01 -6.4426479599704267e+00
-1.5747376558625341e-03 1.1154864801076990e+01 -3.6828884116167090e-04
-2.9540060337688622e-03 1.5052178169407327e+01 2.1522039896931892e-06
ITEM: ATOMS id type x y z
1 1     6.38942063419384     11.1132719387628   0.0476530337467625
2 1  -0.0511617654229478     1.81877906756406     2.55972837339562
3 1      6.3890893165089     11.1131518782805      5.0677709227729
4 1   -0.048308786196487     1.81696057813021     7.57574657344981
5 1     6.39362099158801     11.1148077163616     10.0867528846111
6 1  -0.0517706976239679     1.81888825104535     12.5948060569388
7 1     11.2206185072475     2.74893121765995   0.0477147840493858
8 1    -1.65979130530709     4.60608464193064     2.56014629491445
9 1     11.2204297240338     2.74897070705587     5.07171358804245
10 1    -1.66027279199195     4.60757396830958     7.57867292778973
11 1     11.2252455701134     2.74709415852332     10.0842479705435
12 1    -1.66040018320913     4.60762843874891     12.5920602193356
13 1     9.61462205582066     5.53726840178232   0.0494685844324349
14 1    -3.27082183489816     7.39583254975714     2.56014656052178
15 1     9.61234513126024     5.53602491440252     5.06961395487229
16 1    -3.26980484702266     7.39477698558951     7.57871635152179
17 1     9.61080090589332     5.53528771795967     10.0857076050812
18 1    -3.26988426273643     7.39474715557603     12.5920171792129
19 1     8.00229373419384     8.32194894367672   0.0477481661618654
20 1    -4.88093884020237     10.1822807948874     2.55972876710409
21 1     8.00217088686074     8.32187197614543     5.07168168247811
22 1     -4.8809662308377     10.1858943462813     7.57577847998416
23 1     8.00215675696022     8.32714995824651     10.0842484622135
24 1    -4.88108867122765     10.1820412974479     12.5947745244872
25 1    -3.26838162376699      11.113246770914   0.0476845431353933
26 1     3.17399651246164     1.81877859195883     2.55972875003323
27 1    -3.26829513594234     11.1131267086261     5.06773979435714
28 1     3.17058789255031     1.81698916428259     7.57580485624994
29 1    -3.27056914309896     11.1153215953589     10.0867492771884
30 1     3.17380172604818     1.81891758709516     12.5947483419987
31 1     1.56139500594996     2.74975769692092   0.0476671585636609
32 1     1.56112527217364     4.61008896790233     2.55965009900759
33 1     1.56127288539977     2.74999913990172     5.06775664189859
34 1     1.56100560318223     4.60488830865532     7.57828098523553