ITEM: TIMESTEP
132
ITEM: NUMBER OF ATOMS
96
ITEM: BOX BOUNDS xy xz yz pp pp pp
-6.4411755024804682e+00 1.2879756873721060e+01 -6.4403077717034325e+00
-8.2926074954035932e-04 1.1154115513954858e+01 5.3943729299492147e-06
1.4340426216209907e-03 1.5047790120751934e+01 -1.6580118242365788e-06
ITEM: ATOMS id type x y z
1 1     6.39326550077228     11.1137915031614   0.0534655133474345
2 1  -0.0470575083068784     1.81800808595147     2.56118560423902
3 1     6.39326813555874     11.1137913658922     5.06891200061247
4 1  -0.0470110075888747     1.81800638721904     7.57663737436001
5 1      6.3933153875079     11.1137911440517     10.0843683885384
6 1  -0.0470100642799911     1.81800628259417      12.592093605502
7 1     11.2234962365203     2.74758706222082   0.0534607068808058
8 1    -1.65713682000672     4.60674272858885     2.56118549451913
9 1     11.2234998706325     2.74758547782201     5.06891346259591
10 1    -1.65709356637873     4.60674169482741      7.5766385995323
11 1     11.2235490777745     2.74758524714381     10.0843656232781
12 1      -1.657091560019     4.60674142347152     12.5920893840185
13 1     9.61341955570227     5.53632228695742    0.053460746592247
14 1     -3.2672077950978     7.39547886667424     2.56118549148497
15 1     9.61342035134779     5.53632109379099     5.06890951602707
16 1    -3.26716588801848     7.39547710655813     7.57663686441592
17 1     9.61346537300885     5.53631876877104     10.0843641575762
18 1    -3.26716379166442     7.39547669102796     12.5920911390448
19 1     8.00334356667958     8.32505487886635   0.0534618690807393
20 1    -4.87728967352859     10.1842127396903     2.56118558149072
21 1     8.00334545426418     8.32505635764472     5.06891227060423
22 1    -4.87724527368656     10.1842139086527     7.57663753840268
23 1     8.00339146827151     8.32505702832375     10.0843656285436
24 1    -4.87724358758232     10.1842124709206     12.5920934121049
25 1    -3.26719705014791     11.1137928647077   0.0534635590750234
26 1      3.1730994927207     1.81800615703744     2.56118556245423
27 1    -3.26719591773513     11.1137927455658     5.06891400547239
28 1     3.17314281968168     1.81800502221271     7.57663832428559
29 1    -3.26714940036937     11.1137928397799     10.0843683920394
30 1     3.17314531271694     1.81800493345027     12.5920925927489
31 1     1.56303301655504      2.7475865352087   0.0534645823138459
32 1     1.56301895621215     4.60674455218195     2.56118829418552
33 1     1.56303489610032     2.74758510753572     5.06891295993098
34 1     1.56306027459173     4.60674046283149     7.57664059657963
35 1     1.56308096774717     2.74758389615711     10.0843683901887
36 1     1.56306199246478     4.60674128870217     12.5920938075407
37 1  -0.0470455861867747     5.53632173245464   0.0534646871112843
38 1  -0.0470587743850005     7.39547831122052     2.56118944759086
39 1  -0.0470437136297089     5.53632164030039     5.06891558456987
40 1  -0.0470089874782896     7.39547825602479     7.57664138269112
41 1  -0.0469975173001109     5.53631979190508     10.0843687130421
42 1  -0.0470081011639993     7.39547721944799      12.592097225254
43 1    -1.65712019744527     8.32505616392265   0.0534651092797793
44 1    -1.65713276487648     10.1842132951721     2.56118828822204
45 1    -1.65711793192582     8.32505535614636     5.06891512964122
46 1    -1.65709009991755     10.1842163291094     7.57664113365335
47 1    -1.65706965589073     8.32505591430089     10.0843687038719
48 1    -1.65708718222286     10.1842151032711     12.5920932466199
49 1  -0.0470441597419514     11.1137934559634   0.0534636300939383
50 1     6.39325240920749     1.81800555347101     2.56118549422399
51 1  -0.0470418575019574     11.1137926720114     5.06891661773179
52 1     6.39329727547323     1.81800588983898     7.57663796434809
53 1    -0.04699238434201     11.1137919298697     10.0843686928803
54 1     6.39329906164927     1.81800497162335     12.5920900421834
55 1     4.78319053516379     2.74758605261522   0.0534628324728436
56 1     4.78317259824392     4.60674169784412     2.56118549656868
57 1     4.78319063559404     2.74758447408878     5.06891127872029
58 1     4.78321723048014     4.60674188177114     7.57663636418701
59 1     4.78323738499826     2.74758210501754     10.0843656321017
60 1     4.78321865606268     4.60674156577559     12.5920916402537
61 1     3.17310911384698     5.53632040917991   0.0534645592552348
62 1     3.17309745285642     7.39547697935685      2.5611894277555
63 1     3.17311103303562     5.53632031112968     5.06891569597647
64 1     3.17314368869934     7.39547820341357     7.57664264607583
65 1     3.17315652428804     5.53632131813857     10.0843687120812
66 1     3.17314620206811     7.39547721220422     12.5920959605153
67 1     1.56303538890171     8.32505711955105   0.0534692015447936
68 1     1.56302029530624     10.1842147822016     2.56118943857438
69 1     1.56303728186824     8.32505655727011     5.06891657825725
70 1     1.56306709524371     10.1842119618275     7.57664187279449
71 1     1.56308717686439     8.32505595810494     10.0843732474047
72 1     1.56306879630429     10.1842123568305     12.5920967349748
73 1     3.17311080640425     11.1137921238467   0.0534656453603921
74 1     9.61340773360761     1.81800751178912     2.56118549562877
75 1     3.17311228113044     11.1137913603242      5.0689146348874
76 1     9.61345175155564     1.81800728442995     7.57663700421591
77 1     3.17316265233891     11.1137902360139     10.0843687299709
78 1     9.61345339513608      1.8180063602229     12.5920909714732
79 1     8.00334406540438     2.74758451848263   0.0534607197145104
80 1     8.00332639462933     4.60674229971207     2.56118097098511
81 1     8.00334596578775     2.74758520369321     5.06890954351235
82 1     8.00337295438632     4.60674168304328     7.57663295336732
83 1     8.00339583729079     2.74758581850274     10.0843641549331
84 1     8.00337466771996     4.60674113861451     12.5920895156732
85 1     6.39326320444632     5.53632098217363   0.0534606623665431
86 1     6.39325689470166     7.39547762067803     2.56118549745015
87 1     6.39326615852139     5.53631980950425     5.06890960098857
88 1      6.3932992047124     7.39547708519026     7.57663809928174
89 1     6.39331286767268      5.5363202685527     10.0843641472294
90 1     6.39330057461624     7.39547666520669     12.5920898782493
91 1     4.78318953766828     8.32505784797447    0.053464102509202
92 1     4.78317293992736     10.1842122166202      2.5611882984894
93 1     4.78319101927081     8.32505702593361     5.06891618846325
94 1     4.78322152183214     10.1842115358848     7.57664057904499
95 1     4.78323874099241     8.32505612327804     10.0843687219911
96 1     4.78322206495776     10.1842103043032     12.5920938458025
