LAMMPS (27 Jun 2024)
OMP_NUM_THREADS environment is not set. Defaulting to 1 thread. (src/comm.cpp:98)
  using 1 OpenMP thread(s) per MPI task
Reading data file ...
  orthogonal box = (0 0 0) to (22.422218 22.19224 20.321894)
  5 by 2 by 2 MPI processor grid
  reading atoms ...
  448 atoms
  read_data CPU = 0.005 seconds
**************** Begin of POD Potentials ****************
species: Hf 
periodic boundary conditions: 1 1 1
number of environment clusters: 8
number of principal compoments: 2
inner cut-off radius: 1
outer cut-off radius: 5
cut-off function type: 1
gaussian_exponents: 
polynomial_degrees: 
bessel polynomial degree: 4
inverse polynomial degree: 10
one-body potential: 1
two-body radial basis functions: 8
three-body radial basis functions: 8
three-body angular degree: 6
four-body radial basis functions: 7
four-body angular degree: 5
five-body radial basis functions: 0
five-body angular degree: 0
six-body radial basis functions: 0
six-body angular degree: 0
seven-body radial basis functions: 0
seven-body angular degree: 0
number of local descriptors per element for one-body potential: 1
number of local descriptors per element for two-body potential: 8
number of local descriptors per element for three-body potential: 56
number of local descriptors per element for four-body potential: 112
number of local descriptors per element for five-body potential: 0
number of local descriptors per element for six-body potential: 0
number of local descriptors per element for seven-body potential: 0
number of local descriptors per element for all potentials: 177
number of global descriptors: 1409
**************** End of POD Potentials ****************

**************** Begin of Model Coefficients ****************
total number of coefficients for POD potential: 1409
total number of elements for PCA projection matrix: 352
total number of elements for PCA centroids: 16
**************** End of Model Coefficients ****************


CITE-CITE-CITE-CITE-CITE-CITE-CITE-CITE-CITE-CITE-CITE-CITE-CITE

Your simulation uses code contributions which should be cited:
- Type Label Framework: https://doi.org/10.1021/acs.jpcb.3c08419
The log file lists these citations in BibTeX format.

CITE-CITE-CITE-CITE-CITE-CITE-CITE-CITE-CITE-CITE-CITE-CITE-CITE

Neighbor list info ...
  update: every = 1 steps, delay = 0 steps, check = no
  max neighbors/atom: 2000, page size: 100000
  master list distance cutoff = 7
  ghost atom cutoff = 7
  binsize = 3.5, bins = 7 7 6
  1 neighbor lists, perpetual/occasional/extra = 1 0 0
  (1) pair pod, perpetual
      attributes: full, newton on
      pair build: full/bin/atomonly
      stencil: full/bin/3d
      bin: standard
Setting up Verlet run ...
  Unit style    : metal
  Current step  : 0
  Time step     : 0.001
Per MPI rank memory allocation (min/avg/max) = 2.586 | 2.586 | 2.586 Mbytes
   Step          Temp          TotEng         PotEng         KinEng         Press          Volume    
         0   300           -3263.9145     -3281.2483      17.333785      1830.9177      10112.159    
       100   91.287215     -3263.0259     -3268.3004      5.27451        3868.4461      10112.159    
       200   165.84181     -3259.7911     -3269.3733      9.5822212      4553.9986      10112.159    
       300   217.34133     -3255.8432     -3268.401       12.557826      4908.2944      10112.159    
       400   279.101       -3251.8026     -3267.9289      16.126256      5071.0626      10112.159    
       500   300.80851     -3247.9435     -3265.324       17.3805        6149.0646      10112.159    
       600   305.59338     -3244.8232     -3262.4801      17.656967      7241.4823      10112.159    
       700   307.25646     -3243.8483     -3261.6013      17.753058      7530.6831      10112.159    
       800   297.5396      -3245.3918     -3262.5834      17.191625      7364.7906      10112.159    
       900   311.21827     -3247.1285     -3265.1104      17.981969      6541.3729      10112.159    
      1000   294.78224     -3248.6383     -3265.6706      17.032307      6152.9855      10112.159    
      1100   299.65503     -3248.025      -3265.3389      17.313853      6162.2264      10112.159    
      1200   290.52831     -3246.3453     -3263.1318      16.786518      6766.6256      10112.159    
      1300   296.09822     -3245.1421     -3262.2504      17.108343      7439.8441      10112.159    
      1400   306.07731     -3244.9735     -3262.6584      17.684928      7004.0955      10112.159    
      1500   326.32597     -3245.6466     -3264.5014      18.854881      6675.0409      10112.159    
      1600   304.66773     -3247.0039     -3264.6074      17.603484      6521.1587      10112.159    
      1700   274.40531     -3247.9545     -3263.8095      15.854942      7080.3837      10112.159    
      1800   276.29545     -3247.5512     -3263.5154      15.964154      6672.3725      10112.159    
      1900   313.5198      -3245.9344     -3264.0494      18.11495       7053.4003      10112.159    
      2000   306.56578     -3245.6668     -3263.3799      17.713151      6827.2638      10112.159    
      2100   328.74952     -3245.6816     -3264.6765      18.994912      6617.9097      10112.159    
      2200   297.7855      -3246.4201     -3263.626       17.205833      6982.4141      10112.159    
      2300   253.58247     -3247.4186     -3262.0704      14.651814      7099.868       10112.159    
      2400   325.35926     -3246.6754     -3265.4744      18.799026      6720.3393      10112.159    
      2500   285.21016     -3247.0773     -3263.5566      16.479239      6599.8935      10112.159    
      2600   320.64592     -3245.9221     -3264.4488      18.526692      6877.1705      10112.159    
      2700   296.42144     -3245.7645     -3262.8915      17.127019      7185.111       10112.159    
      2800   280.95302     -3246.4527     -3262.686       16.233265      7295.7189      10112.159    
      2900   300.31005     -3247.632      -3264.9837      17.3517        6281.2564      10112.159    
      3000   279.43133     -3248.5709     -3264.7162      16.145343      6421.191       10112.159    
      3100   303.8309      -3247.6986     -3265.2537      17.555132      6503.5294      10112.159    
      3200   284.36517     -3247.2543     -3263.6847      16.430416      6773.6428      10112.159    
      3300   300.22675     -3246.1922     -3263.5391      17.346887      7116.2738      10112.159    
      3400   297.44288     -3246.0446     -3263.2306      17.186037      6954.7543      10112.159    
      3500   310.42914     -3245.8981     -3263.8345      17.936374      6873.2584      10112.159    
      3600   310.45008     -3246.1362     -3264.0738      17.937583      6824.8824      10112.159    
      3700   300.25701     -3247.3265     -3264.6751      17.348635      6681.1701      10112.159    
      3800   262.03811     -3248.1394     -3263.2798      15.140375      6837.7316      10112.159    
      3900   300.62177     -3247.0242     -3264.3939      17.369711      6705.714       10112.159    
      4000   303.87943     -3246.3878     -3263.9458      17.557936      6704.3242      10112.159    
      4100   299.11517     -3246.2989     -3263.5815      17.28266       6923.4892      10112.159    
      4200   311.77823     -3245.8137     -3263.828       18.014323      6726.3958      10112.159    
      4300   304.40408     -3245.703      -3263.2913      17.58825       7005.2476      10112.159    
      4400   301.35765     -3246.5991     -3264.0113      17.412229      6763.318       10112.159    
      4500   278.79381     -3247.8255     -3263.934       16.108507      6576.9169      10112.159    
      4600   298.48126     -3247.4778     -3264.7238      17.246034      6487.0542      10112.159    
      4700   314.38662     -3246.2979     -3264.4629      18.165034      6881.2589      10112.159    
      4800   291.9169      -3245.9831     -3262.8498      16.86675       7335.4233      10112.159    
      4900   293.00233     -3246.1842     -3263.1136      16.929465      6942.9339      10112.159    
      5000   321.06915     -3245.9965     -3264.5477      18.551146      6832.1253      10112.159    
      5100   292.25528     -3246.6583     -3263.5446      16.886301      6810.5173      10112.159    
      5200   297.73551     -3246.8632     -3264.0661      17.202945      6999.753       10112.159    
      5300   299.34556     -3246.2021     -3263.4981      17.295973      7201.8564      10112.159    
      5400   292.62294     -3245.4322     -3262.3398      16.907544      7262.5703      10112.159    
      5500   326.72296     -3244.8942     -3263.772       18.877819      7264.1979      10112.159    
      5600   316.01058     -3245.8785     -3264.1373      18.258865      6686.325       10112.159    
      5700   277.77766     -3247.401      -3263.4508      16.049795      6852.3501      10112.159    
      5800   289.4612      -3247.2036     -3263.9284      16.724861      6862.8989      10112.159    
      5900   307.0803      -3246.4913     -3264.2342      17.74288       6971.2995      10112.159    
      6000   313.95498     -3246.0128     -3264.1529      18.140094      6739.1998      10112.159    
      6100   284.13524     -3245.723      -3262.1401      16.417131      7408.236       10112.159    
      6200   327.3618      -3244.574      -3263.4888      18.914731      7328.7373      10112.159    
      6300   294.96013     -3245.7777     -3262.8202      17.042586      7050.2259      10112.159    
      6400   308.03408     -3246.6295     -3264.4275      17.797989      6745.2319      10112.159    
      6500   300.79273     -3247.1707     -3264.5503      17.379589      6413.6275      10112.159    
      6600   281.44293     -3247.2216     -3263.4832      16.261571      6962.3842      10112.159    
      6700   306.63136     -3245.2962     -3263.0131      17.716941      7122.8572      10112.159    
      6800   326.48572     -3244.2676     -3263.1317      18.864112      7374.1325      10112.159    
      6900   309.49588     -3245.285      -3263.1675      17.882451      7085.0161      10112.159    
      7000   286.41709     -3246.4695     -3263.0184      16.548975      7080.1755      10112.159    
      7100   298.44307     -3247.0325     -3264.2764      17.243827      6625.8455      10112.159    
      7200   291.86898     -3247.4612     -3264.3251      16.863981      6418.0176      10112.159    
      7300   300.39762     -3246.3184     -3263.6752      17.35676       6976.2218      10112.159    
      7400   317.6871      -3244.9134     -3263.2692      18.355734      6951.4897      10112.159    
      7500   312.35791     -3245.3649     -3263.4127      18.047817      7014.3068      10112.159    
      7600   287.02143     -3246.9578     -3263.5417      16.583893      7011.6557      10112.159    
      7700   304.6568      -3246.7772     -3264.3801      17.602852      6463.8754      10112.159    
      7800   292.59594     -3246.799      -3263.7049      16.905984      6919.047       10112.159    
      7900   299.78233     -3246.6095     -3263.9307      17.321209      6715.3895      10112.159    
      8000   311.56573     -3245.1963     -3263.1984      18.002045      7253.1454      10112.159    
      8100   312.40325     -3244.4069     -3262.4573      18.050437      7224.3756      10112.159    
      8200   301.68128     -3245.585      -3263.016       17.430929      7200.8173      10112.159    
      8300   303.59331     -3246.9591     -3264.5005      17.541404      6565.3419      10112.159    
      8400   287.72458     -3247.2776     -3263.9021      16.62452       6822.9036      10112.159    
      8500   291.8558      -3246.9509     -3263.8142      16.863219      6699.1092      10112.159    
      8600   322.5795      -3245.5174     -3264.1558      18.638413      6612.0685      10112.159    
      8700   313.36734     -3245.2031     -3263.3092      18.106141      7048.2321      10112.159    
      8800   297.78005     -3245.7508     -3262.9563      17.205519      7027.7889      10112.159    
      8900   297.64318     -3246.4419     -3263.6395      17.19761       6867.2184      10112.159    
      9000   305.27214     -3246.7622     -3264.4006      17.638406      6778.4827      10112.159    
      9100   286.0623      -3247.0175     -3263.546       16.528475      6892.1776      10112.159    
      9200   315.81819     -3246.1866     -3264.4343      18.247749      6809.1908      10112.159    
      9300   297.66512     -3246.0031     -3263.2019      17.198878      6851.9369      10112.159    
      9400   292.34532     -3246.2341     -3263.1256      16.891503      7096.577       10112.159    
      9500   313.8725      -3246.7394     -3264.8747      18.135329      6337.9334      10112.159    
      9600   287.90144     -3247.7862     -3264.421       16.634739      6582.3682      10112.159    
      9700   293.76887     -3247.4074     -3264.3812      16.973755      6637.2816      10112.159    
      9800   291.45361     -3246.1931     -3263.0331      16.839981      7079.7288      10112.159    
      9900   322.82474     -3245.2907     -3263.9433      18.652582      6808.4315      10112.159    
     10000   304.63734     -3245.726      -3263.3278      17.601728      6899.7963      10112.159    
     10100   313.38499     -3245.8928     -3263.9999      18.107161      6812.961       10112.159    
     10200   288.39449     -3246.7165     -3263.3798      16.663227      6772.0962      10112.159    
     10300   293.51422     -3246.8553     -3263.8143      16.959042      6736.6725      10112.159    
     10400   304.54922     -3246.6774     -3264.274       17.596636      6666.6216      10112.159    
     10500   290.05903     -3247.3229     -3264.0823      16.759403      6803.9772      10112.159    
     10600   303.7592      -3247.5835     -3265.1345      17.550989      6597.2886      10112.159    
     10700   295.22001     -3247.2078     -3264.2654      17.057601      6497.687       10112.159    
     10800   302.94995     -3246.039      -3263.5432      17.504231      7129.1605      10112.159    
     10900   288.1415      -3245.7927     -3262.4413      16.64861       7231.6658      10112.159    
     11000   321.96968     -3245.3032     -3263.9064      18.603178      6966.1407      10112.159    
     11100   311.74122     -3246.0901     -3264.1023      18.012185      6778.8043      10112.159    
     11200   275.75925     -3247.6        -3263.5332      15.933172      6792.0028      10112.159    
     11300   290.50324     -3247.2036     -3263.9887      16.78507       6928.5874      10112.159    
     11400   313.29867     -3246.0331     -3264.1353      18.102173      6819.158       10112.159    
     11500   314.93837     -3245.7222     -3263.9191      18.196914      6714.0325      10112.159    
     11600   303.22503     -3246.1866     -3263.7067      17.520126      6827.7642      10112.159    
     11700   298.39999     -3247.2882     -3264.5295      17.241338      6542.7065      10112.159    
     11800   268.08175     -3249.0474     -3264.537       15.489572      6314.7516      10112.159    
     11900   297.72845     -3247.8711     -3265.0736      17.202537      6100.3277      10112.159    
     12000   295.92562     -3246.5992     -3263.6976      17.098371      6865.0578      10112.159    
     12100   298.67403     -3245.8207     -3263.0779      17.257172      7142.4455      10112.159    
     12200   320.85558     -3245.7629     -3264.3017      18.538806      6702.5201      10112.159    
     12300   303.56345     -3246.6586     -3264.1983      17.539679      6885.2952      10112.159    
     12400   282.43852     -3247.5023     -3263.8214      16.319096      6841.5688      10112.159    
     12500   266.73484     -3249.0379     -3264.4496      15.411748      6325.6178      10112.159    
     12600   288.87558     -3248.4529     -3265.1439      16.691025      6179.3288      10112.159    
     12700   305.9334      -3247.1581     -3264.8348      17.676613      6542.021       10112.159    
     12800   283.83628     -3246.8953     -3263.2952      16.399857      6950.0942      10112.159    
     12900   288.07868     -3245.9862     -3262.6311      16.64498       7150.7862      10112.159    
     13000   327.0295      -3245.0127     -3263.9083      18.895531      7025.0516      10112.159    
     13100   305.45632     -3245.8834     -3263.5325      17.649047      6894.5305      10112.159    
     13200   296.77635     -3246.3648     -3263.5124      17.147525      6939.71        10112.159    
     13300   286.50705     -3246.694      -3263.2481      16.554172      6910.3483      10112.159    
     13400   308.19256     -3246.4376     -3264.2447      17.807146      6745.5066      10112.159    
     13500   312.95011     -3246.2912     -3264.3732      18.082033      6647.0089      10112.159    
     13600   293.10215     -3246.507      -3263.4422      16.935233      6857.4454      10112.159    
     13700   297.96262     -3246.4253     -3263.6414      17.216067      7010.099       10112.159    
     13800   286.68234     -3246.7278     -3263.2921      16.5643        6791.1377      10112.159    
     13900   318.04016     -3246.0296     -3264.4057      18.376133      6639.9621      10112.159    
     14000   294.23743     -3246.0207     -3263.0216      17.000828      7152.7104      10112.159    
     14100   292.1698      -3246.53       -3263.4113      16.881362      6912.5792      10112.159    
     14200   302.06322     -3247.2777     -3264.7307      17.452997      6576.3341      10112.159    
     14300   279.62611     -3248.1487     -3264.3053      16.156596      6422.9885      10112.159    
     14400   293.40475     -3247.5245     -3264.4772      16.952717      6623.1818      10112.159    
     14500   297.65976     -3245.7942     -3262.9928      17.198568      6981.3136      10112.159    
     14600   315.77736     -3245.3169     -3263.5623      18.24539       7047.7464      10112.159    
     14700   300.23043     -3246.4115     -3263.7586      17.347099      6783.6696      10112.159    
     14800   306.47816     -3246.73       -3264.4381      17.708089      6623.4792      10112.159    
     14900   280.17276     -3247.1113     -3263.2995      16.188182      7010.3735      10112.159    
     15000   293.16577     -3246.694      -3263.6329      16.938908      6596.8971      10112.159    
     15100   318.296       -3245.261      -3263.6519      18.390915      6962.7484      10112.159    
     15200   313.07987     -3243.7925     -3261.882       18.089531      7454.5077      10112.159    
     15300   326.50775     -3242.3919     -3261.2573      18.865384      7826.6747      10112.159    
     15400   335.73925     -3244.1334     -3263.5321      19.398774      7145.4306      10112.159    
     15500   294.14673     -3245.6544     -3262.65        16.995588      7171.7478      10112.159    
     15600   306.73433     -3246.396      -3264.1189      17.72289       6688.6764      10112.159    
     15700   287.80909     -3247.5146     -3264.144       16.629404      6658.3754      10112.159    
     15800   286.31121     -3247.3658     -3263.9087      16.542857      6569.4325      10112.159    
     15900   309.49942     -3246.1606     -3264.0432      17.882655      6904.5994      10112.159    
     16000   307.72482     -3245.8765     -3263.6566      17.78012       6967.2658      10112.159    
     16100   308.67639     -3245.8958     -3263.7309      17.835101      7034.2549      10112.159    
     16200   282.20799     -3247.0761     -3263.3819      16.305776      6897.313       10112.159    
     16300   292.16645     -3247.5596     -3264.4408      16.881169      6452.6231      10112.159    
     16400   298.05801     -3247.4715     -3264.6931      17.221578      6456.5781      10112.159    
     16500   289.88911     -3246.5095     -3263.259       16.749586      6982.1916      10112.159    
     16600   323.80539     -3245.6372     -3264.3464      18.709244      6929.8361      10112.159    
     16700   290.95762     -3246.4956     -3263.3069      16.811323      6818.4571      10112.159    
     16800   305.32977     -3246.3813     -3264.023       17.641736      6706.2009      10112.159    
     16900   278.33872     -3246.6297     -3262.7119      16.082212      7087.2064      10112.159    
     17000   292.30803     -3247.0716     -3263.9609      16.889349      6667.1264      10112.159    
     17100   292.84752     -3247.5467     -3264.4672      16.92052       6327.4729      10112.159    
     17200   305.85296     -3247.1347     -3264.8066      17.671965      6669.8109      10112.159    
     17300   296.01315     -3246.0754     -3263.1789      17.103428      7044.8415      10112.159    
     17400   308.97069     -3244.8955     -3262.7476      17.852106      7178.8527      10112.159    
     17500   308.62432     -3245.1883     -3263.0204      17.832092      7038.4021      10112.159    
     17600   299.88768     -3245.786      -3263.1133      17.327296      7084.9403      10112.159    
     17700   311.6181      -3246.1589     -3264.164       18.005071      6604.1142      10112.159    
     17800   302.05069     -3246.9579     -3264.4102      17.452273      6508.0616      10112.159    
     17900   274.61153     -3247.592      -3263.4588      15.866858      6649.4088      10112.159    
     18000   293.511       -3246.7347     -3263.6935      16.958856      6596.3072      10112.159    
     18100   320.21298     -3244.9739     -3263.4756      18.501677      7095.7037      10112.159    
     18200   307.20026     -3245.0876     -3262.8374      17.749811      7108.6799      10112.159    
     18300   297.52076     -3246.162      -3263.3526      17.190537      6976.2089      10112.159    
     18400   298.05361     -3247.1794     -3264.4007      17.221325      6566.3766      10112.159    
     18500   294.77508     -3247.3227     -3264.3546      17.031893      6506.7874      10112.159    
     18600   290.60898     -3246.9127     -3263.7039      16.791179      6639.1644      10112.159    
     18700   301.96691     -3246.0503     -3263.4977      17.447432      7097.6089      10112.159    
     18800   302.32338     -3246.1261     -3263.5942      17.468029      6729.309       10112.159    
     18900   307.42544     -3246.1423     -3263.9052      17.762822      6779.5832      10112.159    
     19000   296.3901      -3246.4709     -3263.5962      17.125208      6756.7868      10112.159    
     19100   295.18781     -3246.8192     -3263.8749      17.055741      6843.9222      10112.159    
     19200   297.16565     -3247.0298     -3264.1998      17.170019      6590.678       10112.159    
     19300   303.02529     -3246.9635     -3264.4721      17.508585      6486.2945      10112.159    
     19400   281.79664     -3246.5656     -3262.8476      16.282008      6990.0408      10112.159    
     19500   317.87003     -3245.5086     -3263.8749      18.366303      6761.1137      10112.159    
     19600   295.52967     -3246.0475     -3263.123       17.075493      6812.7748      10112.159    
     19700   306.94552     -3246.5202     -3264.2553      17.735093      6416.4242      10112.159    
     19800   276.83642     -3248.1168     -3264.1122      15.99541       6873.4837      10112.159    
     19900   289.01752     -3248.2729     -3264.9721      16.699226      6399.9704      10112.159    
     20000   294.55832     -3246.9962     -3264.0156      17.019369      6678.0673      10112.159    
     20100   306.13138     -3246.0042     -3263.6922      17.688052      6843.6676      10112.159    
     20200   310.36419     -3245.815      -3263.7476      17.932621      6989.5213      10112.159    
     20300   286.73261     -3246.559      -3263.1262      16.567205      6832.2189      10112.159    
     20400   309.33866     -3247.1699     -3265.0433      17.873367      6451.1618      10112.159    
     20500   271.94368     -3248.5927     -3264.3054      15.712711      6671.3244      10112.159    
     20600   276.25572     -3248.2396     -3264.2014      15.961858      6408.5822      10112.159    
     20700   312.81245     -3246.5368     -3264.6109      18.07408       6841.4579      10112.159    
     20800   294.5746      -3246.4564     -3263.4767      17.02031       6739.7245      10112.159    
     20900   299.66351     -3245.8865     -3263.2008      17.314343      7192.71        10112.159    
     21000   305.39204     -3245.4738     -3263.1191      17.645333      6928.8455      10112.159    
     21100   305.0834      -3246.1957     -3263.8232      17.627501      6870.1168      10112.159    
     21200   286.09534     -3247.7203     -3264.2507      16.530384      6575.5588      10112.159    
     21300   286.89837     -3247.3688     -3263.9456      16.576783      6912.3447      10112.159    
     21400   297.16712     -3246.7431     -3263.9132      17.170104      6803.5736      10112.159    
     21500   294.14344     -3246.4365     -3263.4319      16.995398      6791.4689      10112.159    
     21600   308.41879     -3245.9825     -3263.8027      17.820217      6851.1171      10112.159    
     21700   306.77169     -3246.1774     -3263.9025      17.725049      6738.833       10112.159    
     21800   301.03997     -3246.2734     -3263.6673      17.393874      6922.9691      10112.159    
     21900   297.26277     -3246.4557     -3263.6313      17.17563       6869.6684      10112.159    
     22000   295.94086     -3246.7521     -3263.8513      17.099251      6785.5728      10112.159    
     22100   285.23241     -3247.209      -3263.6895      16.480525      6693.7284      10112.159    
     22200   298.77177     -3247.1383     -3264.4012      17.262819      6609.4582      10112.159    
     22300   316.84507     -3246.3609     -3264.668       18.307082      6704.7965      10112.159    
     22400   298.08432     -3245.9006     -3263.1237      17.223099      7227.0253      10112.159    
     22500   300.20245     -3244.9552     -3262.3007      17.345483      7397.3887      10112.159    
     22600   319.54685     -3244.5584     -3263.0216      18.463188      7375.5598      10112.159    
     22700   299.41471     -3246.3012     -3263.6012      17.299968      6752.0292      10112.159    
     22800   311.64106     -3246.8147     -3264.8211      18.006397      6471.8683      10112.159    
     22900   274.32971     -3247.2315     -3263.0821      15.850575      7016.261       10112.159    
     23000   298.33806     -3246.6043     -3263.842       17.23776       6838.6142      10112.159    
     23100   308.38314     -3245.8465     -3263.6646      17.818157      6782.4877      10112.159    
     23200   314.83153     -3244.0076     -3262.1984      18.190741      7263.0998      10112.159    
     23300   310.9784      -3244.1329     -3262.101       17.96811       7738.538       10112.159    
     23400   306.3418      -3245.7137     -3263.4139      17.70021       6860.4487      10112.159    
     23500   300.48259     -3246.4751     -3263.8368      17.361669      6961.4413      10112.159    
     23600   282.75876     -3247.113      -3263.4506      16.337599      6713.5552      10112.159    
     23700   313.80808     -3246.5835     -3264.7151      18.131606      6741.9941      10112.159    
     23800   290.64768     -3245.9423     -3262.7358      16.793415      7165.6372      10112.159    
     23900   315.4953      -3244.5516     -3262.7807      18.229093      7317.2186      10112.159    
     24000   317.22711     -3244.6555     -3262.9847      18.329156      7199.8216      10112.159    
     24100   292.71747     -3246.7687     -3263.6817      16.913006      6702.3787      10112.159    
     24200   291.01741     -3247.3301     -3264.1449      16.814778      6961.4392      10112.159    
     24300   294.17208     -3247.2397     -3264.2368      16.997052      6646.4984      10112.159    
     24400   286.81486     -3246.4581     -3263.03        16.571958      6941.76        10112.159    
     24500   325.98535     -3244.897      -3263.7322      18.8352        6930.9674      10112.159    
     24600   309.43617     -3245.2581     -3263.1371      17.879         7045.2488      10112.159    
     24700   286.33125     -3246.5434     -3263.0875      16.544015      6837.638       10112.159    
     24800   302.8221      -3246.7127     -3264.2096      17.496844      6875.0094      10112.159    
     24900   316.30328     -3246.5379     -3264.8137      18.275777      6602.5249      10112.159    
     25000   296.87791     -3246.6539     -3263.8073      17.153393      6929.605       10112.159    
     25100   296.82543     -3245.9403     -3263.0907      17.150361      7039.6902      10112.159    
     25200   320.41063     -3244.8574     -3263.3705      18.513097      7039.9144      10112.159    
     25300   303.88728     -3245.3067     -3262.8651      17.55839       6900.824       10112.159    
     25400   301.80892     -3246.8251     -3264.2634      17.438303      6927.2429      10112.159    
     25500   300.42606     -3247.416      -3264.7744      17.358403      6361.5007      10112.159    
     25600   286.28199     -3247.2719     -3263.8131      16.541169      6834.058       10112.159    
     25700   296.11588     -3246.2412     -3263.3505      17.109364      7016.9062      10112.159    
     25800   319.9839      -3245.4665     -3263.955       18.488441      6637.0199      10112.159    
     25900   300.74777     -3245.6766     -3263.0536      17.376991      6942.98        10112.159    
     26000   309.21926     -3246.0061     -3263.8725      17.866468      7089.211       10112.159    
     26100   281.58792     -3247.0761     -3263.3461      16.269949      7004.9564      10112.159    
     26200   299.28967     -3247.2319     -3264.5246      17.292743      6708.7124      10112.159    
     26300   303.65091     -3246.8799     -3264.4246      17.544732      6449.1638      10112.159    
     26400   302.36784     -3244.5398     -3262.0104      17.470597      7298.8817      10112.159    
     26500   302.953       -3244.8157     -3262.3201      17.504408      7492.8771      10112.159    
     26600   314.58646     -3246.2548     -3264.4314      18.176581      6782.5272      10112.159    
     26700   294.81754     -3247.2164     -3264.2507      17.034347      6803.9238      10112.159    
     26800   271.03037     -3247.337      -3262.9969      15.659941      6943.6847      10112.159    
     26900   307.31999     -3245.9707     -3263.7274      17.756729      6914.3812      10112.159    
     27000   312.738       -3245.483      -3263.5528      18.069778      6938.2443      10112.159    
     27100   297.22553     -3246.0389     -3263.2124      17.173478      6967.8025      10112.159    
     27200   302.34034     -3246.428      -3263.897       17.469008      7068.3931      10112.159    
     27300   306.66061     -3246.514      -3264.2327      17.718631      6666.2955      10112.159    
     27400   297.55292     -3246.7164     -3263.9088      17.192395      6931.1306      10112.159    
     27500   302.86295     -3246.1425     -3263.6417      17.499205      6849.4055      10112.159    
     27600   316.83293     -3244.6901     -3262.9965      18.30638       7100.094       10112.159    
     27700   308.62345     -3245.3168     -3263.1489      17.832042      7347.6511      10112.159    
     27800   293.41512     -3246.3469     -3263.3002      16.953316      6741.2106      10112.159    
     27900   308.10604     -3246.6224     -3264.4245      17.802147      6729.5616      10112.159    
     28000   292.46998     -3246.85       -3263.7488      16.898706      6835.5135      10112.159    
     28100   294.40125     -3246.3412     -3263.3515      17.010294      7111.0111      10112.159    
     28200   320.66642     -3244.9668     -3263.4947      18.527876      6916.1318      10112.159    
     28300   301.70168     -3245.1323     -3262.5644      17.432107      7089.3415      10112.159    
     28400   296.90078     -3246.825      -3263.9797      17.154715      6793.3122      10112.159    
     28500   302.02148     -3247.1088     -3264.5593      17.450585      6473.3546      10112.159    
     28600   274.72066     -3247.2783     -3263.1514      15.873163      6933.379       10112.159    
     28700   308.46694     -3246.1852     -3264.0082      17.822999      6685.777       10112.159    
     28800   309.39667     -3245.7592     -3263.6359      17.876718      6801.3282      10112.159    
     28900   296.43049     -3246.0688     -3263.1964      17.127541      6865.1636      10112.159    
     29000   304.3738      -3246.1725     -3263.759       17.586501      6842.0652      10112.159    
     29100   292.51517     -3246.5383     -3263.4396      16.901317      7073.2105      10112.159    
     29200   304.01092     -3246.3947     -3263.9602      17.565534      6571.1262      10112.159    
     29300   323.59947     -3246.0249     -3264.7223      18.697346      6775.5008      10112.159    
     29400   289.0466      -3246.4375     -3263.1384      16.700906      6902.6643      10112.159    
     29500   282.3002      -3246.8009     -3263.112       16.311104      7087.7931      10112.159    
     29600   314.15039     -3246.7266     -3264.878       18.151385      6475.4057      10112.159    
     29700   297.98042     -3246.7017     -3263.9188      17.217096      6634.4446      10112.159    
     29800   308.63803     -3245.8909     -3263.7238      17.832884      6917.097       10112.159    
     29900   296.37053     -3245.5114     -3262.6355      17.124077      7149.4463      10112.159    
     30000   311.13682     -3245.017      -3262.9943      17.977263      7326.427       10112.159    
     30100   294.4163      -3245.8251     -3262.8363      17.011163      7057.4227      10112.159    
     30200   307.69137     -3246.8609     -3264.6391      17.778187      6558.6934      10112.159    
     30300   294.6251      -3247.559      -3264.5822      17.023228      6428.9296      10112.159    
     30400   283.93073     -3247.5385     -3263.9438      16.405314      6854.1899      10112.159    
     30500   297.66114     -3245.4171     -3262.6158      17.198648      7452.4025      10112.159    
     30600   326.43681     -3244.8022     -3263.6635      18.861285      7011.4645      10112.159    
     30700   307.22095     -3246.0038     -3263.7548      17.751007      6745.5536      10112.159    
     30800   285.69797     -3246.9998     -3263.5072      16.507425      6820.4563      10112.159    
     30900   291.87039     -3246.8944     -3263.7584      16.864063      6648.707       10112.159    
     31000   310.26739     -3246.1424     -3264.0695      17.927028      6733.5         10112.159    
     31100   317.35562     -3244.469      -3262.8056      18.336581      7459.5748      10112.159    
     31200   325.50664     -3243.9884     -3262.796       18.807541      7598.8619      10112.159    
     31300   302.5427      -3245.4236     -3262.9043      17.480701      7403.5461      10112.159    
     31400   315.28801     -3246.1061     -3264.3233      18.217116      6960.9716      10112.159    
     31500   276.47004     -3247.1478     -3263.122       15.974241      6732.8637      10112.159    
     31600   309.50616     -3246.8222     -3264.7053      17.883044      6792.5696      10112.159    
     31700   309.25457     -3246.2029     -3264.0714      17.868508      6960.578       10112.159    
     31800   312.65811     -3244.7087     -3262.7738      18.065162      7579.407       10112.159    
     31900   306.40167     -3244.7583     -3262.4619      17.70367       7288.7363      10112.159    
     32000   301.17702     -3246.9122     -3264.314       17.401793      6742.6581      10112.159    
     32100   284.77279     -3247.5181     -3263.9721      16.453968      6731.3739      10112.159    
     32200   311.27702     -3246.9463     -3264.9317      17.985363      6700.8383      10112.159    
     32300   298.99497     -3246.235      -3263.5107      17.275716      6875.5791      10112.159    
     32400   309.96632     -3245.203      -3263.1126      17.909632      7072.3054      10112.159    
     32500   298.16482     -3245.5067     -3262.7345      17.22775       7038.6933      10112.159    
     32600   296.93261     -3246.7213     -3263.8778      17.156554      6834.3414      10112.159    
     32700   293.44809     -3247.937      -3264.8922      16.955221      6533.1212      10112.159    
     32800   297.56638     -3247.4188     -3264.612       17.193172      6571.2437      10112.159    
     32900   304.0034      -3246.4301     -3263.9952      17.565099      6823.4313      10112.159    
     33000   286.2843      -3246.0656     -3262.6069      16.541302      7102.1188      10112.159    
     33100   306.31461     -3245.4214     -3263.1201      17.698639      7270.8797      10112.159    
     33200   329.63461     -3244.1243     -3263.1703      19.046052      7234.5408      10112.159    
     33300   312.22911     -3244.5569     -3262.5973      18.040374      7304.3447      10112.159    
     33400   304.73243     -3246.1845     -3263.7917      17.607222      6587.7834      10112.159    
     33500   310.90115     -3246.6717     -3264.6353      17.963646      6602.7179      10112.159    
     33600   276.38389     -3247.3531     -3263.3223      15.969264      6627.2625      10112.159    
     33700   310.7007      -3246.5595     -3264.5116      17.952064      6735.6299      10112.159    
     33800   313.7734      -3245.0348     -3263.1644      18.129603      6996.9231      10112.159    
     33900   307.65544     -3244.6821     -3262.4582      17.776111      7436.2638      10112.159    
     34000   315.38659     -3245.4049     -3263.6277      18.222811      6884.0848      10112.159    
     34100   307.70017     -3246.3186     -3264.0973      17.778696      6804.4516      10112.159    
     34200   293.88411     -3246.9207     -3263.9011      16.980414      6522.2074      10112.159    
     34300   293.50347     -3247.0248     -3263.9832      16.95842       6712.9758      10112.159    
     34400   304.25044     -3246.2862     -3263.8656      17.579373      6692.7979      10112.159    
     34500   321.56261     -3244.9691     -3263.5488      18.579658      7027.4864      10112.159    
     34600   314.25171     -3245.2859     -3263.4432      18.157239      7064.0856      10112.159    
     34700   293.70206     -3246.7439     -3263.7138      16.969895      6678.6093      10112.159    
     34800   292.10553     -3247.1953     -3264.0729      16.877648      6616.0746      10112.159    
     34900   312.08193     -3246.9601     -3264.9919      18.031871      6610.2226      10112.159    
     35000   289.77257     -3246.8029     -3263.5457      16.742852      6604.7735      10112.159    
     35100   304.3585      -3246.3384     -3263.9241      17.585617      6827.5217      10112.159    
     35200   293.9068      -3246.3031     -3263.2848      16.981725      6883.1337      10112.159    
     35300   300.7106      -3246.2384     -3263.6132      17.374844      7036.0672      10112.159    
     35400   301.23736     -3246.5216     -3263.9269      17.405279      6566.3567      10112.159    
     35500   303.23282     -3246.8315     -3264.3521      17.520575      6903.7735      10112.159    
     35600   290.14808     -3247.2531     -3264.0177      16.764549      6839.3693      10112.159    
     35700   294.73019     -3247.3597     -3264.389       17.0293        6673.5493      10112.159    
     35800   309.24365     -3246.415      -3264.2829      17.867877      6745.915       10112.159    
     35900   304.1912      -3245.5234     -3263.0994      17.57595       7238.3242      10112.159    
     36000   313.25006     -3245.161      -3263.2603      18.099365      6953.0596      10112.159    
     36100   292.78727     -3246.6303     -3263.5473      16.917039      6782.0851      10112.159    
     36200   286.67163     -3247.7416     -3264.3053      16.563682      6844.1966      10112.159    
     36300   300.44065     -3247.3432     -3264.7025      17.359246      6653.3265      10112.159    
     36400   300.55035     -3246.2741     -3263.6397      17.365584      7078.8893      10112.159    
     36500   309.04751     -3245.4859     -3263.3425      17.856544      7024.3304      10112.159    
     36600   298.26269     -3245.8441     -3263.0775      17.233405      7513.9389      10112.159    
     36700   301.26279     -3245.9899     -3263.3966      17.406749      6888.9175      10112.159    
     36800   301.61794     -3246.4018     -3263.8291      17.427269      6706.09        10112.159    
     36900   289.7059      -3247.4781     -3264.2171      16.739         6726.746       10112.159    
     37000   280.74934     -3248.7393     -3264.9607      16.221496      6277.8188      10112.159    
     37100   270.75495     -3248.9493     -3264.5933      15.644028      6519.07        10112.159    
     37200   287.90382     -3246.8997     -3263.5346      16.634877      6847.5192      10112.159    
     37300   300.34312     -3245.8654     -3263.2191      17.353611      7242.852       10112.159    
     37400   312.52207     -3245.4288     -3263.4861      18.057301      6934.0111      10112.159    
     37500   298.226       -3246.1633     -3263.3946      17.231285      7071.3216      10112.159    
     37600   289.57359     -3247.6059     -3264.3372      16.731355      6672.9466      10112.159    
     37700   280.33115     -3247.9362     -3264.1335      16.197333      6604.3646      10112.159    
     37800   302.50699     -3247.1413     -3264.6199      17.478637      6593.9029      10112.159    
     37900   303.33311     -3246.5583     -3264.0847      17.52637       6830.029       10112.159    
     38000   292.65808     -3246.1478     -3263.0574      16.909574      7018.7606      10112.159    
     38100   303.00818     -3245.7545     -3263.2621      17.507596      6962.3025      10112.159    
     38200   308.8976      -3246.1399     -3263.9878      17.847882      7059.5856      10112.159    
     38300   272.39047     -3247.535      -3263.2736      15.738526      6686.0118      10112.159    
     38400   310.81196     -3247.2129     -3265.1714      17.958493      6445.3273      10112.159    
     38500   296.67987     -3246.688      -3263.83        17.141951      6867.209       10112.159    
     38600   299.0007      -3245.3927     -3262.6687      17.276047      7234.8224      10112.159    
     38700   304.21536     -3245.2078     -3262.7852      17.577346      7115.0708      10112.159    
     38800   306.42444     -3245.9516     -3263.6566      17.704985      6951.1879      10112.159    
     38900   303.96262     -3246.8247     -3264.3874      17.562743      6441.3973      10112.159    
     39000   294.26325     -3247.1183     -3264.1206      17.00232       6604.8808      10112.159    
     39100   298.83818     -3246.7966     -3264.0632      17.266656      6660.2723      10112.159    
     39200   294.36434     -3246.3415     -3263.3497      17.008161      6884.652       10112.159    
     39300   313.43565     -3245.4924     -3263.6025      18.110088      6548.4829      10112.159    
     39400   309.99886     -3245.4594     -3263.3709      17.911512      6626.9666      10112.159    
     39500   300.67449     -3246.6429     -3264.0157      17.372757      6785.4964      10112.159    
     39600   291.9286      -3247.8453     -3264.7128      16.867426      6658.5023      10112.159    
     39700   284.29898     -3247.828      -3264.2546      16.426592      6518.2191      10112.159    
     39800   297.90738     -3247.1636     -3264.3765      17.212875      6408.9937      10112.159    
     39900   293.71376     -3246.664      -3263.6346      16.970571      6880.5243      10112.159    
     40000   311.53513     -3245.8951     -3263.8953      18.000277      6650.9861      10112.159    
     40100   307.35464     -3245.746      -3263.5047      17.758731      6965.2744      10112.159    
     40200   291.31067     -3246.6603     -3263.492       16.831722      6807.0302      10112.159    
     40300   277.22216     -3248.0944     -3264.1121      16.017698      6453.0191      10112.159    
     40400   310.22456     -3247.5179     -3265.4425      17.924553      6405.4445      10112.159    
     40500   302.50456     -3246.5991     -3264.0776      17.478497      6498.5205      10112.159    
     40600   313.79981     -3245.8211     -3263.9522      18.131129      6719.6739      10112.159    
     40700   279.02827     -3246.3885     -3262.5106      16.122054      7171.0332      10112.159    
     40800   302.54423     -3246.3963     -3263.8771      17.480789      6820.5249      10112.159    
     40900   312.97328     -3246.1135     -3264.1969      18.083372      6464.3335      10112.159    
     41000   312.94485     -3245.4246     -3263.5063      18.08173       6872.7233      10112.159    
     41100   295.14746     -3245.8561     -3262.9095      17.053409      6826.8159      10112.159    
     41200   299.70496     -3246.5973     -3263.914       17.316738      6779.8317      10112.159    
     41300   292.30958     -3247.6094     -3264.4988      16.889438      6243.7935      10112.159    
     41400   292.11478     -3248.0102     -3264.8884      16.878183      6324.5582      10112.159    
     41500   293.08632     -3246.5337     -3263.4681      16.934318      6745.5733      10112.159    
     41600   310.06487     -3245.5567     -3263.472       17.915327      6935.0571      10112.159    
     41700   300.80836     -3245.9753     -3263.3557      17.380492      7029.8196      10112.159    
     41800   293.44209     -3246.9561     -3263.9109      16.954874      6743.9745      10112.159    
     41900   273.55863     -3247.697      -3263.503       15.806022      6649.0448      10112.159    
     42000   310.80599     -3246.6601     -3264.6183      17.958148      6388.5144      10112.159    
     42100   325.38228     -3245.2472     -3264.0476      18.800356      6721.1336      10112.159    
     42200   300.21098     -3244.8403     -3262.1863      17.345976      7463.7312      10112.159    
     42300   303.6736      -3245.3011     -3262.8471      17.546043      7232.6729      10112.159    
     42400   318.18161     -3245.7491     -3264.1334      18.384306      6770.9875      10112.159    
     42500   294.12134     -3246.8627     -3263.8569      16.994121      6862.7949      10112.159    
     42600   295.74661     -3247.1445     -3264.2326      17.088028      6781.2817      10112.159    
     42700   292.20551     -3247.2846     -3264.168       16.883425      6533.7677      10112.159    
     42800   286.03312     -3247.4761     -3264.0029      16.526789      6654.428       10112.159    
     42900   316.72655     -3246.0143     -3264.3145      18.300234      6614.9489      10112.159    
     43000   290.34266     -3245.4986     -3262.2744      16.775791      7221.0093      10112.159    
     43100   313.84068     -3245.2712     -3263.4047      18.13349       7102.4405      10112.159    
     43200   297.62882     -3246.8906     -3264.0874      17.196781      6676.1915      10112.159    
     43300   298.69992     -3247.5041     -3264.7628      17.258667      6484.2391      10112.159    
     43400   280.28766     -3247.4845     -3263.6793      16.194821      6843.7918      10112.159    
     43500   313.85304     -3246.3509     -3264.4851      18.134204      6885.0409      10112.159    
     43600   288.04029     -3245.939      -3262.5818      16.642762      7035.9812      10112.159    
     43700   317.75897     -3245.6107     -3263.9706      18.359886      6914.4597      10112.159    
     43800   302.08999     -3246.3371     -3263.7916      17.454543      6744.2277      10112.159    
     43900   306.04045     -3246.3754     -3264.0582      17.682799      6765.7186      10112.159    
     44000   286.30616     -3246.7192     -3263.2617      16.542565      6738.7721      10112.159    
     44100   291.75912     -3246.7064     -3263.5641      16.857633      6843.413       10112.159    
     44200   307.27014     -3246.002      -3263.7558      17.753849      6866.3441      10112.159    
     44300   315.04167     -3244.8689     -3263.0718      18.202882      7170.325       10112.159    
     44400   307.7867      -3244.8156     -3262.5993      17.783695      7208.1323      10112.159    
     44500   287.98773     -3246.5084     -3263.1481      16.639725      6899.3237      10112.159    
     44600   302.53857     -3247.3642     -3264.8446      17.480462      6436.9501      10112.159    
     44700   292.5554      -3247.4515     -3264.3551      16.903642      6799.5889      10112.159    
     44800   300.63715     -3246.3897     -3263.7603      17.3706        6837.5326      10112.159    
     44900   304.72516     -3245.5442     -3263.151       17.606802      6963.3665      10112.159    
     45000   313.53619     -3245.6282     -3263.7441      18.115897      6966.1437      10112.159    
     45100   280.21009     -3246.2346     -3262.4249      16.190339      7130.7539      10112.159    
     45200   306.1394      -3246.2007     -3263.8892      17.688515      6904.3353      10112.159    
     45300   297.80828     -3247.1098     -3264.317       17.20715       6509.0466      10112.159    
     45400   287.02859     -3248.2613     -3264.8457      16.584307      6543.3804      10112.159    
     45500   276.68202     -3248.4135     -3264.4         15.986489      6695.7032      10112.159    
     45600   286.8112      -3246.5767     -3263.1484      16.571746      7045.8223      10112.159    
     45700   315.88751     -3245.5723     -3263.824       18.251754      6986.9609      10112.159    
     45800   308.56104     -3245.8768     -3263.7052      17.828436      6754.0656      10112.159    
     45900   298.03379     -3246.5805     -3263.8007      17.220179      6697.807       10112.159    
     46000   290.10579     -3247.5968     -3264.359       16.762105      6594.9308      10112.159    
     46100   278.24622     -3248.2511     -3264.328       16.076867      6345.3982      10112.159    
     46200   299.5396      -3246.6864     -3263.9935      17.307184      6797.7018      10112.159    
     46300   303.74915     -3245.7594     -3263.3099      17.550409      6985.2897      10112.159    
     46400   321.60471     -3245.3421     -3263.9242      18.58209       6687.561       10112.159    
     46500   295.56886     -3245.9309     -3263.0087      17.077758      7006.0595      10112.159    
     46600   285.61831     -3247.3769     -3263.8797      16.502822      6632.2216      10112.159    
     46700   292.73951     -3247.8826     -3264.7968      16.914279      6280.3811      10112.159    
     46800   287.73136     -3247.5533     -3264.1782      16.624912      6654.3547      10112.159    
     46900   295.87666     -3246.8835     -3263.9791      17.095542      6777.3176      10112.159    
     47000   305.23643     -3246.0319     -3263.6683      17.636343      6861.0909      10112.159    
     47100   319.67956     -3245.173      -3263.6438      18.470856      6985.5128      10112.159    
     47200   288.78924     -3245.6434     -3262.3294      16.686036      6894.4319      10112.159    
     47300   294.92344     -3247.6614     -3264.7019      17.040465      6424.7194      10112.159    
     47400   287.27186     -3248.1378     -3264.7362      16.598363      6270.0203      10112.159    
     47500   298.64851     -3247.2188     -3264.4745      17.255698      6432.1621      10112.159    
     47600   290.63512     -3246.1588     -3262.9515      16.792689      7074.9626      10112.159    
     47700   310.24342     -3245.5826     -3263.5083      17.925643      6805.4515      10112.159    
     47800   303.51982     -3245.8637     -3263.4008      17.537158      6954.2155      10112.159    
     47900   305.09185     -3246.5631     -3264.1911      17.627989      6598.2687      10112.159    
     48000   284.32971     -3247.8403     -3264.2687      16.428367      6508.8537      10112.159    
     48100   299.38339     -3247.6545     -3264.9527      17.298158      6343.2612      10112.159    
     48200   278.05147     -3247.3822     -3263.4478      16.065615      6595.8108      10112.159    
     48300   305.86153     -3246.1278     -3263.8002      17.672461      6840.924       10112.159    
     48400   294.37597     -3245.7024     -3262.7113      17.008833      7062.4158      10112.159    
     48500   312.28004     -3245.5259     -3263.5692      18.043317      6858.6204      10112.159    
     48600   301.7057      -3246.633      -3264.0654      17.432339      6539.0139      10112.159    
     48700   280.57228     -3248.0571     -3264.2684      16.211265      6625.4717      10112.159    
     48800   301.28399     -3247.507      -3264.915       17.407973      6047.5593      10112.159    
     48900   286.1991      -3246.8074     -3263.3437      16.536379      6909.9227      10112.159    
     49000   314.53765     -3245.9414     -3264.1151      18.173761      6789.5217      10112.159    
     49100   309.4405      -3245.9748     -3263.854       17.879251      6941.9245      10112.159    
     49200   296.73595     -3246.5292     -3263.6744      17.145191      6744.7218      10112.159    
     49300   295.2801      -3246.9442     -3264.0052      17.061073      6498.223       10112.159    
     49400   303.4016      -3246.6184     -3264.1487      17.530327      6737.7253      10112.159    
     49500   304.94306     -3245.4574     -3263.0768      17.619392      7031.9317      10112.159    
     49600   310.10238     -3245.019      -3262.9365      17.917494      6976.2525      10112.159    
     49700   302.51564     -3245.6593     -3263.1384      17.479138      7039.7907      10112.159    
     49800   304.06315     -3247.2926     -3264.8611      17.568551      6531.3996      10112.159    
     49900   284.30664     -3247.7271     -3264.1542      16.427034      6347.8583      10112.159    
     50000   285.95944     -3246.9546     -3263.4772      16.522532      6686.1813      10112.159    
     50100   309.5199      -3245.973      -3263.8568      17.883838      6540.7419      10112.159    
     50200   314.17169     -3245.8465     -3263.9991      18.152616      6923.8882      10112.159    
     50300   284.30596     -3246.381      -3262.808       16.426995      6752.1878      10112.159    
     50400   301.54939     -3246.3726     -3263.7959      17.423308      6730.341       10112.159    
     50500   302.65108     -3246.5443     -3264.0313      17.486963      6656.3182      10112.159    
     50600   296.13267     -3246.4717     -3263.582       17.110334      6732.2874      10112.159    
     50700   298.67841     -3246.0435     -3263.3009      17.257425      6870.8472      10112.159    
     50800   335.78502     -3244.9919     -3264.3933      19.401418      6788.3511      10112.159    
     50900   286.40809     -3245.1638     -3261.7123      16.548455      7111.3046      10112.159    
     51000   310.64629     -3246.109      -3264.0579      17.948921      6634.183       10112.159    
     51100   297.71714     -3247.4188     -3264.6206      17.201883      6559.6928      10112.159    
     51200   304.47914     -3247.1151     -3264.7076      17.592587      6450.0995      10112.159    
     51300   295.85886     -3246.3962     -3263.4907      17.094513      6613.4362      10112.159    
     51400   308.38039     -3245.3788     -3263.1968      17.817998      7166.5422      10112.159    
     51500   319.46901     -3244.4889     -3262.9476      18.458691      7026.8316      10112.159    
     51600   306.62816     -3245.0078     -3262.7246      17.716756      7064.1882      10112.159    
     51700   313.9957      -3246.0605     -3264.203       18.142447      6523.6344      10112.159    
     51800   281.73867     -3247.4006     -3263.6793      16.278659      6545.5678      10112.159    
     51900   285.26119     -3247.5887     -3264.0708      16.482187      6596.8586      10112.159    
     52000   308.49221     -3246.6739     -3264.4983      17.824459      6599.3574      10112.159    
     52100   310.06439     -3245.4406     -3263.3559      17.915299      6614.2458      10112.159    
     52200   316.98953     -3244.0992     -3262.4147      18.315428      7384.6585      10112.159    
     52300   326.88074     -3242.3793     -3261.2662      18.886935      7571.0706      10112.159    
     52400   325.37604     -3243.7446     -3262.5446      18.799995      7316.1022      10112.159    
     52500   307.34039     -3245.446      -3263.2039      17.757908      6951.5121      10112.159    
     52600   293.72082     -3246.7531     -3263.7241      16.970979      6590.7772      10112.159    
     52700   305.10133     -3247.367      -3264.9955      17.628537      6435.369       10112.159    
     52800   272.49421     -3247.6619     -3263.4064      15.744521      6543.0879      10112.159    
     52900   310.95536     -3246.1634     -3264.1302      17.966778      7035.4728      10112.159    
     53000   301.64554     -3245.8707     -3263.2995      17.428863      6765.6009      10112.159    
     53100   302.15801     -3246.0828     -3263.5413      17.458474      6955.9388      10112.159    
     53200   294.91302     -3247.5364     -3264.5762      17.039864      6474.1938      10112.159    
     53300   276.48275     -3248.3356     -3264.3105      15.974976      6688.6354      10112.159    
     53400   292.04358     -3247.4683     -3264.3424      16.874069      6439.7302      10112.159    
     53500   306.38376     -3246.4125     -3264.1152      17.702634      6741.7867      10112.159    
     53600   292.23037     -3246.1775     -3263.0624      16.884862      7054.8378      10112.159    
     53700   328.23756     -3245.7119     -3264.6773      18.965331      6745.8942      10112.159    
     53800   292.33672     -3246.8822     -3263.7732      16.891007      6730.7412      10112.159    
     53900   293.03072     -3247.7        -3264.6311      16.931106      6679.2384      10112.159    
     54000   274.49042     -3248.0098     -3263.8697      15.85986       6523.3521      10112.159    
     54100   307.33296     -3247.3302     -3265.0876      17.757478      6568.5452      10112.159    
     54200   300.5974      -3246.3516     -3263.7199      17.368303      6777.723       10112.159    
     54300   313.51961     -3245.3311     -3263.446       18.114939      7021.339       10112.159    
     54400   311.76234     -3245.1974     -3263.2108      18.013405      7161.446       10112.159    
     54500   285.44244     -3246.7652     -3263.2579      16.49266       7051.5943      10112.159    
     54600   303.23483     -3246.918      -3264.4387      17.520691      6721.8073      10112.159    
     54700   300.40092     -3246.8736     -3264.2305      17.35695       6817.2399      10112.159    
     54800   310.18028     -3246.2834     -3264.2054      17.921995      6682.9478      10112.159    
     54900   309.4385      -3244.8017     -3262.6808      17.879135      7540.9642      10112.159    
     55000   313.45472     -3244.0309     -3262.1421      18.11119       7514.2063      10112.159    
     55100   300.06582     -3246.1974     -3263.535       17.337588      6963.9749      10112.159    
     55200   301.01778     -3246.8527     -3264.2453      17.392592      6403.0497      10112.159    
     55300   288.79361     -3246.8747     -3263.561       16.686288      6979.1512      10112.159    
     55400   309.55122     -3246.1727     -3264.0584      17.885648      6882.4308      10112.159    
     55500   292.82992     -3246.1322     -3263.0517      16.919503      7057.8989      10112.159    
     55600   310.55859     -3246.0863     -3264.0302      17.943853      6903.5143      10112.159    
     55700   298.99959     -3246.9493     -3264.2253      17.275982      6544.7739      10112.159    
     55800   291.02807     -3247.5505     -3264.3659      16.815394      6711.7464      10112.159    
     55900   296.04105     -3246.8468     -3263.9518      17.10504       7139.8863      10112.159    
     56000   308.17193     -3245.1869     -3262.9928      17.805954      7281.3085      10112.159    
     56100   307.99926     -3245.1992     -3262.9952      17.795977      7229.1826      10112.159    
     56200   310.93428     -3245.882      -3263.8476      17.96556       6700.487       10112.159    
     56300   295.42823     -3246.466      -3263.5356      17.069632      6862.4794      10112.159    
     56400   307.21136     -3246.3992     -3264.1497      17.750452      6752.6871      10112.159    
     56500   286.69382     -3246.8556     -3263.4206      16.564964      7120.0256      10112.159    
     56600   297.46041     -3248.0753     -3265.2624      17.18705       6466.9023      10112.159    
     56700   280.45925     -3248.6505     -3264.8552      16.204735      6332.3698      10112.159    
     56800   303.49295     -3247.2069     -3264.7425      17.535605      6561.0981      10112.159    
     56900   287.10641     -3246.3523     -3262.9411      16.588803      7171.51        10112.159    
     57000   300.67327     -3245.7117     -3263.0844      17.372686      7128.6924      10112.159    
     57100   297.3803      -3245.8007     -3262.9832      17.182421      7122.4315      10112.159    
     57200   295.20841     -3246.935      -3263.992       17.056931      6795.2803      10112.159    
     57300   294.62995     -3248.1191     -3265.1426      17.023508      6469.1779      10112.159    
     57400   291.2448      -3247.76       -3264.5879      16.827916      6629.6456      10112.159    
     57500   286.69934     -3246.6101     -3263.1753      16.565283      6886.1044      10112.159    
     57600   304.01712     -3246.1159     -3263.6818      17.565892      6903.8865      10112.159    
     57700   296.32679     -3246.3859     -3263.5075      17.12155       6825.1102      10112.159    
     57800   309.32805     -3246.4775     -3264.3503      17.872753      6573.4787      10112.159    
     57900   292.64296     -3246.9979     -3263.9066      16.908701      6620.9619      10112.159    
     58000   283.92343     -3247.6414     -3264.0463      16.404893      6335.1843      10112.159    
     58100   290.31336     -3247.5148     -3264.2889      16.774098      6660.4863      10112.159    
     58200   303.20698     -3246.1382     -3263.6573      17.519083      6590.926       10112.159    
     58300   310.45904     -3245.2931     -3263.2312      17.938101      7157.2175      10112.159    
     58400   293.58918     -3245.8576     -3262.821       16.963373      6911.1616      10112.159    
     58500   293.7356      -3246.2893     -3263.2611      16.971833      6946.5395      10112.159    
     58600   303.35893     -3246.4237     -3263.9516      17.527862      6684.4842      10112.159    
     58700   303.8531      -3246.5052     -3264.0616      17.556415      6664.2514      10112.159    
     58800   290.82148     -3246.7627     -3263.5661      16.803457      6636.6595      10112.159    
     58900   296.43031     -3247.4177     -3264.5452      17.127532      6305.3648      10112.159    
     59000   296.59382     -3247.7419     -3264.8789      17.136979      6359.6588      10112.159    
     59100   280.36634     -3247.1904     -3263.3897      16.199367      6881.6716      10112.159    
     59200   306.59126     -3245.7214     -3263.436       17.714624      7235.7261      10112.159    
     59300   312.61715     -3245.4571     -3263.5199      18.062795      6852.6458      10112.159    
     59400   301.18781     -3245.9569     -3263.3593      17.402416      6890.7298      10112.159    
     59500   293.54933     -3247.7068     -3264.6679      16.96107       6548.5057      10112.159    
     59600   279.95787     -3248.3229     -3264.4986      16.175766      6456.2805      10112.159    
     59700   295.15446     -3247.2049     -3264.2587      17.053814      6539.5165      10112.159    
     59800   289.7965      -3246.2414     -3262.9857      16.744234      7205.2846      10112.159    
     59900   319.18224     -3245.4184     -3263.8606      18.442121      6812.6415      10112.159    
     60000   313.24321     -3245.8802     -3263.9792      18.098968      6996.2124      10112.159    
     60100   289.08854     -3246.7841     -3263.4874      16.703329      6732.1009      10112.159    
     60200   294.58247     -3246.9856     -3264.0064      17.020765      6856.8816      10112.159    
     60300   300.81857     -3246.6583     -3264.0394      17.381082      6905.4677      10112.159    
     60400   298.5067      -3246.4293     -3263.6768      17.247503      6814.6676      10112.159    
     60500   293.33329     -3246.4006     -3263.3492      16.948588      6956.1236      10112.159    
     60600   333.33381     -3245.3534     -3264.6132      19.259789      6782.1668      10112.159    
     60700   301.14932     -3245.5551     -3262.9553      17.400192      7033.9837      10112.159    
     60800   293.63177     -3246.8459     -3263.8117      16.965834      6733.5738      10112.159    
     60900   296.46282     -3247.6106     -3264.74        17.129409      6460.9189      10112.159    
     61000   291.9763      -3247.352      -3264.2221      16.870182      6673.6715      10112.159    
     61100   299.37922     -3246.7298     -3264.0277      17.297917      6713.1655      10112.159    
     61200   295.52825     -3246.5268     -3263.6022      17.075411      6921.287       10112.159    
     61300   311.22967     -3245.9579     -3263.9405      17.982628      6821.6502      10112.159    
     61400   296.439       -3246.2524     -3263.3804      17.128033      7129.7624      10112.159    
     61500   302.54672     -3246.6699     -3264.1509      17.480933      6826.0892      10112.159    
     61600   298.7293      -3247.0463     -3264.3067      17.260365      6844.2478      10112.159    
     61700   284.12409     -3247.7329     -3264.1494      16.416487      6752.8039      10112.159    
     61800   281.9204      -3247.4548     -3263.7439      16.289159      6723.6802      10112.159    
     61900   324.80679     -3245.9294     -3264.6965      18.767104      6432.6148      10112.159    
     62000   303.85399     -3245.6546     -3263.211       17.556466      7109.2678      10112.159    
     62100   304.91939     -3245.6191     -3263.2371      17.618024      7040.913       10112.159    
     62200   280.26985     -3247.2629     -3263.4566      16.193792      6755.2444      10112.159    
     62300   286.61119     -3247.9416     -3264.5018      16.56019       6632.1465      10112.159    
     62400   289.83001     -3247.6287     -3264.3749      16.746171      6447.4143      10112.159    
     62500   305.92003     -3246.425      -3264.1008      17.675841      6866.3125      10112.159    
     62600   302.67822     -3246.1194     -3263.6079      17.488531      7062.0446      10112.159    
     62700   297.47187     -3246.2288     -3263.4165      17.187712      6990.5214      10112.159    
     62800   293.49816     -3246.4843     -3263.4424      16.958114      6932.6989      10112.159    
     62900   282.90637     -3247.4402     -3263.7863      16.346128      6742.3137      10112.159    
     63000   305.94245     -3247.9281     -3265.6052      17.677136      6141.3829      10112.159    
     63100   294.93311     -3247.7386     -3264.7797      17.041024      6411.9266      10112.159    
     63200   305.6939      -3245.9388     -3263.6016      17.662775      7065.9582      10112.159    
     63300   293.0661      -3245.7237     -3262.6569      16.93315       6936.4737      10112.159    
     63400   305.54716     -3245.7874     -3263.4417      17.654296      7069.4347      10112.159    
     63500   314.12354     -3246.5515     -3264.7013      18.149833      6478.2602      10112.159    
     63600   278.85028     -3247.9272     -3264.039       16.11177       6548.0116      10112.159    
     63700   292.83864     -3247.4517     -3264.3717      16.920007      6713.9246      10112.159    
     63800   279.33505     -3246.8694     -3263.0092      16.139779      6911.8238      10112.159    
     63900   316.29081     -3245.4577     -3263.7328      18.275057      6789.0877      10112.159    
     64000   315.02987     -3245.6195     -3263.8217      18.2022        6918.4254      10112.159    
     64100   294.46716     -3246.0372     -3263.0513      17.014102      7064.3262      10112.159    
     64200   295.01621     -3246.2076     -3263.2534      17.045826      7145.1254      10112.159    
     64300   289.60325     -3247.5153     -3264.2483      16.733069      6520.5214      10112.159    
     64400   288.40327     -3247.9675     -3264.6312      16.663735      6610.0241      10112.159    
     64500   306.77202     -3247.1663     -3264.8913      17.725068      6544.5517      10112.159    
     64600   282.78897     -3246.7798     -3263.1191      16.339344      6838.6994      10112.159    
     64700   307.22768     -3246.1627     -3263.9141      17.751396      6992.5193      10112.159    
     64800   287.76911     -3246.2752     -3262.9023      16.627093      6931.6804      10112.159    
     64900   300.96448     -3246.316      -3263.7055      17.389513      6685.0555      10112.159    
     65000   292.31321     -3247.8256     -3264.7152      16.889648      6281.8888      10112.159    
     65100   288.01498     -3248.7167     -3265.358       16.6413        6175.0325      10112.159    
     65200   288.37083     -3247.8812     -3264.5431      16.66186       6465.5978      10112.159    
     65300   287.3514      -3246.6619     -3263.2649      16.602959      6758.0403      10112.159    
     65400   317.22593     -3245.9493     -3264.2784      18.329087      6960.486       10112.159    
     65500   291.6542      -3246.4227     -3263.2743      16.851571      6693.8945      10112.159    
     65600   312.33218     -3246.6541     -3264.7004      18.04633       6705.0722      10112.159    
     65700   278.05402     -3247.6561     -3263.7219      16.065762      6494.9899      10112.159    
     65800   284.99542     -3247.9435     -3264.4104      16.466832      6510.8528      10112.159    
     65900   316.89564     -3246.5329     -3264.8429      18.310003      6447.9205      10112.159    
     66000   300.96588     -3245.5697     -3262.9593      17.389593      7008.4795      10112.159    
     66100   303.76675     -3245.5273     -3263.0787      17.551425      7100.6596      10112.159    
     66200   293.53377     -3246.3755     -3263.3356      16.960171      7168.929       10112.159    
     66300   301.63442     -3247.3416     -3264.7698      17.428221      6443.5768      10112.159    
     66400   275.4974      -3249.107      -3265.0251      15.918043      6466.238       10112.159    
     66500   274.38633     -3248.7163     -3264.5702      15.853846      6469.6874      10112.159    
     66600   303.49885     -3247.545      -3265.0809      17.535947      6333.166       10112.159    
     66700   295.71096     -3246.5175     -3263.6035      17.085968      6790.6006      10112.159    
     66800   309.55145     -3245.5814     -3263.4671      17.885661      6870.4788      10112.159    
     66900   295.78836     -3245.9073     -3262.9977      17.09044       7067.8599      10112.159    
     67000   298.74018     -3246.7833     -3264.0443      17.260994      6402.2266      10112.159    
     67100   295.39658     -3248.409      -3265.4768      17.067803      6149.7218      10112.159    
     67200   278.72928     -3248.5047     -3264.6095      16.104779      6458.9658      10112.159    
     67300   281.91358     -3247.6559     -3263.9447      16.288765      6751.2662      10112.159    
     67400   303.42515     -3246.7754     -3264.3071      17.531688      6874.279       10112.159    
     67500   314.55608     -3245.9421     -3264.1169      18.174826      6883.1007      10112.159    
     67600   296.65146     -3245.6912     -3262.8315      17.140309      7165.2274      10112.159    
     67700   309.6695      -3245.9149     -3263.8074      17.892482      6906.5778      10112.159    
     67800   286.69434     -3247.4058     -3263.9708      16.564994      6690.9208      10112.159    
     67900   282.54016     -3247.8842     -3264.2092      16.324968      6662.2229      10112.159    
     68000   294.26253     -3247.3117     -3264.314       17.002279      6566.987       10112.159    
     68100   305.30015     -3245.6937     -3263.3338      17.640024      7025.9567      10112.159    
     68200   303.79432     -3245.493      -3263.046       17.553018      7261.6061      10112.159    
     68300   303.94342     -3245.6528     -3263.2144      17.561633      7115.7917      10112.159    
     68400   288.84519     -3246.8365     -3263.5257      16.689268      6960.3277      10112.159    
     68500   292.94969     -3247.6141     -3264.5405      16.926423      6654.942       10112.159    
     68600   302.78105     -3247.1203     -3264.6148      17.494473      6512.4356      10112.159    
     68700   294.24256     -3246.6904     -3263.6915      17.001124      6910.395       10112.159    
     68800   307.2897      -3245.847      -3263.602       17.754979      7033.92        10112.159    
     68900   312.69522     -3245.1249     -3263.1922      18.067306      7055.8976      10112.159    
     69000   307.42947     -3245.1385     -3262.9015      17.763055      7276.4086      10112.159    
     69100   300.65371     -3246.391      -3263.7626      17.371556      6927.4568      10112.159    
     69200   293.07956     -3247.421      -3264.3549      16.933927      6707.7538      10112.159    
     69300   299.24124     -3247.1961     -3264.486       17.289945      6806.407       10112.159    
     69400   294.77953     -3246.2262     -3263.2583      17.03215       6930.3881      10112.159    
     69500   299.08794     -3245.2457     -3262.5268      17.281087      7362.8541      10112.159    
     69600   326.09315     -3244.4805     -3263.3219      18.841429      7102.4153      10112.159    
     69700   312.63713     -3244.3253     -3262.3892      18.06395       7458.18        10112.159    
     69800   296.81191     -3245.9221     -3263.0717      17.14958       6880.5205      10112.159    
     69900   299.42481     -3246.8651     -3264.1656      17.300552      6942.919       10112.159    
     70000   311.83293     -3247.1498     -3265.1673      18.017484      6591.3271      10112.159    
     70100   290.60889     -3247.292      -3264.0832      16.791174      6770.3996      10112.159    
     70200   301.17958     -3245.9503     -3263.3522      17.40194       7229.5084      10112.159    
     70300   307.46211     -3244.8204     -3262.5853      17.764941      7343.3856      10112.159    
     70400   309.84944     -3245.1537     -3263.0566      17.902879      7043.0571      10112.159    
     70500   304.09132     -3246.1693     -3263.7395      17.570179      6872.0037      10112.159    
     70600   299.10621     -3246.4252     -3263.7073      17.282143      6906.0882      10112.159    
     70700   303.91605     -3246.5922     -3264.1522      17.560052      6658.6025      10112.159    
     70800   288.95845     -3246.9448     -3263.6406      16.695813      6932.1062      10112.159    
     70900   285.09204     -3246.8857     -3263.3581      16.472414      6834.8581      10112.159    
     71000   305.04069     -3246.408      -3264.0331      17.625033      6854.9895      10112.159    
     71100   320.49763     -3245.2828     -3263.8009      18.518124      7132.8223      10112.159    
     71200   313.13262     -3245.2219     -3263.3145      18.092579      7131.6852      10112.159    
     71300   294.50057     -3246.3256     -3263.3416      17.016032      6937.7895      10112.159    
     71400   291.06884     -3247.187      -3264.0047      16.817749      6746.4459      10112.159    
     71500   297.60375     -3247.164      -3264.3593      17.195332      6607.4595      10112.159    
     71600   297.56972     -3246.6803     -3263.8737      17.193366      6818.0413      10112.159    
     71700   301.66834     -3245.9644     -3263.3946      17.430181      7062.4394      10112.159    
     71800   307.12788     -3245.4493     -3263.1949      17.745629      7212.4141      10112.159    
     71900   306.06353     -3245.3929     -3263.077       17.684132      7245.9978      10112.159    
     72000   306.51116     -3246.481      -3264.191       17.709996      6653.1372      10112.159    
     72100   291.23817     -3247.5764     -3264.4039      16.827533      6640.3725      10112.159    
     72200   297.20583     -3247.3603     -3264.5327      17.17234       6620.6569      10112.159    
     72300   288.58583     -3246.1518     -3262.8261      16.674283      7037.13        10112.159    
     72400   318.17715     -3245.1187     -3263.5028      18.384048      6992.7295      10112.159    
     72500   298.22512     -3245.7377     -3262.9689      17.231234      6892.2379      10112.159    
     72600   314.584       -3246.2553     -3264.4317      18.176439      6577.9403      10112.159    
     72700   296.39004     -3247.3016     -3264.4268      17.125204      6597.2585      10112.159    
     72800   283.66734     -3247.6141     -3264.0041      16.390096      6827.7061      10112.159    
     72900   307.52786     -3245.5722     -3263.3409      17.76874       6921.3999      10112.159    
     73000   321.66891     -3244.8395     -3263.4253      18.5858        6969.8029      10112.159    
     73100   303.99014     -3245.7903     -3263.3547      17.564333      6663.2368      10112.159    
     73200   282.92789     -3247.0138     -3263.3611      16.347371      6753.9281      10112.159    
     73300   311.53273     -3246.9394     -3264.9395      18.000138      6607.4952      10112.159    
     73400   295.32416     -3246.9459     -3264.0096      17.063619      6599.4854      10112.159    
     73500   303.50221     -3245.8458     -3263.3819      17.536141      6994.6829      10112.159    
     73600   307.47597     -3244.3759     -3262.1416      17.765742      7434.0212      10112.159    
     73700   318.78988     -3244.8684     -3263.2878      18.419451      7190.1924      10112.159    
     73800   290.44443     -3246.2406     -3263.0223      16.781672      6937.3666      10112.159    
     73900   309.39972     -3246.3766     -3264.2535      17.876895      6663.3755      10112.159    
     74000   288.65147     -3247.0191     -3263.6972      16.678075      6597.6342      10112.159    
     74100   299.96227     -3247.0721     -3264.4037      17.331605      6466.9761      10112.159    
     74200   303.21501     -3246.0041     -3263.5236      17.519547      7083.221       10112.159    
     74300   302.86359     -3244.8564     -3262.3556      17.499242      7043.3657      10112.159    
     74400   316.44809     -3244.8685     -3263.1527      18.284145      7112.9438      10112.159    
     74500   290.16295     -3246.6893     -3263.4548      16.765408      6688.8292      10112.159    
     74600   294.11719     -3246.843      -3263.8369      16.993881      6662.5339      10112.159    
     74700   310.78293     -3246.682      -3264.6388      17.956816      6379.9971      10112.159    
     74800   280.44485     -3247.0248     -3263.2287      16.203903      6848.018       10112.159    
     74900   314.53642     -3245.6544     -3263.8281      18.17369       6875.7177      10112.159    
     75000   312.38058     -3244.8985     -3262.9477      18.049126      7286.6042      10112.159    
     75100   312.65983     -3245.339      -3263.4043      18.065261      6999.8778      10112.159    
     75200   295.8152      -3247.0515     -3264.1434      17.091991      6528.62        10112.159    
     75300   285.40208     -3247.5991     -3264.0894      16.490328      6575.7592      10112.159    
     75400   298.70783     -3247.1352     -3264.3944      17.259125      6561.8182      10112.159    
[...]
    281800   287.73385     -3247.7066     -3264.3316      16.625056      6822.1684      10112.159    
    281900   296.25764     -3248.6038     -3265.7213      17.117554      5972.2632      10112.159    
    282000   267.76235     -3249.9121     -3265.3833      15.471117      6161.3019      10112.159    
    282100   283.8009      -3248.5093     -3264.9071      16.397813      6428.9515      10112.159    
    282200   286.07968     -3247.0729     -3263.6024      16.529479      6917.4776      10112.159    
    282300   303.91689     -3245.8958     -3263.4559      17.560101      6903.8188      10112.159    
    282400   322.62789     -3245.3644     -3264.0056      18.641209      6887.7523      10112.159    
    282500   284.47207     -3246.2739     -3262.7105      16.436593      6941.0946      10112.159    
    282600   288.9318      -3247.2607     -3263.955       16.694273      6875.7091      10112.159    
    282700   291.77917     -3248.2575     -3265.1163      16.858792      6369.0191      10112.159    
    282800   297.18579     -3247.7409     -3264.9121      17.171182      6455.0068      10112.159    
    282900   290.45316     -3245.9626     -3262.7448      16.782176      7242.9568      10112.159    
    283000   310.13208     -3245.394      -3263.3132      17.91921       7122.7452      10112.159    
    283100   300.35565     -3245.9544     -3263.3087      17.354334      7130.898       10112.159    
    283200   304.71955     -3246.9833     -3264.5898      17.606478      6547.7434      10112.159    
    283300   283.89682     -3247.9845     -3264.3879      16.403355      6703.351       10112.159    
    283400   273.85356     -3247.8597     -3263.6827      15.823063      6789.3802      10112.159    
    283500   321.01037     -3245.7788     -3264.3266      18.54775       6822.179       10112.159    
    283600   306.95106     -3245.2774     -3263.0128      17.735413      7199.507       10112.159    
    283700   310.08175     -3245.5157     -3263.432       17.916301      7213.655       10112.159    
    283800   293.56719     -3246.6345     -3263.5966      16.962102      6900.9226      10112.159    
    283900   282.96819     -3247.2821     -3263.6318      16.3497        6911.0953      10112.159    
    284000   310.32741     -3247.004      -3264.9345      17.930496      6511.055       10112.159    
    284100   303.25088     -3245.322      -3262.8436      17.521619      6927.262       10112.159    
    284200   318.33301     -3244.397      -3262.7901      18.393054      7427.1344      10112.159    
    284300   306.67492     -3245.6173     -3263.3368      17.719458      7255.1413      10112.159    
    284400   286.54018     -3246.7941     -3263.3501      16.556087      7002.4003      10112.159    
    284500   310.51624     -3246.4435     -3264.3849      17.941407      6760.5821      10112.159    
    284600   296.77087     -3246.3407     -3263.4879      17.147209      6769.4452      10112.159    
    284700   295.48089     -3246.2978     -3263.3705      17.072675      6814.585       10112.159    
    284800   303.55175     -3246.5337     -3264.0727      17.539003      6709.8265      10112.159    
    284900   283.06692     -3247.1639     -3263.5193      16.355404      6766.5736      10112.159    
    285000   287.34161     -3246.9313     -3263.5337      16.602393      6914.5145      10112.159    
    285100   306.09215     -3245.9946     -3263.6804      17.685786      6968.8527      10112.159    
    285200   306.86358     -3244.8347     -3262.5651      17.730358      7263.3462      10112.159    
    285300   320.23012     -3244.6753     -3263.178       18.502667      7271.2507      10112.159    
    285400   294.30634     -3246.8566     -3263.8614      17.00481       6636.8173      10112.159    
    285500   289.15378     -3247.1489     -3263.856       16.707098      7015.7808      10112.159    
    285600   310.68296     -3246.4752     -3264.4262      17.951039      6584.6345      10112.159    
    285700   287.31936     -3245.9891     -3262.5902      16.601107      7302.6209      10112.159    
    285800   306.99217     -3244.9759     -3262.7136      17.737788      7195.6032      10112.159    
    285900   314.68332     -3245.0681     -3263.2503      18.182177      6964.8579      10112.159    
    286000   307.05119     -3247.0525     -3264.7937      17.741198      6816.5398      10112.159    
    286100   286.90881     -3247.6874     -3264.2648      16.577386      6391.2348      10112.159    
    286200   294.45456     -3247.0244     -3264.0378      17.013374      6708.004       10112.159    
    286300   297.75762     -3245.6765     -3262.8807      17.204222      7122.0936      10112.159    
    286400   311.1829      -3245.4117     -3263.3916      17.979925      7049.1454      10112.159    
    286500   300.95831     -3246.1917     -3263.5809      17.389156      6752.7729      10112.159    
    286600   308.1898      -3246.6377     -3264.4446      17.806986      6750.2798      10112.159    
    286700   281.18066     -3247.5048     -3263.7512      16.246417      7035.1205      10112.159    
    286800   284.09804     -3247.3401     -3263.7551      16.414982      6767.2467      10112.159    
    286900   303.26999     -3245.3127     -3262.8354      17.522723      7301.3076      10112.159    
    287000   330.27543     -3244.9255     -3264.0086      19.083078      6820.1661      10112.159    
    287100   300.08215     -3246.2677     -3263.6062      17.338532      6816.714       10112.159    
    287200   299.30492     -3246.9266     -3264.2202      17.293624      6628.1355      10112.159    
    287300   296.68876     -3247.1971     -3264.3395      17.142464      6617.7016      10112.159    
    287400   300.4734      -3246.7778     -3264.139       17.361138      6605.2346      10112.159    
    287500   292.4946      -3245.3701     -3262.2703      16.900129      7428.6478      10112.159    
    287600   324.76446     -3244.5956     -3263.3603      18.764658      7066.6776      10112.159    
    287700   303.70721     -3245.7578     -3263.3058      17.547985      6910.0809      10112.159    
    287800   301.7916      -3246.6415     -3264.0788      17.437303      6634.5379      10112.159    
    287900   292.31788     -3247.0062     -3263.8962      16.889918      6870.2902      10112.159    
    288000   298.04761     -3246.8579     -3264.0789      17.220978      6696.9288      10112.159    
    288100   314.32921     -3245.8482     -3264.0099      18.161717      6749.7376      10112.159    
    288200   315.2737      -3244.5798     -3262.7961      18.216289      7043.1593      10112.159    
    288300   315.02724     -3244.2689     -3262.471       18.202049      7379.3983      10112.159    
    288400   305.7467      -3246.3315     -3263.9973      17.665826      6839.1812      10112.159    
    288500   293.77006     -3247.2439     -3264.2177      16.973824      6732.299       10112.159    
    288600   289.93658     -3247.4806     -3264.2329      16.752329      6560.4326      10112.159    
    288700   301.09825     -3246.6587     -3264.056       17.397242      6652.8049      10112.159    
    288800   298.74313     -3245.7426     -3263.0038      17.261164      6952.5804      10112.159    
    288900   297.04948     -3245.7883     -3262.9517      17.163306      7070.4845      10112.159    
    289000   304.18051     -3246.3053     -3263.8806      17.575332      6528.0002      10112.159    
    289100   291.84492     -3248.0148     -3264.8774      16.862591      6446.0813      10112.159    
    289200   290.15661     -3248.1675     -3264.9325      16.765041      6141.694       10112.159    
    289300   292.59273     -3246.8849     -3263.7907      16.905799      6870.3659      10112.159    
    289400   302.98653     -3246.1329     -3263.6392      17.506345      6945.5513      10112.159    
    289500   303.42821     -3246.0083     -3263.5402      17.531865      7149.3151      10112.159    
    289600   281.16935     -3246.5178     -3262.7635      16.245764      6964.5354      10112.159    
    289700   304.98855     -3246.9222     -3264.5442      17.62202       6784.3365      10112.159    
    289800   285.03689     -3247.8305     -3264.2998      16.469228      6245.3375      10112.159    
    289900   290.53815     -3248.0734     -3264.8605      16.787087      6410.0375      10112.159    
    290000   300.49848     -3246.936      -3264.2986      17.362587      6608.0865      10112.159    
    290100   298.80327     -3245.7963     -3263.0609      17.264639      7123.0417      10112.159    
    290200   317.92687     -3245.6488     -3264.0184      18.369587      6876.0146      10112.159    
    290300   293.3025      -3246.4606     -3263.4074      16.946809      6913.7177      10112.159    
    290400   289.7137      -3247.1478     -3263.8872      16.73945       6680.1242      10112.159    
    290500   275.36753     -3248.6304     -3264.541       15.910539      6331.4051      10112.159    
    290600   300.65107     -3248.423      -3265.7944      17.371404      6145.3142      10112.159    
    290700   296.41704     -3246.7465     -3263.8732      17.126765      6685.546       10112.159    
    290800   297.85641     -3245.776      -3262.986       17.20993       7045.0971      10112.159    
    290900   295.00579     -3245.7801     -3262.8253      17.045224      7141.4826      10112.159    
    291000   307.39885     -3246.3037     -3264.065       17.761286      6536.259       10112.159    
    291100   309.30652     -3247.2028     -3265.0743      17.871509      6343.0918      10112.159    
    291200   280.59306     -3248.3285     -3264.541       16.212467      6373.4554      10112.159    
    291300   289.54345     -3247.7054     -3264.4351      16.729613      6811.9174      10112.159    
    291400   284.83736     -3245.9206     -3262.3783      16.457699      6963.9541      10112.159    
    291500   322.3027      -3245.302      -3263.9244      18.622419      6730.0209      10112.159    
    291600   321.24869     -3245.6739     -3264.2354      18.56152       6675.2045      10112.159    
    291700   280.53085     -3247.0019     -3263.2107      16.208872      6979.7367      10112.159    
    291800   295.39666     -3247.4949     -3264.5627      17.067808      6510.3107      10112.159    
    291900   294.80532     -3247.3144     -3264.348       17.03364       6551.2028      10112.159    
    292000   307.84709     -3246.2389     -3264.026       17.787185      6768.0657      10112.159    
    292100   299.06341     -3245.9929     -3263.2726      17.27967       7316.308       10112.159    
    292200   308.65998     -3245.897      -3263.7311      17.834153      7023.5257      10112.159    
    292300   296.02437     -3246.4531     -3263.5571      17.104076      6836.7949      10112.159    
    292400   295.76641     -3247.4224     -3264.5115      17.089172      6497.6124      10112.159    
    292500   306.03675     -3247.4449     -3265.1275      17.682584      6217.6544      10112.159    
    292600   303.71773     -3246.2194     -3263.768       17.548593      6831.7333      10112.159    
    292700   305.26016     -3244.751      -3262.3887      17.637714      7210.8995      10112.159    
    292800   317.34456     -3244.7763     -3263.1122      18.335942      7104.7559      10112.159    
    292900   306.96144     -3245.7503     -3263.4863      17.736012      6969.8556      10112.159    
    293000   297.58671     -3246.5252     -3263.7196      17.194347      6633.4696      10112.159    
    293100   297.13509     -3246.8614     -3264.0296      17.168253      6733.773       10112.159    
    293200   291.1864      -3247.241      -3264.0655      16.824542      6654.5953      10112.159    
    293300   292.46728     -3247.4698     -3264.3683      16.89855       6676.5883      10112.159    
    293400   310.56453     -3246.549      -3264.4932      17.944197      6768.9155      10112.159    
    293500   293.38305     -3245.8572     -3262.8087      16.951463      6969.3093      10112.159    
    293600   321.78045     -3245.0185     -3263.6107      18.592244      6874.1993      10112.159    
    293700   297.06315     -3245.4287     -3262.5927      17.164096      7189.6316      10112.159    
    293800   285.88544     -3247.4036     -3263.9219      16.518256      6647.2083      10112.159    
    293900   295.11706     -3247.673      -3264.7246      17.051653      6617.9535      10112.159    
    294000   297.2624      -3246.8572     -3264.0328      17.175609      6663.4584      10112.159    
    294100   311.52283     -3245.7222     -3263.7218      17.999566      6838.3052      10112.159    
    294200   294.16756     -3245.8024     -3262.7992      16.996791      7201.3587      10112.159    
    294300   295.93586     -3246.2395     -3263.3384      17.098962      6789.2651      10112.159    
    294400   286.27086     -3248.2279     -3264.7684      16.540526      6738.3908      10112.159    
    294500   287.86221     -3248.4801     -3265.1126      16.632473      6345.0663      10112.159    
    294600   289.04464     -3247.5115     -3264.2123      16.700793      6610.4614      10112.159    
    294700   308.12975     -3246.2606     -3264.0641      17.803517      6762.4662      10112.159    
    294800   288.70345     -3246.2382     -3262.9193      16.681079      7182.1774      10112.159    
    294900   314.72177     -3245.9496     -3264.134       18.184399      6702.7872      10112.159    
    295000   308.34905     -3246.4917     -3264.3079      17.816187      6864.9631      10112.159    
    295100   275.40724     -3247.9498     -3263.8627      15.912834      6692.945       10112.159    
    295200   301.06743     -3247.7005     -3265.096       17.395461      6636.6893      10112.159    
    295300   292.29774     -3246.6382     -3263.5269      16.888754      6766.486       10112.159    
    295400   316.30409     -3245.1664     -3263.4422      18.275824      6866.5293      10112.159    
    295500   301.49194     -3245.5061     -3262.9261      17.419989      7185.719       10112.159    
    295600   280.95968     -3246.6166     -3262.8502      16.233649      7063.4213      10112.159    
    295700   297.77877     -3247.0477     -3264.2532      17.205444      6758.1329      10112.159    
    295800   303.08321     -3246.9357     -3264.4476      17.511931      6506.714       10112.159    
    295900   295.161       -3245.697      -3262.7512      17.054191      7592.2215      10112.159    
    296000   319.58247     -3244.5988     -3263.064       18.465247      7135.6297      10112.159    
    296100   311.46697     -3245.2591     -3263.2554      17.996339      7201.3503      10112.159    
    296200   295.56353     -3246.5513     -3263.6287      17.077449      6739.5091      10112.159    
    296300   299.83571     -3247.2441     -3264.5684      17.324293      6547.099       10112.159    
    296400   287.72193     -3247.1632     -3263.7876      16.624367      6537.2757      10112.159    
    296500   306.3778      -3246.558      -3264.2603      17.70229       6625.581       10112.159    
    296600   296.93536     -3246.2616     -3263.4183      17.156713      6869.8486      10112.159    
    296700   297.66114     -3245.5508     -3262.7495      17.198648      7117.8365      10112.159    
    296800   318.279       -3244.0829     -3262.4729      18.389933      7424.0155      10112.159    
    296900   339.17839     -3244.1294     -3263.7269      19.597485      7089.9011      10112.159    
    297000   299.16404     -3245.9399     -3263.2254      17.285484      7010.8804      10112.159    
    297100   293.47154     -3246.7896     -3263.7461      16.956576      6785.3748      10112.159    
    297200   308.13151     -3246.9027     -3264.7063      17.803619      6469.6125      10112.159    
    297300   293.37901     -3246.8227     -3263.7739      16.951229      6720.9951      10112.159    
    297400   305.19569     -3245.918      -3263.552       17.633989      6841.5805      10112.159    
    297500   307.28163     -3244.737      -3262.4915      17.754513      7455.0514      10112.159    
    297600   324.89359     -3244.8221     -3263.5942      18.77212       7244.9403      10112.159    
    297700   299.69851     -3246.4857     -3263.802       17.316366      6681.1573      10112.159    
    297800   295.57722     -3246.8969     -3263.9752      17.07824       6714.8023      10112.159    
    297900   289.01713     -3246.868      -3263.5672      16.699203      7062.5597      10112.159    
    298000   293.30076     -3246.2293     -3263.176       16.946708      7084.7237      10112.159    
    298100   331.61049     -3244.7231     -3263.8834      19.160217      7031.7975      10112.159    
    298200   316.11671     -3244.8554     -3263.1204      18.264997      7133.8888      10112.159    
    298300   298.08831     -3246.0663     -3263.2896      17.22333       7109.504       10112.159    
    298400   296.71424     -3246.5512     -3263.6952      17.143936      6898.6644      10112.159    
    298500   293.05025     -3246.7728     -3263.705       16.932234      6907.1077      10112.159    
    298600   303.35991     -3246.4791     -3264.007       17.527919      7038.2294      10112.159    
    298700   308.28473     -3245.4046     -3263.217       17.812471      7009.3021      10112.159    
    298800   313.89778     -3244.5818     -3262.7185      18.136789      7365.0993      10112.159    
    298900   295.65607     -3245.5566     -3262.6394      17.082796      7122.8804      10112.159    
    299000   291.20165     -3247.4546     -3264.28        16.825423      6507.1091      10112.159    
    299100   286.69067     -3247.618      -3264.1828      16.564782      6525.4475      10112.159    
    299200   306.44268     -3246.5653     -3264.2713      17.706039      6831.5841      10112.159    
    299300   292.05106     -3245.96       -3262.8345      16.874502      7143.1393      10112.159    
    299400   319.65984     -3245.4254     -3263.8951      18.469717      6990.7408      10112.159    
    299500   279.36054     -3246.7268     -3262.8681      16.141252      7079.4675      10112.159    
    299600   296.76567     -3247.9814     -3265.1283      17.146908      6455.9576      10112.159    
    299700   285.46106     -3248.0824     -3264.5762      16.493736      6528.2872      10112.159    
    299800   308.9173      -3247.1143     -3264.9633      17.84902       6523.5673      10112.159    
    299900   276.76507     -3246.7867     -3262.778       15.991288      6872.8641      10112.159    
    300000   305.64326     -3245.8353     -3263.4952      17.659849      7075.8251      10112.159    
Loop time of 2262.1 on 20 procs for 300000 steps with 448 atoms

Performance: 11.458 ns/day, 2.095 hours/ns, 132.620 timesteps/s, 59.414 katom-step/s
99.9% CPU use with 20 MPI tasks x 1 OpenMP threads

MPI task timing breakdown:
Section |  min time  |  avg time  |  max time  |%varavg| %total
---------------------------------------------------------------
Pair    | 1751.1     | 2001.1     | 2166.4     | 411.8 | 88.46
Neigh   | 20.281     | 28.476     | 35.292     | 121.8 |  1.26
Comm    | 57.227     | 229.33     | 487.6      |1259.4 | 10.14
Output  | 0.36348    | 0.5901     | 0.65518    |   7.8 |  0.03
Modify  | 2.054      | 2.2853     | 2.558      |   8.4 |  0.10
Other   |            | 0.2864     |            |       |  0.01

Nlocal:           22.4 ave          24 max          17 min
Histogram: 1 1 1 0 2 1 0 1 1 12
Nghost:          496.4 ave         523 max         466 min
Histogram: 4 0 0 6 2 0 0 0 1 7
Neighs:              0 ave           0 max           0 min
Histogram: 20 0 0 0 0 0 0 0 0 0
FullNghs:       1274.9 ave        1375 max         970 min
Histogram: 1 1 1 0 2 1 0 1 1 12

Total # of neighbors = 25498
Ave neighs/atom = 56.915179
Neighbor list builds = 300000
Dangerous builds not checked
Total wall time: 0:37:42
