(written by ASE)

12 atoms
2 atom types

0.0      5.1364755065543157  xlo xhi
0.0      5.1934133375444702  ylo yhi
0.0      5.2461598045212767  zlo zhi
                      0    -0.88344296827430302                       0  xy xz yz

Masses

     1      178.48999995408445 # Hf
     2      15.998999995884349 # O

Atoms # atomic

     1   1     0.79296805999999997      2.3789195900000002      3.7137930099999998
     2   1      3.0183409399999999      4.9756267799999998      4.1554425899999998
     3   1      3.4600634499999998              2.81449477      1.5323642200000001
     4   1      1.2346900599999999              0.21778759              1.09071465
     5   2      1.4366105600000001      3.8562449399999998      5.1337742300000002
     6   2              2.37469844              1.25953776      2.7354618799999999
     7   2      2.8164204399999999      1.3371694199999999                0.112383
     8   2              1.87833256              3.93387661      2.5106953600000002
     9   2    0.045238479999999998              1.71776788      1.8164965900000001
    10   2      4.6495150299999999      4.3144750600000004     0.80658229000000004
    11   2      4.2077925199999999      3.4756464899999999      3.4296606500000002
    12   2    -0.39648402999999999     0.87893931000000003      4.4395749499999999
