LAMMPS (27 Jun 2024)
OMP_NUM_THREADS environment is not set. Defaulting to 1 thread. (src/comm.cpp:98)
  using 1 OpenMP thread(s) per MPI task
fitpod ../../files/sample_6body_hfo2_param.pod data.pod
**************** Begin of POD Potentials ****************
species: Hf O 
periodic boundary conditions: 1 1 1
number of environment clusters: 1
number of principal compoments: 1
inner cut-off radius: 1
outer cut-off radius: 5.5
cut-off function type: 1
gaussian_exponents: 
polynomial_degrees: 
bessel polynomial degree: 4
inverse polynomial degree: 8
one-body potential: 1
two-body radial basis functions: 8
three-body radial basis functions: 6
three-body angular degree: 4
four-body radial basis functions: 4
four-body angular degree: 2
five-body radial basis functions: 4
five-body angular degree: 2
six-body radial basis functions: 3
six-body angular degree: 2
seven-body radial basis functions: 0
seven-body angular degree: 0
number of local descriptors per element for one-body potential: 1
number of local descriptors per element for two-body potential: 16
number of local descriptors per element for three-body potential: 90
number of local descriptors per element for four-body potential: 64
number of local descriptors per element for five-body potential: 192
number of local descriptors per element for six-body potential: 198
number of local descriptors per element for seven-body potential: 0
number of local descriptors per element for all potentials: 561
number of global descriptors: 1122
**************** End of POD Potentials ****************

**************** Begin of Data File ****************
file format: extxyz
file extension: xyz
path to training data set: ../../files/small_lammps_compat_subset
path to test data set: 
path to environment configuration set: 
basename for output files: ref_very_small_lammps_compat_HfO2
training fraction: 1
test fraction: 1
randomize training data set: 0
randomize test data set: 0
error analysis for training data set: 1
error analysis for test data set: 0
energy/force calculation for training data set: 0
energy/force calculation for test data set: 0
fitting weight for energy: 100
fitting weight for force: 2
fitting weight for stress: 0
group_weights: global
save pod descriptors: 0
compute pod descriptors: 0
**************** End of Data File ****************
**************** Begin of Training Data Set ****************
----------------------------------------------------------------------------------------------------
                       data file                        | number of configurations | number of atoms
----------------------------------------------------------------------------------------------------
 Hf2_mp103_EOS_1D_form_sorted.xyz                       |                93        |         186
 HfO2_mp352_EOS_1D_form_sorted.xyz                      |               200        |        2400
 HfO2_mp550893_EOS_1D_form_sorted.xyz                   |               129        |         387
 Hf_mp100_primitive_EOS_1D_form_sorted.xyz              |                67        |          67
 below_5p5cutoff_Hf2_gas_form_extrapolated.xyz          |               339        |         678
 below_5p5cutoff_HfO_gas_form_extrapolated.xyz          |               337        |         674
 below_5p5cutoff_O2_gas_form_extrapolated.xyz           |               344        |         688
 small_Hf128_MC_rattled_mp100_form_sorted.xyz           |               204        |       26112
 small_Hf128_MC_rattled_mp103_form_sorted.xyz           |                35        |        4480
 small_Hf128_MC_rattled_random_form_sorted.xyz          |               244        |       31232
 small_HfO2_MC_rattled_random_form_sorted_selected.xyz  |               261        |       25056
 small_HfOx_amorphous_SQS_MC_rattled_form_sorted.xyz    |               466        |       44637
 small_Hf_MC_rattled_mp100_form_sorted.xyz              |               175        |       22400
 small_Hf_MC_rattled_mp103_form_sorted.xyz              |               160        |       20480
 small_Hf_Ox_hcp_octa_tetra_MC_rattled_form_sorted.xyz  |               124        |       12404
 small_Hf_Ox_hcp_octahedral_MC_rattled_form_sorted.xyz  |               542        |       67234
 small_Hf_Ox_hcp_tetrahedral_MC_rattled_form_sorted.xyz |               244        |       19460
----------------------------------------------------------------------------------------------------
number of files: 17
number of configurations in all files: 3964
number of atoms in all files: 278575
minimum number of atoms: 1
maximum number of atoms: 188
**************** End of Training Data Set ****************
**************** Begin of Memory Allocation ****************
maximum number of atoms in periodic domain: 188
maximum number of atoms in extended domain: 5076
maximum number of neighbors in extended domain: 954288
size of double memory: 41199840
size of descriptor matrix: 1122 x 1122
**************** End of Memory Allocation ****************
**************** Begin of Least-Squares Fitting ****************
Configuration: # 1
Configuration: # 101
Configuration: # 201
reallocate temporary memory with Njmax = %d ...
reallocate temporary memory with Njmax = %d ...
reallocate temporary memory with Njmax = %d ...
reallocate temporary memory with Njmax = %d ...
reallocate temporary memory with Njmax = %d ...
reallocate temporary memory with Njmax = %d ...
reallocate temporary memory with Njmax = %d ...
reallocate temporary memory with Njmax = %d ...
reallocate temporary memory with Njmax = %d ...
reallocate temporary memory with Njmax = %d ...
reallocate temporary memory with Njmax = %d ...
reallocate temporary memory with Njmax = %d ...
Configuration: # 301
Configuration: # 401
Configuration: # 501
Configuration: # 601
Configuration: # 701
Configuration: # 801
Configuration: # 901
Configuration: # 1001
Configuration: # 1101
Configuration: # 1201
Configuration: # 1301
Configuration: # 1401
Configuration: # 1501
Configuration: # 1601
Configuration: # 1701
Configuration: # 1801
Configuration: # 1901
Configuration: # 2001
Configuration: # 2101
Configuration: # 2201
Configuration: # 2301
Configuration: # 2401
Configuration: # 2501
Configuration: # 2601
Configuration: # 2701
Configuration: # 2801
Configuration: # 2901
Configuration: # 3001
Configuration: # 3101
Configuration: # 3201
Configuration: # 3301
Configuration: # 3401
Configuration: # 3501
Configuration: # 3601
Configuration: # 3701
Configuration: # 3801
Configuration: # 3901
**************** Begin of Error Calculation ****************
Configuration: # 1
Configuration: # 101
Configuration: # 201
Configuration: # 301
Configuration: # 401
Configuration: # 501
Configuration: # 601
Configuration: # 701
Configuration: # 801
Configuration: # 901
Configuration: # 1001
Configuration: # 1101
Configuration: # 1201
Configuration: # 1301
Configuration: # 1401
Configuration: # 1501
Configuration: # 1601
Configuration: # 1701
Configuration: # 1801
Configuration: # 1901
Configuration: # 2001
Configuration: # 2101
Configuration: # 2201
Configuration: # 2301
Configuration: # 2401
Configuration: # 2501
Configuration: # 2601
Configuration: # 2701
Configuration: # 2801
Configuration: # 2901
Configuration: # 3001
Configuration: # 3101
Configuration: # 3201
Configuration: # 3301
Configuration: # 3401
Configuration: # 3501
Configuration: # 3601
Configuration: # 3701
Configuration: # 3801
Configuration: # 3901
**************** End of Error Calculation ****************
**************** Begin of Error Analysis for the Training Data Set ****************
----------------------------------------------------------------------------------------------------------------------------------------
                           File                           | # configs |  # atoms  | MAE energy  | RMSE energy | MAE force  | RMSE force
----------------------------------------------------------------------------------------------------------------------------------------
Hf2_mp103_EOS_1D_form_sorted.xyz                                 93         186     0.209286      0.331318      0.000004      0.000006  
HfO2_mp352_EOS_1D_form_sorted.xyz                               200        2400     0.049621      0.062790      0.729969      2.394265  
HfO2_mp550893_EOS_1D_form_sorted.xyz                            129         387     0.125859      0.193967      0.000009      0.000048  
Hf_mp100_primitive_EOS_1D_form_sorted.xyz                        67          67     0.167963      0.248165      0.000000      0.000000  
below_5p5cutoff_Hf2_gas_form_extrapolated.xyz                   339         678     0.061926      0.071330      0.133123      0.410727  
below_5p5cutoff_HfO_gas_form_extrapolated.xyz                   337         674     0.040864      0.055465      0.158183      1.523976  
below_5p5cutoff_O2_gas_form_extrapolated.xyz                    344         688     0.224817      0.353737      1.170506      8.541436  
small_Hf128_MC_rattled_mp100_form_sorted.xyz                    204       26112     0.013291      0.015004      0.164967      0.215382  
small_Hf128_MC_rattled_mp103_form_sorted.xyz                     35        4480     0.016956      0.017585      0.212142      0.267063  
small_Hf128_MC_rattled_random_form_sorted.xyz                   244       31232     0.010852      0.013784      0.475628      0.658092  
small_HfO2_MC_rattled_random_form_sorted_selected.xyz           261       25056     0.027673      0.035359      1.122758      2.398708  
small_HfOx_amorphous_SQS_MC_rattled_form_sorted.xyz             466       44637     0.025131      0.031765      0.825489      3.589424  
small_Hf_MC_rattled_mp100_form_sorted.xyz                       175       22400     0.010272      0.012419      0.252627      0.326457  
small_Hf_MC_rattled_mp103_form_sorted.xyz                       160       20480     0.012953      0.014811      0.242995      0.310344  
small_Hf_Ox_hcp_octa_tetra_MC_rattled_form_sorted.xyz           124       12404     0.017639      0.022922      0.556490      0.804723  
small_Hf_Ox_hcp_octahedral_MC_rattled_form_sorted.xyz           542       67234     0.010168      0.012620      0.326116      0.426714  
small_Hf_Ox_hcp_tetrahedral_MC_rattled_form_sorted.xyz          244       19460     0.018863      0.026662      0.328769      0.447797  
----------------------------------------------------------------------------------------------------------------------------------------
All files                                                      3964      278575     0.052986      0.130076      0.479972      1.724541  
----------------------------------------------------------------------------------------------------------------------------------------
**************** End of Error Analysis for the Training Data Set ****************
Total wall time: 0:06:27
