LAMMPS DATA file

1536 atoms

1 atom types

0.0000000000000000e+00  2.1105598636581512e+01 xlo xhi
0.0000000000000000e+00  2.1105598636581512e+01 ylo yhi
0.0000000000000000e+00  1.2663359181948998e+02 zlo zhi

Masses

1 39.948

Atoms

    1 1    1.3190999999999999    1.3190999999999999    1.3194999999999999
    2 1    3.9572998295726887    3.9572998295726887    1.3194999999999999
    3 1    3.9572998295726887    1.3190999999999999    3.9576998295726966
    4 1    1.3190999999999999    3.9572998295726887    3.9576998295726966
    5 1    6.5954996591453767    1.3190999999999999    1.3194999999999999
    6 1    9.2336994887180488    3.9572998295726887    1.3194999999999999
    7 1    9.2336994887180488    1.3190999999999999    3.9576998295726966
    8 1    6.5954996591453767    3.9572998295726887    3.9576998295726966
    9 1   11.8718993182907564    1.3190999999999999    1.3194999999999999
   10 1   14.5100991478634356    3.9572998295726887    1.3194999999999999
   11 1   14.5100991478634356    1.3190999999999999    3.9576998295726966
   12 1   11.8718993182907564    3.9572998295726887    3.9576998295726966
   13 1   17.1482989774361165    1.3190999999999999    1.3194999999999999
   14 1   19.7864988070088366    3.9572998295726887    1.3194999999999999
   15 1   19.7864988070088366    1.3190999999999999    3.9576998295726966
   16 1   17.1482989774361165    3.9572998295726887    3.9576998295726966
   17 1    1.3190999999999999    6.5954996591453767    1.3194999999999999
   18 1    3.9572998295726887    9.2336994887180488    1.3194999999999999
   19 1    3.9572998295726887    6.5954996591453767    3.9576998295726966
   20 1    1.3190999999999999    9.2336994887180488    3.9576998295726966
   21 1    6.5954996591453767    6.5954996591453767    1.3194999999999999
   22 1    9.2336994887180488    9.2336994887180488    1.3194999999999999
   23 1    9.2336994887180488    6.5954996591453767    3.9576998295726966
   24 1    6.5954996591453767    9.2336994887180488    3.9576998295726966
   25 1   11.8718993182907564    6.5954996591453767    1.3194999999999999
   26 1   14.5100991478634356    9.2336994887180488    1.3194999999999999
   27 1   14.5100991478634356    6.5954996591453767    3.9576998295726966
   28 1   11.8718993182907564    9.2336994887180488    3.9576998295726966
   29 1   17.1482989774361165    6.5954996591453767    1.3194999999999999
   30 1   19.7864988070088366    9.2336994887180488    1.3194999999999999
   31 1   19.7864988070088366    6.5954996591453767    3.9576998295726966
   32 1   17.1482989774361165    9.2336994887180488    3.9576998295726966
   33 1    1.3190999999999999    1.3190999999999999    6.5958996591454282
   34 1    3.9572998295726887    3.9572998295726887    6.5958996591454282
   35 1    3.9572998295726887    1.3190999999999999    9.2340994887180816
   36 1    1.3190999999999999    3.9572998295726887    9.2340994887180816
   37 1    6.5954996591453767    1.3190999999999999    6.5958996591454282
   38 1    9.2336994887180488    3.9572998295726887    6.5958996591454282
   39 1    9.2336994887180488    1.3190999999999999    9.2340994887180816
   40 1    6.5954996591453767    3.9572998295726887    9.2340994887180816
   41 1   11.8718993182907564    1.3190999999999999    6.5958996591454282
   42 1   14.5100991478634356    3.9572998295726887    6.5958996591454282
   43 1   14.5100991478634356    1.3190999999999999    9.2340994887180816
   44 1   11.8718993182907564    3.9572998295726887    9.2340994887180816
   45 1   17.1482989774361165    1.3190999999999999    6.5958996591454282
   46 1   19.7864988070088366    3.9572998295726887    6.5958996591454282
   47 1   19.7864988070088366    1.3190999999999999    9.2340994887180816
   48 1   17.1482989774361165    3.9572998295726887    9.2340994887180816
   49 1    1.3190999999999999    6.5954996591453767    6.5958996591454282
   50 1    3.9572998295726887    9.2336994887180488    6.5958996591454282
   51 1    3.9572998295726887    6.5954996591453767    9.2340994887180816
   52 1    1.3190999999999999    9.2336994887180488    9.2340994887180816
   53 1    6.5954996591453767    6.5954996591453767    6.5958996591454282
   54 1    9.2336994887180488    9.2336994887180488    6.5958996591454282
   55 1    9.2336994887180488    6.5954996591453767    9.2340994887180816
   56 1    6.5954996591453767    9.2336994887180488    9.2340994887180816
   57 1   11.8718993182907564    6.5954996591453767    6.5958996591454282
   58 1   14.5100991478634356    9.2336994887180488    6.5958996591454282
   59 1   14.5100991478634356    6.5954996591453767    9.2340994887180816
   60 1   11.8718993182907564    9.2336994887180488    9.2340994887180816
   61 1   17.1482989774361165    6.5954996591453767    6.5958996591454282
   62 1   19.7864988070088366    9.2336994887180488    6.5958996591454282
   63 1   19.7864988070088366    6.5954996591453767    9.2340994887180816
   64 1   17.1482989774361165    9.2336994887180488    9.2340994887180816
   65 1    1.3190999999999999    1.3190999999999999   11.8722993182908567
   66 1    3.9572998295726887    3.9572998295726887   11.8722993182908567
   67 1    6.5954996591453767    1.3190999999999999   11.8722993182908567
   68 1    9.2336994887180488    3.9572998295726887   11.8722993182908567
   69 1   11.8718993182907564    1.3190999999999999   11.8722993182908567
   70 1   14.5100991478634356    3.9572998295726887   11.8722993182908567
   71 1   17.1482989774361165    1.3190999999999999   11.8722993182908567
   72 1   19.7864988070088366    3.9572998295726887   11.8722993182908567
   73 1    1.3190999999999999    6.5954996591453767   11.8722993182908567
   74 1    3.9572998295726887    9.2336994887180488   11.8722993182908567
   75 1    6.5954996591453767    6.5954996591453767   11.8722993182908567
   76 1    9.2336994887180488    9.2336994887180488   11.8722993182908567
   77 1   11.8718993182907564    6.5954996591453767   11.8722993182908567
   78 1   14.5100991478634356    9.2336994887180488   11.8722993182908567
   79 1   17.1482989774361165    6.5954996591453767   11.8722993182908567
   80 1   19.7864988070088366    9.2336994887180488   11.8722993182908567
   81 1    3.9572998295726887    1.3190999999999999   14.5104991478635554
   82 1    1.3190999999999999    3.9572998295726887   14.5104991478635554
   83 1    9.2336994887180488    1.3190999999999999   14.5104991478635554
   84 1    6.5954996591453767    3.9572998295726887   14.5104991478635554
   85 1   14.5100991478634356    1.3190999999999999   14.5104991478635554
   86 1   11.8718993182907564    3.9572998295726887   14.5104991478635554
   87 1   19.7864988070088366    1.3190999999999999   14.5104991478635554
   88 1   17.1482989774361165    3.9572998295726887   14.5104991478635554
   89 1    3.9572998295726887    6.5954996591453767   14.5104991478635554
   90 1    1.3190999999999999    9.2336994887180488   14.5104991478635554
   91 1    9.2336994887180488    6.5954996591453767   14.5104991478635554
   92 1    6.5954996591453767    9.2336994887180488   14.5104991478635554
   93 1   14.5100991478634356    6.5954996591453767   14.5104991478635554
   94 1   11.8718993182907564    9.2336994887180488   14.5104991478635554
   95 1   19.7864988070088366    6.5954996591453767   14.5104991478635554
   96 1   17.1482989774361165    9.2336994887180488   14.5104991478635554
   97 1    1.3190999999999999    1.3190999999999999   17.1486989774362755
   98 1    3.9572998295726887    3.9572998295726887   17.1486989774362755
   99 1    3.9572998295726887    1.3190999999999999   19.7868988070090168
  100 1    1.3190999999999999    3.9572998295726887   19.7868988070090168
  101 1    6.5954996591453767    1.3190999999999999   17.1486989774362755
  102 1    9.2336994887180488    3.9572998295726887   17.1486989774362755
  103 1    9.2336994887180488    1.3190999999999999   19.7868988070090168
  104 1    6.5954996591453767    3.9572998295726887   19.7868988070090168
  105 1   11.8718993182907564    1.3190999999999999   17.1486989774362755
  106 1   14.5100991478634356    3.9572998295726887   17.1486989774362755
  107 1   14.5100991478634356    1.3190999999999999   19.7868988070090168
  108 1   11.8718993182907564    3.9572998295726887   19.7868988070090168
  109 1   17.1482989774361165    1.3190999999999999   17.1486989774362755
  110 1   19.7864988070088366    3.9572998295726887   17.1486989774362755
  111 1   19.7864988070088366    1.3190999999999999   19.7868988070090168
  112 1   17.1482989774361165    3.9572998295726887   19.7868988070090168
  113 1    1.3190999999999999    6.5954996591453767   17.1486989774362755
  114 1    3.9572998295726887    9.2336994887180488   17.1486989774362755
  115 1    3.9572998295726887    6.5954996591453767   19.7868988070090168
  116 1    1.3190999999999999    9.2336994887180488   19.7868988070090168
  117 1    6.5954996591453767    6.5954996591453767   17.1486989774362755
  118 1    9.2336994887180488    9.2336994887180488   17.1486989774362755
  119 1    9.2336994887180488    6.5954996591453767   19.7868988070090168
  120 1    6.5954996591453767    9.2336994887180488   19.7868988070090168
  121 1   11.8718993182907564    6.5954996591453767   17.1486989774362755
  122 1   14.5100991478634356    9.2336994887180488   17.1486989774362755
  123 1   14.5100991478634356    6.5954996591453767   19.7868988070090168
  124 1   11.8718993182907564    9.2336994887180488   19.7868988070090168
  125 1   17.1482989774361165    6.5954996591453767   17.1486989774362755
  126 1   19.7864988070088366    9.2336994887180488   17.1486989774362755
  127 1   19.7864988070088366    6.5954996591453767   19.7868988070090168
  128 1   17.1482989774361165    9.2336994887180488   19.7868988070090168
  129 1    1.3190999999999999    1.3190999999999999   22.4250986365817155
  130 1    3.9572998295726887    3.9572998295726887   22.4250986365817155
  131 1    3.9572998295726887    1.3190999999999999   25.0632984661544569
  132 1    1.3190999999999999    3.9572998295726887   25.0632984661544569
  133 1    6.5954996591453767    1.3190999999999999   22.4250986365817155
  134 1    9.2336994887180488    3.9572998295726887   22.4250986365817155
  135 1    9.2336994887180488    1.3190999999999999   25.0632984661544569
  136 1    6.5954996591453767    3.9572998295726887   25.0632984661544569
  137 1   11.8718993182907564    1.3190999999999999   22.4250986365817155
  138 1   14.5100991478634356    3.9572998295726887   22.4250986365817155
  139 1   14.5100991478634356    1.3190999999999999   25.0632984661544569
  140 1   11.8718993182907564    3.9572998295726887   25.0632984661544569
  141 1   17.1482989774361165    1.3190999999999999   22.4250986365817155
  142 1   19.7864988070088366    3.9572998295726887   22.4250986365817155
  143 1   19.7864988070088366    1.3190999999999999   25.0632984661544569
  144 1   17.1482989774361165    3.9572998295726887   25.0632984661544569
  145 1    1.3190999999999999    6.5954996591453767   22.4250986365817155
  146 1    3.9572998295726887    9.2336994887180488   22.4250986365817155
  147 1    3.9572998295726887    6.5954996591453767   25.0632984661544569
  148 1    1.3190999999999999    9.2336994887180488   25.0632984661544569
  149 1    6.5954996591453767    6.5954996591453767   22.4250986365817155
  150 1    9.2336994887180488    9.2336994887180488   22.4250986365817155
  151 1    9.2336994887180488    6.5954996591453767   25.0632984661544569
  152 1    6.5954996591453767    9.2336994887180488   25.0632984661544569
  153 1   11.8718993182907564    6.5954996591453767   22.4250986365817155
  154 1   14.5100991478634356    9.2336994887180488   22.4250986365817155
  155 1   14.5100991478634356    6.5954996591453767   25.0632984661544569
  156 1   11.8718993182907564    9.2336994887180488   25.0632984661544569
  157 1   17.1482989774361165    6.5954996591453767   22.4250986365817155
  158 1   19.7864988070088366    9.2336994887180488   22.4250986365817155
  159 1   19.7864988070088366    6.5954996591453767   25.0632984661544569
  160 1   17.1482989774361165    9.2336994887180488   25.0632984661544569
  161 1    1.3190999999999999    1.3190999999999999   27.7014982957271165
  162 1    3.9572998295726887    3.9572998295726887   27.7014982957271165
  163 1    3.9572998295726887    1.3190999999999999   30.3396981252998650
  164 1    1.3190999999999999    3.9572998295726887   30.3396981252998650
  165 1    6.5954996591453767    1.3190999999999999   27.7014982957271165
  166 1    9.2336994887180488    3.9572998295726887   27.7014982957271165
  167 1    9.2336994887180488    1.3190999999999999   30.3396981252998650
  168 1    6.5954996591453767    3.9572998295726887   30.3396981252998650
  169 1   11.8718993182907564    1.3190999999999999   27.7014982957271165
  170 1   14.5100991478634356    3.9572998295726887   27.7014982957271165
  171 1   14.5100991478634356    1.3190999999999999   30.3396981252998650
  172 1   11.8718993182907564    3.9572998295726887   30.3396981252998650
  173 1   17.1482989774361165    1.3190999999999999   27.7014982957271165
  174 1   19.7864988070088366    3.9572998295726887   27.7014982957271165
  175 1   19.7864988070088366    1.3190999999999999   30.3396981252998650
  176 1   17.1482989774361165    3.9572998295726887   30.3396981252998650
  177 1    1.3190999999999999    6.5954996591453767   27.7014982957271165
  178 1    3.9572998295726887    9.2336994887180488   27.7014982957271165
  179 1    3.9572998295726887    6.5954996591453767   30.3396981252998650
  180 1    1.3190999999999999    9.2336994887180488   30.3396981252998650
  181 1    6.5954996591453767    6.5954996591453767   27.7014982957271165
  182 1    9.2336994887180488    9.2336994887180488   27.7014982957271165
  183 1    9.2336994887180488    6.5954996591453767   30.3396981252998650
  184 1    6.5954996591453767    9.2336994887180488   30.3396981252998650
  185 1   11.8718993182907564    6.5954996591453767   27.7014982957271165
  186 1   14.5100991478634356    9.2336994887180488   27.7014982957271165
  187 1   14.5100991478634356    6.5954996591453767   30.3396981252998650
  188 1   11.8718993182907564    9.2336994887180488   30.3396981252998650
  189 1   17.1482989774361165    6.5954996591453767   27.7014982957271165
  190 1   19.7864988070088366    9.2336994887180488   27.7014982957271165
  191 1   19.7864988070088366    6.5954996591453767   30.3396981252998650
  192 1   17.1482989774361165    9.2336994887180488   30.3396981252998650
  193 1    1.3190999999999999    1.3190999999999999   32.9778979548725317
  194 1    3.9572998295726887    3.9572998295726887   32.9778979548725317
  195 1    3.9572998295726887    1.3190999999999999   35.6160977844452447
  196 1    1.3190999999999999    3.9572998295726887   35.6160977844452447
  197 1    6.5954996591453767    1.3190999999999999   32.9778979548725317
  198 1    9.2336994887180488    3.9572998295726887   32.9778979548725317
  199 1    9.2336994887180488    1.3190999999999999   35.6160977844452447
  200 1    6.5954996591453767    3.9572998295726887   35.6160977844452447
  201 1   11.8718993182907564    1.3190999999999999   32.9778979548725317
  202 1   14.5100991478634356    3.9572998295726887   32.9778979548725317
  203 1   14.5100991478634356    1.3190999999999999   35.6160977844452447
  204 1   11.8718993182907564    3.9572998295726887   35.6160977844452447
  205 1   17.1482989774361165    1.3190999999999999   32.9778979548725317
  206 1   19.7864988070088366    3.9572998295726887   32.9778979548725317
  207 1   19.7864988070088366    1.3190999999999999   35.6160977844452447
  208 1   17.1482989774361165    3.9572998295726887   35.6160977844452447
  209 1    1.3190999999999999    6.5954996591453767   32.9778979548725317
  210 1    3.9572998295726887    9.2336994887180488   32.9778979548725317
  211 1    3.9572998295726887    6.5954996591453767   35.6160977844452447
  212 1    1.3190999999999999    9.2336994887180488   35.6160977844452447
  213 1    6.5954996591453767    6.5954996591453767   32.9778979548725317
  214 1    9.2336994887180488    9.2336994887180488   32.9778979548725317
  215 1    9.2336994887180488    6.5954996591453767   35.6160977844452447
  216 1    6.5954996591453767    9.2336994887180488   35.6160977844452447
  217 1   11.8718993182907564    6.5954996591453767   32.9778979548725317
  218 1   14.5100991478634356    9.2336994887180488   32.9778979548725317
  219 1   14.5100991478634356    6.5954996591453767   35.6160977844452447
  220 1   11.8718993182907564    9.2336994887180488   35.6160977844452447
  221 1   17.1482989774361165    6.5954996591453767   32.9778979548725317
  222 1   19.7864988070088366    9.2336994887180488   32.9778979548725317
  223 1   19.7864988070088366    6.5954996591453767   35.6160977844452447
  224 1   17.1482989774361165    9.2336994887180488   35.6160977844452447
  225 1    1.3190999999999999    1.3190999999999999   38.2542976140180215
  226 1    3.9572998295726887    3.9572998295726887   38.2542976140180215
  227 1    6.5954996591453767    1.3190999999999999   38.2542976140180215
  228 1    9.2336994887180488    3.9572998295726887   38.2542976140180215
  229 1   11.8718993182907564    1.3190999999999999   38.2542976140180215
  230 1   14.5100991478634356    3.9572998295726887   38.2542976140180215
  231 1   17.1482989774361165    1.3190999999999999   38.2542976140180215
  232 1   19.7864988070088366    3.9572998295726887   38.2542976140180215
  233 1    1.3190999999999999    6.5954996591453767   38.2542976140180215
  234 1    3.9572998295726887    9.2336994887180488   38.2542976140180215
  235 1    6.5954996591453767    6.5954996591453767   38.2542976140180215
  236 1    9.2336994887180488    9.2336994887180488   38.2542976140180215
  237 1   11.8718993182907564    6.5954996591453767   38.2542976140180215
  238 1   14.5100991478634356    9.2336994887180488   38.2542976140180215
  239 1   17.1482989774361165    6.5954996591453767   38.2542976140180215
  240 1   19.7864988070088366    9.2336994887180488   38.2542976140180215
  241 1    3.9572998295726887    1.3190999999999999   40.8924974435907700
  242 1    1.3190999999999999    3.9572998295726887   40.8924974435907700
  243 1    9.2336994887180488    1.3190999999999999   40.8924974435907700
  244 1    6.5954996591453767    3.9572998295726887   40.8924974435907700
  245 1   14.5100991478634356    1.3190999999999999   40.8924974435907700
  246 1   11.8718993182907564    3.9572998295726887   40.8924974435907700
  247 1   19.7864988070088366    1.3190999999999999   40.8924974435907700
  248 1   17.1482989774361165    3.9572998295726887   40.8924974435907700
  249 1    3.9572998295726887    6.5954996591453767   40.8924974435907700
  250 1    1.3190999999999999    9.2336994887180488   40.8924974435907700
  251 1    9.2336994887180488    6.5954996591453767   40.8924974435907700
  252 1    6.5954996591453767    9.2336994887180488   40.8924974435907700
  253 1   14.5100991478634356    6.5954996591453767   40.8924974435907700
  254 1   11.8718993182907564    9.2336994887180488   40.8924974435907700
  255 1   19.7864988070088366    6.5954996591453767   40.8924974435907700
  256 1   17.1482989774361165    9.2336994887180488   40.8924974435907700
  257 1    1.3190999999999999    1.3190999999999999   43.5306972731634332
  258 1    3.9572998295726887    3.9572998295726887   43.5306972731634332
  259 1    3.9572998295726887    1.3190999999999999   46.1688971027361035
  260 1    1.3190999999999999    3.9572998295726887   46.1688971027361035
  261 1    6.5954996591453767    1.3190999999999999   43.5306972731634332
  262 1    9.2336994887180488    3.9572998295726887   43.5306972731634332
  263 1    9.2336994887180488    1.3190999999999999   46.1688971027361035
  264 1    6.5954996591453767    3.9572998295726887   46.1688971027361035
  265 1   11.8718993182907564    1.3190999999999999   43.5306972731634332
  266 1   14.5100991478634356    3.9572998295726887   43.5306972731634332
  267 1   14.5100991478634356    1.3190999999999999   46.1688971027361035
  268 1   11.8718993182907564    3.9572998295726887   46.1688971027361035
  269 1   17.1482989774361165    1.3190999999999999   43.5306972731634332
  270 1   19.7864988070088366    3.9572998295726887   43.5306972731634332
  271 1   19.7864988070088366    1.3190999999999999   46.1688971027361035
  272 1   17.1482989774361165    3.9572998295726887   46.1688971027361035
  273 1    1.3190999999999999    6.5954996591453767   43.5306972731634332
  274 1    3.9572998295726887    9.2336994887180488   43.5306972731634332
  275 1    3.9572998295726887    6.5954996591453767   46.1688971027361035
  276 1    1.3190999999999999    9.2336994887180488   46.1688971027361035
  277 1    6.5954996591453767    6.5954996591453767   43.5306972731634332
  278 1    9.2336994887180488    9.2336994887180488   43.5306972731634332
  279 1    9.2336994887180488    6.5954996591453767   46.1688971027361035
  280 1    6.5954996591453767    9.2336994887180488   46.1688971027361035
  281 1   11.8718993182907564    6.5954996591453767   43.5306972731634332
  282 1   14.5100991478634356    9.2336994887180488   43.5306972731634332
  283 1   14.5100991478634356    6.5954996591453767   46.1688971027361035
  284 1   11.8718993182907564    9.2336994887180488   46.1688971027361035
  285 1   17.1482989774361165    6.5954996591453767   43.5306972731634332
  286 1   19.7864988070088366    9.2336994887180488   43.5306972731634332
  287 1   19.7864988070088366    6.5954996591453767   46.1688971027361035
  288 1   17.1482989774361165    9.2336994887180488   46.1688971027361035
  289 1    1.3190999999999999    1.3190999999999999   48.8070969323089017
  290 1    3.9572998295726887    3.9572998295726887   48.8070969323089017
  291 1    3.9572998295726887    1.3190999999999999   51.4452967618816359
  292 1    1.3190999999999999    3.9572998295726887   51.4452967618816359
  293 1    6.5954996591453767    1.3190999999999999   48.8070969323089017
  294 1    9.2336994887180488    3.9572998295726887   48.8070969323089017
  295 1    9.2336994887180488    1.3190999999999999   51.4452967618816359
  296 1    6.5954996591453767    3.9572998295726887   51.4452967618816359
  297 1   11.8718993182907564    1.3190999999999999   48.8070969323089017
  298 1   14.5100991478634356    3.9572998295726887   48.8070969323089017
  299 1   14.5100991478634356    1.3190999999999999   51.4452967618816359
  300 1   11.8718993182907564    3.9572998295726887   51.4452967618816359
  301 1   17.1482989774361165    1.3190999999999999   48.8070969323089017
  302 1   19.7864988070088366    3.9572998295726887   48.8070969323089017
  303 1   19.7864988070088366    1.3190999999999999   51.4452967618816359
  304 1   17.1482989774361165    3.9572998295726887   51.4452967618816359
  305 1    1.3190999999999999    6.5954996591453767   48.8070969323089017
  306 1    3.9572998295726887    9.2336994887180488   48.8070969323089017
  307 1    3.9572998295726887    6.5954996591453767   51.4452967618816359
  308 1    1.3190999999999999    9.2336994887180488   51.4452967618816359
  309 1    6.5954996591453767    6.5954996591453767   48.8070969323089017
  310 1    9.2336994887180488    9.2336994887180488   48.8070969323089017
  311 1    9.2336994887180488    6.5954996591453767   51.4452967618816359
  312 1    6.5954996591453767    9.2336994887180488   51.4452967618816359
  313 1   11.8718993182907564    6.5954996591453767   48.8070969323089017
  314 1   14.5100991478634356    9.2336994887180488   48.8070969323089017
  315 1   14.5100991478634356    6.5954996591453767   51.4452967618816359
  316 1   11.8718993182907564    9.2336994887180488   51.4452967618816359
  317 1   17.1482989774361165    6.5954996591453767   48.8070969323089017
  318 1   19.7864988070088366    9.2336994887180488   48.8070969323089017
  319 1   19.7864988070088366    6.5954996591453767   51.4452967618816359
  320 1   17.1482989774361165    9.2336994887180488   51.4452967618816359
  321 1    1.3190999999999999    1.3190999999999999   54.0834965914542352
  322 1    3.9572998295726887    3.9572998295726887   54.0834965914542352
  323 1    3.9572998295726887    1.3190999999999999   56.7216964210269552
  324 1    1.3190999999999999    3.9572998295726887   56.7216964210269552
  325 1    6.5954996591453767    1.3190999999999999   54.0834965914542352
  326 1    9.2336994887180488    3.9572998295726887   54.0834965914542352
  327 1    9.2336994887180488    1.3190999999999999   56.7216964210269552
  328 1    6.5954996591453767    3.9572998295726887   56.7216964210269552
  329 1   11.8718993182907564    1.3190999999999999   54.0834965914542352
  330 1   14.5100991478634356    3.9572998295726887   54.0834965914542352
  331 1   14.5100991478634356    1.3190999999999999   56.7216964210269552
  332 1   11.8718993182907564    3.9572998295726887   56.7216964210269552
  333 1   17.1482989774361165    1.3190999999999999   54.0834965914542352
  334 1   19.7864988070088366    3.9572998295726887   54.0834965914542352
  335 1   19.7864988070088366    1.3190999999999999   56.7216964210269552
  336 1   17.1482989774361165    3.9572998295726887   56.7216964210269552
  337 1    1.3190999999999999    6.5954996591453767   54.0834965914542352
  338 1    3.9572998295726887    9.2336994887180488   54.0834965914542352
  339 1    3.9572998295726887    6.5954996591453767   56.7216964210269552
  340 1    1.3190999999999999    9.2336994887180488   56.7216964210269552
  341 1    6.5954996591453767    6.5954996591453767   54.0834965914542352
  342 1    9.2336994887180488    9.2336994887180488   54.0834965914542352
  343 1    9.2336994887180488    6.5954996591453767   56.7216964210269552
  344 1    6.5954996591453767    9.2336994887180488   56.7216964210269552
  345 1   11.8718993182907564    6.5954996591453767   54.0834965914542352
  346 1   14.5100991478634356    9.2336994887180488   54.0834965914542352
  347 1   14.5100991478634356    6.5954996591453767   56.7216964210269552
  348 1   11.8718993182907564    9.2336994887180488   56.7216964210269552
  349 1   17.1482989774361165    6.5954996591453767   54.0834965914542352
  350 1   19.7864988070088366    9.2336994887180488   54.0834965914542352
  351 1   19.7864988070088366    6.5954996591453767   56.7216964210269552
  352 1   17.1482989774361165    9.2336994887180488   56.7216964210269552
  353 1    1.3190999999999999    1.3190999999999999   59.3598962505997321
  354 1    3.9572998295726887    3.9572998295726887   59.3598962505997321
  355 1    3.9572998295726887    1.3190999999999999   61.9980960801724237
  356 1    1.3190999999999999    3.9572998295726887   61.9980960801724237
  357 1    6.5954996591453767    1.3190999999999999   59.3598962505997321
  358 1    9.2336994887180488    3.9572998295726887   59.3598962505997321
  359 1    9.2336994887180488    1.3190999999999999   61.9980960801724237
  360 1    6.5954996591453767    3.9572998295726887   61.9980960801724237
  361 1   11.8718993182907564    1.3190999999999999   59.3598962505997321
  362 1   14.5100991478634356    3.9572998295726887   59.3598962505997321
  363 1   14.5100991478634356    1.3190999999999999   61.9980960801724237
  364 1   11.8718993182907564    3.9572998295726887   61.9980960801724237
  365 1   17.1482989774361165    1.3190999999999999   59.3598962505997321
  366 1   19.7864988070088366    3.9572998295726887   59.3598962505997321
  367 1   19.7864988070088366    1.3190999999999999   61.9980960801724237
  368 1   17.1482989774361165    3.9572998295726887   61.9980960801724237
  369 1    1.3190999999999999    6.5954996591453767   59.3598962505997321
  370 1    3.9572998295726887    9.2336994887180488   59.3598962505997321
  371 1    3.9572998295726887    6.5954996591453767   61.9980960801724237
  372 1    1.3190999999999999    9.2336994887180488   61.9980960801724237
  373 1    6.5954996591453767    6.5954996591453767   59.3598962505997321
  374 1    9.2336994887180488    9.2336994887180488   59.3598962505997321
  375 1    9.2336994887180488    6.5954996591453767   61.9980960801724237
  376 1    6.5954996591453767    9.2336994887180488   61.9980960801724237
  377 1   11.8718993182907564    6.5954996591453767   59.3598962505997321
  378 1   14.5100991478634356    9.2336994887180488   59.3598962505997321
  379 1   14.5100991478634356    6.5954996591453767   61.9980960801724237
  380 1   11.8718993182907564    9.2336994887180488   61.9980960801724237
  381 1   17.1482989774361165    6.5954996591453767   59.3598962505997321
  382 1   19.7864988070088366    9.2336994887180488   59.3598962505997321
  383 1   19.7864988070088366    6.5954996591453767   61.9980960801724237
  384 1   17.1482989774361165    9.2336994887180488   61.9980960801724237
  385 1    1.3190999999999999    1.3190999999999999   64.6362959097450585
  386 1    3.9572998295726887    3.9572998295726887   64.6362959097450585
  387 1    3.9572998295726887    1.3190999999999999   67.2744957393179419
  388 1    1.3190999999999999    3.9572998295726887   67.2744957393179419
  389 1    6.5954996591453767    1.3190999999999999   64.6362959097450585
  390 1    9.2336994887180488    3.9572998295726887   64.6362959097450585
  391 1    9.2336994887180488    1.3190999999999999   67.2744957393179419
  392 1    6.5954996591453767    3.9572998295726887   67.2744957393179419
  393 1   11.8718993182907564    1.3190999999999999   64.6362959097450585
  394 1   14.5100991478634356    3.9572998295726887   64.6362959097450585
  395 1   14.5100991478634356    1.3190999999999999   67.2744957393179419
  396 1   11.8718993182907564    3.9572998295726887   67.2744957393179419
  397 1   17.1482989774361165    1.3190999999999999   64.6362959097450585
  398 1   19.7864988070088366    3.9572998295726887   64.6362959097450585
  399 1   19.7864988070088366    1.3190999999999999   67.2744957393179419
  400 1   17.1482989774361165    3.9572998295726887   67.2744957393179419
  401 1    1.3190999999999999    6.5954996591453767   64.6362959097450585
  402 1    3.9572998295726887    9.2336994887180488   64.6362959097450585