LAMMPS (2 Aug 2023 - Development - patch_2Aug2023-219-g06e2d5d306)
units          metal
boundary       p p p
atom_style     atomic
neigh_modify   delay 0 every 1 check no
read_data     fcc_lj_Ar_box-zeroed_shifted_DATA
Reading data file ...
  orthogonal box = (0 0 0) to (21.105599 21.105599 126.63359)
  1 by 1 by 1 MPI processor grid
  reading atoms ...
  1536 atoms
  read_data CPU = 0.011 seconds
pair_style     lj/cut 8.51
pair_coeff     * * 0.01032 3.405
variable T        equal  2000
variable Tdamp    equal  0.1
variable Tseed    equal  12280329
variable dumpf    equal  1
velocity     all create $T ${Tseed} mom yes rot yes dist gaussian
velocity     all create 2000 ${Tseed} mom yes rot yes dist gaussian
velocity     all create 2000 12280329 mom yes rot yes dist gaussian
thermo       1
thermo_style custom step temp pe ke etotal press
dump           run_forces all custom ${dumpf} dump_single.custom id type x y z fx fy fz vx vy vz
dump           run_forces all custom 1 dump_single.custom id type x y z fx fy fz vx vy vz
dump_modify    run_forces sort id format line "%4d %1d %32.27f %32.27f %32.27f %32.27f %32.27f %32.27f %32.27f %32.27f %32.27f" 
fix          nvt all nvt temp $T $T ${Tdamp}
fix          nvt all nvt temp 2000 $T ${Tdamp}
fix          nvt all nvt temp 2000 2000 ${Tdamp}
fix          nvt all nvt temp 2000 2000 0.1
run 1
Generated 0 of 0 mixed pair_coeff terms from geometric mixing rule
Neighbor list info ...
  update: every = 1 steps, delay = 0 steps, check = no
  max neighbors/atom: 2000, page size: 100000
  master list distance cutoff = 10.51
  ghost atom cutoff = 10.51
  binsize = 5.255, bins = 5 5 25
  1 neighbor lists, perpetual/occasional/extra = 1 0 0
  (1) pair lj/cut, perpetual
      attributes: half, newton on
      pair build: half/bin/atomonly/newton
      stencil: half/bin/3d
      bin: standard
Per MPI rank memory allocation (min/avg/max) = 3.203 | 3.203 | 3.203 Mbytes
   Step          Temp          PotEng         KinEng         TotEng         Press     
         0   2000          -128.3913       396.82865      268.43734      7514.115     
         1   1999.8504     -128.36162      396.79897      268.43734      7518.1299    
Loop time of 0.0138625 on 1 procs for 1 steps with 1536 atoms

Performance: 6.233 ns/day, 3.851 hours/ns, 72.137 timesteps/s, 110.803 katom-step/s
95.6% CPU use with 1 MPI tasks x no OpenMP threads

MPI task timing breakdown:
Section |  min time  |  avg time  |  max time  |%varavg| %total
---------------------------------------------------------------
Pair    | 0.0010617  | 0.0010617  | 0.0010617  |   0.0 |  7.66
Neigh   | 0.0019205  | 0.0019205  | 0.0019205  |   0.0 | 13.85
Comm    | 9.4083e-05 | 9.4083e-05 | 9.4083e-05 |   0.0 |  0.68
Output  | 0.010736   | 0.010736   | 0.010736   |   0.0 | 77.45
Modify  | 3.4542e-05 | 3.4542e-05 | 3.4542e-05 |   0.0 |  0.25
Other   |            | 1.55e-05   |            |       |  0.11

Nlocal:           1536 ave        1536 max        1536 min
Histogram: 1 0 0 0 0 0 0 0 0 0
Nghost:           5632 ave        5632 max        5632 min
Histogram: 1 0 0 0 0 0 0 0 0 0
Neighs:         102912 ave      102912 max      102912 min
Histogram: 1 0 0 0 0 0 0 0 0 0

Total # of neighbors = 102912
Ave neighs/atom = 67
Neighbor list builds = 1
Dangerous builds not checked
run 1
Generated 0 of 0 mixed pair_coeff terms from geometric mixing rule
Per MPI rank memory allocation (min/avg/max) = 4.728 | 4.728 | 4.728 Mbytes
   Step          Temp          PotEng         KinEng         TotEng         Press     
         1   1999.8504     -128.36162      396.79897      268.43734      7518.1299    
         2   1999.4014     -128.27255      396.70987      268.43733      7530.178     
Loop time of 0.0122841 on 1 procs for 1 steps with 1536 atoms

Performance: 7.033 ns/day, 3.412 hours/ns, 81.406 timesteps/s, 125.040 katom-step/s
94.1% CPU use with 1 MPI tasks x no OpenMP threads

MPI task timing breakdown:
Section |  min time  |  avg time  |  max time  |%varavg| %total
---------------------------------------------------------------
Pair    | 0.00077663 | 0.00077663 | 0.00077663 |   0.0 |  6.32
Neigh   | 0.0015083  | 0.0015083  | 0.0015083  |   0.0 | 12.28
Comm    | 7.1583e-05 | 7.1583e-05 | 7.1583e-05 |   0.0 |  0.58
Output  | 0.0098949  | 0.0098949  | 0.0098949  |   0.0 | 80.55
Modify  | 2.1042e-05 | 2.1042e-05 | 2.1042e-05 |   0.0 |  0.17
Other   |            | 1.162e-05  |            |       |  0.09

Nlocal:           1536 ave        1536 max        1536 min
Histogram: 1 0 0 0 0 0 0 0 0 0
Nghost:           5632 ave        5632 max        5632 min
Histogram: 1 0 0 0 0 0 0 0 0 0
Neighs:         102953 ave      102953 max      102953 min
Histogram: 1 0 0 0 0 0 0 0 0 0

Total # of neighbors = 102953
Ave neighs/atom = 67.026693
Neighbor list builds = 1
Dangerous builds not checked
run 1
Generated 0 of 0 mixed pair_coeff terms from geometric mixing rule
Per MPI rank memory allocation (min/avg/max) = 4.728 | 4.728 | 4.728 Mbytes
   Step          Temp          PotEng         KinEng         TotEng         Press     
         2   1999.4014     -128.27255      396.70987      268.43733      7530.178     
         3   1998.6516     -128.12379      396.56111      268.43732      7550.2849    
Loop time of 0.0105038 on 1 procs for 1 steps with 1536 atoms

Performance: 8.226 ns/day, 2.918 hours/ns, 95.203 timesteps/s, 146.232 katom-step/s
94.1% CPU use with 1 MPI tasks x no OpenMP threads

MPI task timing breakdown:
Section |  min time  |  avg time  |  max time  |%varavg| %total
---------------------------------------------------------------
Pair    | 0.00065538 | 0.00065538 | 0.00065538 |   0.0 |  6.24
Neigh   | 0.0012695  | 0.0012695  | 0.0012695  |   0.0 | 12.09
Comm    | 6.0374e-05 | 6.0374e-05 | 6.0374e-05 |   0.0 |  0.57
Output  | 0.0084907  | 0.0084907  | 0.0084907  |   0.0 | 80.83
Modify  | 1.6542e-05 | 1.6542e-05 | 1.6542e-05 |   0.0 |  0.16
Other   |            | 1.133e-05  |            |       |  0.11

Nlocal:           1536 ave        1536 max        1536 min
Histogram: 1 0 0 0 0 0 0 0 0 0
Nghost:           5632 ave        5632 max        5632 min
Histogram: 1 0 0 0 0 0 0 0 0 0
Neighs:         103191 ave      103191 max      103191 min
Histogram: 1 0 0 0 0 0 0 0 0 0

Total # of neighbors = 103191
Ave neighs/atom = 67.181641
Neighbor list builds = 1
Dangerous builds not checked
run 1
Generated 0 of 0 mixed pair_coeff terms from geometric mixing rule
Per MPI rank memory allocation (min/avg/max) = 4.728 | 4.728 | 4.728 Mbytes
   Step          Temp          PotEng         KinEng         TotEng         Press     
         3   1998.6516     -128.12379      396.56111      268.43732      7550.2849    
         4   1997.5985     -127.91483      396.35216      268.43734      7578.5019    
Loop time of 0.00983029 on 1 procs for 1 steps with 1536 atoms

Performance: 8.789 ns/day, 2.731 hours/ns, 101.726 timesteps/s, 156.252 katom-step/s
94.0% CPU use with 1 MPI tasks x no OpenMP threads

MPI task timing breakdown:
Section |  min time  |  avg time  |  max time  |%varavg| %total
---------------------------------------------------------------
Pair    | 0.00061558 | 0.00061558 | 0.00061558 |   0.0 |  6.26
Neigh   | 0.0011984  | 0.0011984  | 0.0011984  |   0.0 | 12.19
Comm    | 5.675e-05  | 5.675e-05  | 5.675e-05  |   0.0 |  0.58
Output  | 0.0079338  | 0.0079338  | 0.0079338  |   0.0 | 80.71
Modify  | 1.5792e-05 | 1.5792e-05 | 1.5792e-05 |   0.0 |  0.16
Other   |            | 1e-05      |            |       |  0.10

Nlocal:           1536 ave        1536 max        1536 min
Histogram: 1 0 0 0 0 0 0 0 0 0
Nghost:           5632 ave        5632 max        5632 min
Histogram: 1 0 0 0 0 0 0 0 0 0
Neighs:         103467 ave      103467 max      103467 min
Histogram: 1 0 0 0 0 0 0 0 0 0

Total # of neighbors = 103467
Ave neighs/atom = 67.361328
Neighbor list builds = 1
Dangerous builds not checked
run 1
Generated 0 of 0 mixed pair_coeff terms from geometric mixing rule
Per MPI rank memory allocation (min/avg/max) = 4.728 | 4.728 | 4.728 Mbytes
   Step          Temp          PotEng         KinEng         TotEng         Press     
         4   1997.5985     -127.91483      396.35216      268.43734      7578.5019    
         5   1996.2385     -127.64436      396.0823       268.43794      7614.9349    
Loop time of 0.00937538 on 1 procs for 1 steps with 1536 atoms

Performance: 9.216 ns/day, 2.604 hours/ns, 106.662 timesteps/s, 163.833 katom-step/s
94.2% CPU use with 1 MPI tasks x no OpenMP threads

MPI task timing breakdown:
Section |  min time  |  avg time  |  max time  |%varavg| %total
---------------------------------------------------------------
Pair    | 0.00057371 | 0.00057371 | 0.00057371 |   0.0 |  6.12
Neigh   | 0.001182   | 0.001182   | 0.001182   |   0.0 | 12.61
Comm    | 5.2333e-05 | 5.2333e-05 | 5.2333e-05 |   0.0 |  0.56
Output  | 0.0075437  | 0.0075437  | 0.0075437  |   0.0 | 80.46
Modify  | 1.5083e-05 | 1.5083e-05 | 1.5083e-05 |   0.0 |  0.16
Other   |            | 8.5e-06    |            |       |  0.09

Nlocal:           1536 ave        1536 max        1536 min
Histogram: 1 0 0 0 0 0 0 0 0 0
Nghost:           5632 ave        5632 max        5632 min
Histogram: 1 0 0 0 0 0 0 0 0 0
Neighs:         103719 ave      103719 max      103719 min
Histogram: 1 0 0 0 0 0 0 0 0 0

Total # of neighbors = 103719
Ave neighs/atom = 67.525391
Neighbor list builds = 1
Dangerous builds not checked
run 1
Generated 0 of 0 mixed pair_coeff terms from geometric mixing rule
Per MPI rank memory allocation (min/avg/max) = 4.728 | 4.728 | 4.728 Mbytes
   Step          Temp          PotEng         KinEng         TotEng         Press     
         5   1996.2385     -127.64436      396.0823       268.43794      7614.9349    
         6   1994.5664     -127.31052      395.75054      268.44002      7659.7351    
Loop time of 0.00907775 on 1 procs for 1 steps with 1536 atoms

Performance: 9.518 ns/day, 2.522 hours/ns, 110.159 timesteps/s, 169.205 katom-step/s
94.2% CPU use with 1 MPI tasks x no OpenMP threads

MPI task timing breakdown:
Section |  min time  |  avg time  |  max time  |%varavg| %total
---------------------------------------------------------------
Pair    | 0.00055121 | 0.00055121 | 0.00055121 |   0.0 |  6.07
Neigh   | 0.0011167  | 0.0011167  | 0.0011167  |   0.0 | 12.30
Comm    | 4.9791e-05 | 4.9791e-05 | 4.9791e-05 |   0.0 |  0.55
Output  | 0.0073386  | 0.0073386  | 0.0073386  |   0.0 | 80.84
Modify  | 1.3333e-05 | 1.3333e-05 | 1.3333e-05 |   0.0 |  0.15
Other   |            | 8.083e-06  |            |       |  0.09

Nlocal:           1536 ave        1536 max        1536 min
Histogram: 1 0 0 0 0 0 0 0 0 0
Nghost:           5632 ave        5632 max        5632 min
Histogram: 1 0 0 0 0 0 0 0 0 0
Neighs:         103918 ave      103918 max      103918 min
Histogram: 1 0 0 0 0 0 0 0 0 0

Total # of neighbors = 103918
Ave neighs/atom = 67.654948
Neighbor list builds = 1
Dangerous builds not checked
run 1
Generated 0 of 0 mixed pair_coeff terms from geometric mixing rule
Per MPI rank memory allocation (min/avg/max) = 4.728 | 4.728 | 4.728 Mbytes
   Step          Temp          PotEng         KinEng         TotEng         Press     
         6   1994.5664     -127.31052      395.75054      268.44002      7659.7351    
         7   1992.5764     -126.90546      395.35571      268.45025      7713.4032    
Loop time of 0.00896817 on 1 procs for 1 steps with 1536 atoms

Performance: 9.634 ns/day, 2.491 hours/ns, 111.506 timesteps/s, 171.272 katom-step/s
94.0% CPU use with 1 MPI tasks x no OpenMP threads

MPI task timing breakdown:
Section |  min time  |  avg time  |  max time  |%varavg| %total
---------------------------------------------------------------
Pair    | 0.0005425  | 0.0005425  | 0.0005425  |   0.0 |  6.05
Neigh   | 0.0011265  | 0.0011265  | 0.0011265  |   0.0 | 12.56
Comm    | 4.8875e-05 | 4.8875e-05 | 4.8875e-05 |   0.0 |  0.54
Output  | 0.0072292  | 0.0072292  | 0.0072292  |   0.0 | 80.61
Modify  | 1.3124e-05 | 1.3124e-05 | 1.3124e-05 |   0.0 |  0.15
Other   |            | 7.918e-06  |            |       |  0.09

Nlocal:           1536 ave        1536 max        1536 min
Histogram: 1 0 0 0 0 0 0 0 0 0
Nghost:           5632 ave        5632 max        5632 min
Histogram: 1 0 0 0 0 0 0 0 0 0
Neighs:         104074 ave      104074 max      104074 min
Histogram: 1 0 0 0 0 0 0 0 0 0

Total # of neighbors = 104074
Ave neighs/atom = 67.75651
Neighbor list builds = 1
Dangerous builds not checked
run 1
Generated 0 of 0 mixed pair_coeff terms from geometric mixing rule
Per MPI rank memory allocation (min/avg/max) = 4.728 | 4.728 | 4.728 Mbytes
   Step          Temp          PotEng         KinEng         TotEng         Press     
         7   1992.5764     -126.90546      395.35571      268.45025      7713.4032    
         8   1990.2618     -126.42241      394.89644      268.47403      7776.3926    
Loop time of 0.00891512 on 1 procs for 1 steps with 1536 atoms

Performance: 9.691 ns/day, 2.476 hours/ns, 112.169 timesteps/s, 172.291 katom-step/s
94.2% CPU use with 1 MPI tasks x no OpenMP threads

MPI task timing breakdown:
Section |  min time  |  avg time  |  max time  |%varavg| %total
---------------------------------------------------------------
Pair    | 0.00054954 | 0.00054954 | 0.00054954 |   0.0 |  6.16
Neigh   | 0.0010999  | 0.0010999  | 0.0010999  |   0.0 | 12.34
Comm    | 4.875e-05  | 4.875e-05  | 4.875e-05  |   0.0 |  0.55
Output  | 0.0071961  | 0.0071961  | 0.0071961  |   0.0 | 80.72
Modify  | 1.3042e-05 | 1.3042e-05 | 1.3042e-05 |   0.0 |  0.15
Other   |            | 7.792e-06  |            |       |  0.09

Nlocal:           1536 ave        1536 max        1536 min
Histogram: 1 0 0 0 0 0 0 0 0 0
Nghost:           5632 ave        5632 max        5632 min
Histogram: 1 0 0 0 0 0 0 0 0 0
Neighs:         104201 ave      104201 max      104201 min
Histogram: 1 0 0 0 0 0 0 0 0 0

Total # of neighbors = 104201
Ave neighs/atom = 67.839193
Neighbor list builds = 1
Dangerous builds not checked
run 1
Generated 0 of 0 mixed pair_coeff terms from geometric mixing rule
Per MPI rank memory allocation (min/avg/max) = 4.728 | 4.728 | 4.728 Mbytes
   Step          Temp          PotEng         KinEng         TotEng         Press     
         8   1990.2618     -126.42241      394.89644      268.47403      7776.3926    
         9   1987.614      -125.8658       394.37108      268.50527      7848.5342    
Loop time of 0.00890979 on 1 procs for 1 steps with 1536 atoms

Performance: 9.697 ns/day, 2.475 hours/ns, 112.236 timesteps/s, 172.395 katom-step/s
94.0% CPU use with 1 MPI tasks x no OpenMP threads

MPI task timing breakdown:
Section |  min time  |  avg time  |  max time  |%varavg| %total
---------------------------------------------------------------
Pair    | 0.00054825 | 0.00054825 | 0.00054825 |   0.0 |  6.15
Neigh   | 0.0010652  | 0.0010652  | 0.0010652  |   0.0 | 11.96
Comm    | 4.9042e-05 | 4.9042e-05 | 4.9042e-05 |   0.0 |  0.55
Output  | 0.0072272  | 0.0072272  | 0.0072272  |   0.0 | 81.12
Modify  | 1.2916e-05 | 1.2916e-05 | 1.2916e-05 |   0.0 |  0.14
Other   |            | 7.166e-06  |            |       |  0.08

Nlocal:           1536 ave        1536 max        1536 min
Histogram: 1 0 0 0 0 0 0 0 0 0
Nghost:           5632 ave        5632 max        5632 min
Histogram: 1 0 0 0 0 0 0 0 0 0
Neighs:         104310 ave      104310 max      104310 min
Histogram: 1 0 0 0 0 0 0 0 0 0

Total # of neighbors = 104310
Ave neighs/atom = 67.910156
Neighbor list builds = 1
Dangerous builds not checked
run 1
Generated 0 of 0 mixed pair_coeff terms from geometric mixing rule
Per MPI rank memory allocation (min/avg/max) = 4.728 | 4.728 | 4.728 Mbytes
   Step          Temp          PotEng         KinEng         TotEng         Press     
         9   1987.614      -125.8658       394.37108      268.50527      7848.5342    
        10   1984.6229     -125.23539      393.7776       268.54221      7929.9341    
Loop time of 0.00890254 on 1 procs for 1 steps with 1536 atoms

Performance: 9.705 ns/day, 2.473 hours/ns, 112.327 timesteps/s, 172.535 katom-step/s
94.1% CPU use with 1 MPI tasks x no OpenMP threads

MPI task timing breakdown:
Section |  min time  |  avg time  |  max time  |%varavg| %total
---------------------------------------------------------------
Pair    | 0.00055275 | 0.00055275 | 0.00055275 |   0.0 |  6.21
Neigh   | 0.0010635  | 0.0010635  | 0.0010635  |   0.0 | 11.95
Comm    | 5.0708e-05 | 5.0708e-05 | 5.0708e-05 |   0.0 |  0.57
Output  | 0.0072141  | 0.0072141  | 0.0072141  |   0.0 | 81.03
Modify  | 1.3625e-05 | 1.3625e-05 | 1.3625e-05 |   0.0 |  0.15
Other   |            | 7.915e-06  |            |       |  0.09

Nlocal:           1536 ave        1536 max        1536 min
Histogram: 1 0 0 0 0 0 0 0 0 0
Nghost:           5632 ave        5632 max        5632 min
Histogram: 1 0 0 0 0 0 0 0 0 0
Neighs:         104377 ave      104377 max      104377 min
Histogram: 1 0 0 0 0 0 0 0 0 0

Total # of neighbors = 104377
Ave neighs/atom = 67.953776
Neighbor list builds = 1
Dangerous builds not checked
run 1
Generated 0 of 0 mixed pair_coeff terms from geometric mixing rule
Per MPI rank memory allocation (min/avg/max) = 4.728 | 4.728 | 4.728 Mbytes
   Step          Temp          PotEng         KinEng         TotEng         Press     
        10   1984.6229     -125.23539      393.7776       268.54221      7929.9341    
        11   1981.277      -124.52252      393.11374      268.59122      8021.1862    
Loop time of 0.0089015 on 1 procs for 1 steps with 1536 atoms

Performance: 9.706 ns/day, 2.473 hours/ns, 112.341 timesteps/s, 172.555 katom-step/s
94.2% CPU use with 1 MPI tasks x no OpenMP threads

MPI task timing breakdown:
Section |  min time  |  avg time  |  max time  |%varavg| %total
---------------------------------------------------------------
Pair    | 0.00055937 | 0.00055937 | 0.00055937 |   0.0 |  6.28
Neigh   | 0.0010674  | 0.0010674  | 0.0010674  |   0.0 | 11.99
Comm    | 4.8833e-05 | 4.8833e-05 | 4.8833e-05 |   0.0 |  0.55
Output  | 0.0072047  | 0.0072047  | 0.0072047  |   0.0 | 80.94
Modify  | 1.35e-05   | 1.35e-05   | 1.35e-05   |   0.0 |  0.15
Other   |            | 7.71e-06   |            |       |  0.09

Nlocal:           1536 ave        1536 max        1536 min
Histogram: 1 0 0 0 0 0 0 0 0 0
Nghost:           5632 ave        5632 max        5632 min
Histogram: 1 0 0 0 0 0 0 0 0 0
Neighs:         104443 ave      104443 max      104443 min
Histogram: 1 0 0 0 0 0 0 0 0 0

Total # of neighbors = 104443
Ave neighs/atom = 67.996745
Neighbor list builds = 1
Dangerous builds not checked
run 1
Generated 0 of 0 mixed pair_coeff terms from geometric mixing rule
Per MPI rank memory allocation (min/avg/max) = 4.728 | 4.728 | 4.728 Mbytes
   Step          Temp          PotEng         KinEng         TotEng         Press     
        11   1981.277      -124.52252      393.11374      268.59122      8021.1862    
        12   1977.5635     -123.72657      392.37693      268.65036      8122.4435    
Loop time of 0.00893533 on 1 procs for 1 steps with 1536 atoms

Performance: 9.669 ns/day, 2.482 hours/ns, 111.915 timesteps/s, 171.902 katom-step/s
94.2% CPU use with 1 MPI tasks x no OpenMP threads

MPI task timing breakdown:
Section |  min time  |  avg time  |  max time  |%varavg| %total
---------------------------------------------------------------
Pair    | 0.00057458 | 0.00057458 | 0.00057458 |   0.0 |  6.43
Neigh   | 0.0010863  | 0.0010863  | 0.0010863  |   0.0 | 12.16
Comm    | 4.8708e-05 | 4.8708e-05 | 4.8708e-05 |   0.0 |  0.55
Output  | 0.0072048  | 0.0072048  | 0.0072048  |   0.0 | 80.63
Modify  | 1.3042e-05 | 1.3042e-05 | 1.3042e-05 |   0.0 |  0.15
Other   |            | 7.833e-06  |            |       |  0.09

Nlocal:           1536 ave        1536 max        1536 min
Histogram: 1 0 0 0 0 0 0 0 0 0
Nghost:           5632 ave        5632 max        5632 min
Histogram: 1 0 0 0 0 0 0 0 0 0
Neighs:         104496 ave      104496 max      104496 min
Histogram: 1 0 0 0 0 0 0 0 0 0

Total # of neighbors = 104496
Ave neighs/atom = 68.03125
Neighbor list builds = 1
Dangerous builds not checked
run 1
Generated 0 of 0 mixed pair_coeff terms from geometric mixing rule
Per MPI rank memory allocation (min/avg/max) = 4.728 | 4.728 | 4.728 Mbytes
   Step          Temp          PotEng         KinEng         TotEng         Press     
        12   1977.5635     -123.72657      392.37693      268.65036      8122.4435    
        13   1973.4676     -122.85844      391.56424      268.7058       8233.2168    
Loop time of 0.00890558 on 1 procs for 1 steps with 1536 atoms

Performance: 9.702 ns/day, 2.474 hours/ns, 112.289 timesteps/s, 172.476 katom-step/s
94.1% CPU use with 1 MPI tasks x no OpenMP threads

MPI task timing breakdown:
Section |  min time  |  avg time  |  max time  |%varavg| %total
---------------------------------------------------------------
Pair    | 0.00056558 | 0.00056558 | 0.00056558 |   0.0 |  6.35
Neigh   | 0.0010656  | 0.0010656  | 0.0010656  |   0.0 | 11.97
Comm    | 4.8875e-05 | 4.8875e-05 | 4.8875e-05 |   0.0 |  0.55
Output  | 0.0072046  | 0.0072046  | 0.0072046  |   0.0 | 80.90
Modify  | 1.3208e-05 | 1.3208e-05 | 1.3208e-05 |   0.0 |  0.15
Other   |            | 7.708e-06  |            |       |  0.09

Nlocal:           1536 ave        1536 max        1536 min
Histogram: 1 0 0 0 0 0 0 0 0 0
Nghost:           5632 ave        5632 max        5632 min
Histogram: 1 0 0 0 0 0 0 0 0 0
Neighs:         104555 ave      104555 max      104555 min
Histogram: 1 0 0 0 0 0 0 0 0 0

Total # of neighbors = 104555
Ave neighs/atom = 68.069661
Neighbor list builds = 1
Dangerous builds not checked
run 1
Generated 0 of 0 mixed pair_coeff terms from geometric mixing rule
Per MPI rank memory allocation (min/avg/max) = 4.728 | 4.728 | 4.728 Mbytes
   Step          Temp          PotEng         KinEng         TotEng         Press     
        13   1973.4676     -122.85844      391.56424      268.7058       8233.2168    
        14   1968.9728     -121.91015      390.6724       268.76225      8354.0988    
Loop time of 0.0089145 on 1 procs for 1 steps with 1536 atoms

Performance: 9.692 ns/day, 2.476 hours/ns, 112.177 timesteps/s, 172.304 katom-step/s
94.1% CPU use with 1 MPI tasks x no OpenMP threads

MPI task timing breakdown:
Section |  min time  |  avg time  |  max time  |%varavg| %total
---------------------------------------------------------------
Pair    | 0.00056979 | 0.00056979 | 0.00056979 |   0.0 |  6.39
Neigh   | 0.001067   | 0.001067   | 0.001067   |   0.0 | 11.97
Comm    | 4.9125e-05 | 4.9125e-05 | 4.9125e-05 |   0.0 |  0.55
Output  | 0.0072078  | 0.0072078  | 0.0072078  |   0.0 | 80.85
Modify  | 1.2999e-05 | 1.2999e-05 | 1.2999e-05 |   0.0 |  0.15
Other   |            | 7.793e-06  |            |       |  0.09

Nlocal:           1536 ave        1536 max        1536 min
Histogram: 1 0 0 0 0 0 0 0 0 0
Nghost:           5632 ave        5632 max        5632 min
Histogram: 1 0 0 0 0 0 0 0 0 0
Neighs:         104596 ave      104596 max      104596 min
Histogram: 1 0 0 0 0 0 0 0 0 0

Total # of neighbors = 104596
Ave neighs/atom = 68.096354
Neighbor list builds = 1
Dangerous builds not checked
run 1
Generated 0 of 0 mixed pair_coeff terms from geometric mixing rule
Per MPI rank memory allocation (min/avg/max) = 4.728 | 4.728 | 4.728 Mbytes
   Step          Temp          PotEng         KinEng         TotEng         Press     
        14   1968.9728     -121.91015      390.6724       268.76225      8354.0988    
        15   1964.0609     -120.87979      389.69782      268.81803      8485.3509    
Loop time of 0.00926913 on 1 procs for 1 steps with 1536 atoms

Performance: 9.321 ns/day, 2.575 hours/ns, 107.885 timesteps/s, 165.711 katom-step/s
93.2% CPU use with 1 MPI tasks x no OpenMP threads

MPI task timing breakdown:
Section |  min time  |  avg time  |  max time  |%varavg| %total
---------------------------------------------------------------
Pair    | 0.00062067 | 0.00062067 | 0.00062067 |   0.0 |  6.70
Neigh   | 0.0011357  | 0.0011357  | 0.0011357  |   0.0 | 12.25
Comm    | 5.2666e-05 | 5.2666e-05 | 5.2666e-05 |   0.0 |  0.57
Output  | 0.0074335  | 0.0074335  | 0.0074335  |   0.0 | 80.20
Modify  | 1.5541e-05 | 1.5541e-05 | 1.5541e-05 |   0.0 |  0.17
Other   |            | 1.104e-05  |            |       |  0.12

Nlocal:           1536 ave        1536 max        1536 min
Histogram: 1 0 0 0 0 0 0 0 0 0
Nghost:           5632 ave        5632 max        5632 min
Histogram: 1 0 0 0 0 0 0 0 0 0
Neighs:         104639 ave      104639 max      104639 min
Histogram: 1 0 0 0 0 0 0 0 0 0

Total # of neighbors = 104639
Ave neighs/atom = 68.124349
Neighbor list builds = 1
Dangerous builds not checked
run 1
Generated 0 of 0 mixed pair_coeff terms from geometric mixing rule
Per MPI rank memory allocation (min/avg/max) = 4.728 | 4.728 | 4.728 Mbytes
   Step          Temp          PotEng         KinEng         TotEng         Press     
        15   1964.0609     -120.87979      389.69782      268.81803      8485.3509    
        16   1958.7125     -119.76111      388.63662      268.87551      8627.4941    
Loop time of 0.00897929 on 1 procs for 1 steps with 1536 atoms

Performance: 9.622 ns/day, 2.494 hours/ns, 111.367 timesteps/s, 171.060 katom-step/s
93.9% CPU use with 1 MPI tasks x no OpenMP threads

MPI task timing breakdown:
Section |  min time  |  avg time  |  max time  |%varavg| %total
---------------------------------------------------------------
Pair    | 0.00057583 | 0.00057583 | 0.00057583 |   0.0 |  6.41
Neigh   | 0.0010764  | 0.0010764  | 0.0010764  |   0.0 | 11.99
Comm    | 4.8917e-05 | 4.8917e-05 | 4.8917e-05 |   0.0 |  0.54
Output  | 0.0072567  | 0.0072567  | 0.0072567  |   0.0 | 80.82
Modify  | 1.3499e-05 | 1.3499e-05 | 1.3499e-05 |   0.0 |  0.15
Other   |            | 8e-06      |            |       |  0.09

Nlocal:           1536 ave        1536 max        1536 min
Histogram: 1 0 0 0 0 0 0 0 0 0
Nghost:           5632 ave        5632 max        5632 min
Histogram: 1 0 0 0 0 0 0 0 0 0
Neighs:         104673 ave      104673 max      104673 min
Histogram: 1 0 0 0 0 0 0 0 0 0

Total # of neighbors = 104673
Ave neighs/atom = 68.146484
Neighbor list builds = 1
Dangerous builds not checked
run 1
Generated 0 of 0 mixed pair_coeff terms from geometric mixing rule
Per MPI rank memory allocation (min/avg/max) = 4.728 | 4.728 | 4.728 Mbytes
   Step          Temp          PotEng         KinEng         TotEng         Press     
        16   1958.7125     -119.76111      388.63662      268.87551      8627.4941    
        17   1952.9062     -118.55931      387.48456      268.92525      8780.4152    
Loop time of 0.0107374 on 1 procs for 1 steps with 1536 atoms

Performance: 8.047 ns/day, 2.983 hours/ns, 93.133 timesteps/s, 143.052 katom-step/s
78.8% CPU use with 1 MPI tasks x no OpenMP threads

MPI task timing breakdown:
Section |  min time  |  avg time  |  max time  |%varavg| %total
---------------------------------------------------------------
Pair    | 0.00058333 | 0.00058333 | 0.00058333 |   0.0 |  5.43
Neigh   | 0.0011031  | 0.0011031  | 0.0011031  |   0.0 | 10.27
Comm    | 4.9708e-05 | 4.9708e-05 | 4.9708e-05 |   0.0 |  0.46
Output  | 0.0089796  | 0.0089796  | 0.0089796  |   0.0 | 83.63
Modify  | 1.3542e-05 | 1.3542e-05 | 1.3542e-05 |   0.0 |  0.13
Other   |            | 8.083e-06  |            |       |  0.08

Nlocal:           1536 ave        1536 max        1536 min
Histogram: 1 0 0 0 0 0 0 0 0 0
Nghost:           5632 ave        5632 max        5632 min
Histogram: 1 0 0 0 0 0 0 0 0 0
Neighs:         104705 ave      104705 max      104705 min
Histogram: 1 0 0 0 0 0 0 0 0 0

Total # of neighbors = 104705
Ave neighs/atom = 68.167318
Neighbor list builds = 1
Dangerous builds not checked
run 1
Generated 0 of 0 mixed pair_coeff terms from geometric mixing rule
Per MPI rank memory allocation (min/avg/max) = 4.728 | 4.728 | 4.728 Mbytes
   Step          Temp          PotEng         KinEng         TotEng         Press     
        17   1952.9062     -118.55931      387.48456      268.92525      8780.4152    
        18   1946.619      -117.25793      386.23708      268.97916      8945.2388    
Loop time of 0.00893646 on 1 procs for 1 steps with 1536 atoms

Performance: 9.668 ns/day, 2.482 hours/ns, 111.901 timesteps/s, 171.880 katom-step/s
94.0% CPU use with 1 MPI tasks x no OpenMP threads

MPI task timing breakdown:
Section |  min time  |  avg time  |  max time  |%varavg| %total
---------------------------------------------------------------
Pair    | 0.00057987 | 0.00057987 | 0.00057987 |   0.0 |  6.49
Neigh   | 0.0010464  | 0.0010464  | 0.0010464  |   0.0 | 11.71
Comm    | 4.8834e-05 | 4.8834e-05 | 4.8834e-05 |   0.0 |  0.55
Output  | 0.0072404  | 0.0072404  | 0.0072404  |   0.0 | 81.02
Modify  | 1.3167e-05 | 1.3167e-05 | 1.3167e-05 |   0.0 |  0.15
Other   |            | 7.792e-06  |            |       |  0.09

Nlocal:           1536 ave        1536 max        1536 min
Histogram: 1 0 0 0 0 0 0 0 0 0
Nghost:           5632 ave        5632 max        5632 min
Histogram: 1 0 0 0 0 0 0 0 0 0
Neighs:         104726 ave      104726 max      104726 min
Histogram: 1 0 0 0 0 0 0 0 0 0

Total # of neighbors = 104726
Ave neighs/atom = 68.18099
Neighbor list builds = 1
Dangerous builds not checked
run 1
Generated 0 of 0 mixed pair_coeff terms from geometric mixing rule
Per MPI rank memory allocation (min/avg/max) = 4.728 | 4.728 | 4.728 Mbytes
   Step          Temp          PotEng         KinEng         TotEng         Press     
        18   1946.619      -117.25793      386.23708      268.97916      8945.2388    
        19   1939.8262     -115.86132      384.8893       269.02797      9121.9261    
Loop time of 0.00892704 on 1 procs for 1 steps with 1536 atoms

Performance: 9.678 ns/day, 2.480 hours/ns, 112.019 timesteps/s, 172.061 katom-step/s
94.2% CPU use with 1 MPI tasks x no OpenMP threads

MPI task timing breakdown:
Section |  min time  |  avg time  |  max time  |%varavg| %total
---------------------------------------------------------------
Pair    | 0.00057996 | 0.00057996 | 0.00057996 |   0.0 |  6.50
Neigh   | 0.0010469  | 0.0010469  | 0.0010469  |   0.0 | 11.73
Comm    | 4.8709e-05 | 4.8709e-05 | 4.8709e-05 |   0.0 |  0.55
Output  | 0.0072304  | 0.0072304  | 0.0072304  |   0.0 | 80.99
Modify  | 1.3292e-05 | 1.3292e-05 | 1.3292e-05 |   0.0 |  0.15
Other   |            | 7.79e-06   |            |       |  0.09

Nlocal:           1536 ave        1536 max        1536 min
Histogram: 1 0 0 0 0 0 0 0 0 0
Nghost:           5632 ave        5632 max        5632 min
Histogram: 1 0 0 0 0 0 0 0 0 0
Neighs:         104749 ave      104749 max      104749 min
Histogram: 1 0 0 0 0 0 0 0 0 0

Total # of neighbors = 104749
Ave neighs/atom = 68.195964
Neighbor list builds = 1
Dangerous builds not checked
run 1
Generated 0 of 0 mixed pair_coeff terms from geometric mixing rule
Per MPI rank memory allocation (min/avg/max) = 4.728 | 4.728 | 4.728 Mbytes
   Step          Temp          PotEng         KinEng         TotEng         Press     
        19   1939.8262     -115.86132      384.8893       269.02797      9121.9261    
        20   1932.5015     -114.35522      383.43597      269.08075      9311.5055    
Loop time of 0.00900733 on 1 procs for 1 steps with 1536 atoms

Performance: 9.592 ns/day, 2.502 hours/ns, 111.021 timesteps/s, 170.528 katom-step/s
93.2% CPU use with 1 MPI tasks x no OpenMP threads

MPI task timing breakdown:
Section |  min time  |  avg time  |  max time  |%varavg| %total
---------------------------------------------------------------
Pair    | 0.00058179 | 0.00058179 | 0.00058179 |   0.0 |  6.46
Neigh   | 0.0010513  | 0.0010513  | 0.0010513  |   0.0 | 11.67
Comm    | 4.8666e-05 | 4.8666e-05 | 4.8666e-05 |   0.0 |  0.54
Output  | 0.0073045  | 0.0073045  | 0.0073045  |   0.0 | 81.10
Modify  | 1.3251e-05 | 1.3251e-05 | 1.3251e-05 |   0.0 |  0.15
Other   |            | 7.751e-06  |            |       |  0.09

Nlocal:           1536 ave        1536 max        1536 min
Histogram: 1 0 0 0 0 0 0 0 0 0
Nghost:           5632 ave        5632 max        5632 min
Histogram: 1 0 0 0 0 0 0 0 0 0
Neighs:         104768 ave      104768 max      104768 min
Histogram: 1 0 0 0 0 0 0 0 0 0

Total # of neighbors = 104768
Ave neighs/atom = 68.208333
Neighbor list builds = 1
Dangerous builds not checked
run 1
Generated 0 of 0 mixed pair_coeff terms from geometric mixing rule
Per MPI rank memory allocation (min/avg/max) = 4.728 | 4.728 | 4.728 Mbytes
   Step          Temp          PotEng         KinEng         TotEng         Press     
        20   1932.5015     -114.35522      383.43597      269.08075      9311.5055    
        21   1924.6168     -112.73517      381.87155      269.13638      9514.462     
Loop time of 0.0089775 on 1 procs for 1 steps with 1536 atoms

Performance: 9.624 ns/day, 2.494 hours/ns, 111.390 timesteps/s, 171.094 katom-step/s
93.9% CPU use with 1 MPI tasks x no OpenMP threads

MPI task timing breakdown:
Section |  min time  |  avg time  |  max time  |%varavg| %total
---------------------------------------------------------------
Pair    | 0.00058362 | 0.00058362 | 0.00058362 |   0.0 |  6.50
Neigh   | 0.0010594  | 0.0010594  | 0.0010594  |   0.0 | 11.80
Comm    | 4.875e-05  | 4.875e-05  | 4.875e-05  |   0.0 |  0.54
Output  | 0.0072647  | 0.0072647  | 0.0072647  |   0.0 | 80.92
Modify  | 1.3375e-05 | 1.3375e-05 | 1.3375e-05 |   0.0 |  0.15
Other   |            | 7.709e-06  |            |       |  0.09

Nlocal:           1536 ave        1536 max        1536 min
Histogram: 1 0 0 0 0 0 0 0 0 0
Nghost:           5632 ave        5632 max        5632 min
Histogram: 1 0 0 0 0 0 0 0 0 0
Neighs:         104786 ave      104786 max      104786 min
Histogram: 1 0 0 0 0 0 0 0 0 0

Total # of neighbors = 104786
Ave neighs/atom = 68.220052
Neighbor list builds = 1
Dangerous builds not checked
run 1
Generated 0 of 0 mixed pair_coeff terms from geometric mixing rule
Per MPI rank memory allocation (min/avg/max) = 4.728 | 4.728 | 4.728 Mbytes
   Step          Temp          PotEng         KinEng         TotEng         Press     
        21   1924.6168     -112.73517      381.87155      269.13638      9514.462     
        22   1916.1426     -110.99938      380.19014      269.19077      9731.1423    
Loop time of 0.00902333 on 1 procs for 1 steps with 1536 atoms

Performance: 9.575 ns/day, 2.506 hours/ns, 110.824 timesteps/s, 170.225 katom-step/s
93.2% CPU use with 1 MPI tasks x no OpenMP threads

MPI task timing breakdown:
Section |  min time  |  avg time  |  max time  |%varavg| %total
---------------------------------------------------------------
Pair    | 0.00058679 | 0.00058679 | 0.00058679 |   0.0 |  6.50
Neigh   | 0.0010603  | 0.0010603  | 0.0010603  |   0.0 | 11.75
Comm    | 5.0542e-05 | 5.0542e-05 | 5.0542e-05 |   0.0 |  0.56
Output  | 0.007304   | 0.007304   | 0.007304   |   0.0 | 80.95
Modify  | 1.3708e-05 | 1.3708e-05 | 1.3708e-05 |   0.0 |  0.15
Other   |            | 8.042e-06  |            |       |  0.09

Nlocal:           1536 ave        1536 max        1536 min
Histogram: 1 0 0 0 0 0 0 0 0 0
Nghost:           5632 ave        5632 max        5632 min
Histogram: 1 0 0 0 0 0 0 0 0 0
Neighs:         104795 ave      104795 max      104795 min
Histogram: 1 0 0 0 0 0 0 0 0 0

Total # of neighbors = 104795
Ave neighs/atom = 68.225911
Neighbor list builds = 1
Dangerous builds not checked
run 1
Generated 0 of 0 mixed pair_coeff terms from geometric mixing rule
Per MPI rank memory allocation (min/avg/max) = 4.728 | 4.728 | 4.728 Mbytes
   Step          Temp          PotEng         KinEng         TotEng         Press     
        22   1916.1426     -110.99938      380.19014      269.19077      9731.1423    
        23   1907.0474     -109.14317      378.38552      269.24236      9962.0668    
Loop time of 0.00898437 on 1 procs for 1 steps with 1536 atoms

Performance: 9.617 ns/day, 2.496 hours/ns, 111.304 timesteps/s, 170.963 katom-step/s
94.2% CPU use with 1 MPI tasks x no OpenMP threads

MPI task timing breakdown:
Section |  min time  |  avg time  |  max time  |%varavg| %total
---------------------------------------------------------------
Pair    | 0.00058983 | 0.00058983 | 0.00058983 |   0.0 |  6.57
Neigh   | 0.0010875  | 0.0010875  | 0.0010875  |   0.0 | 12.10
Comm    | 4.8958e-05 | 4.8958e-05 | 4.8958e-05 |   0.0 |  0.54
Output  | 0.0072374  | 0.0072374  | 0.0072374  |   0.0 | 80.56
Modify  | 1.2999e-05 | 1.2999e-05 | 1.2999e-05 |   0.0 |  0.14
Other   |            | 7.751e-06  |            |       |  0.09

Nlocal:           1536 ave        1536 max        1536 min
Histogram: 1 0 0 0 0 0 0 0 0 0
Nghost:           5632 ave        5632 max        5632 min
Histogram: 1 0 0 0 0 0 0 0 0 0
Neighs:         104801 ave      104801 max      104801 min
Histogram: 1 0 0 0 0 0 0 0 0 0

Total # of neighbors = 104801
Ave neighs/atom = 68.229818
Neighbor list builds = 1
Dangerous builds not checked
run 1
Generated 0 of 0 mixed pair_coeff terms from geometric mixing rule
Per MPI rank memory allocation (min/avg/max) = 4.728 | 4.728 | 4.728 Mbytes
   Step          Temp          PotEng         KinEng         TotEng         Press     
        23   1907.0474     -109.14317      378.38552      269.24236      9962.0668    
        24   1897.2984     -107.1528       376.45118      269.29838      10208.278    
Loop time of 0.00902196 on 1 procs for 1 steps with 1536 atoms

Performance: 9.577 ns/day, 2.506 hours/ns, 110.841 timesteps/s, 170.251 katom-step/s
93.8% CPU use with 1 MPI tasks x no OpenMP threads

MPI task timing breakdown:
Section |  min time  |  avg time  |  max time  |%varavg| %total
---------------------------------------------------------------
Pair    | 0.00059312 | 0.00059312 | 0.00059312 |   0.0 |  6.57
Neigh   | 0.0011052  | 0.0011052  | 0.0011052  |   0.0 | 12.25
Comm    | 4.8917e-05 | 4.8917e-05 | 4.8917e-05 |   0.0 |  0.54
Output  | 0.0072539  | 0.0072539  | 0.0072539  |   0.0 | 80.40
Modify  | 1.3083e-05 | 1.3083e-05 | 1.3083e-05 |   0.0 |  0.15
Other   |            | 7.75e-06   |            |       |  0.09

Nlocal:           1536 ave        1536 max        1536 min
Histogram: 1 0 0 0 0 0 0 0 0 0
Nghost:           5632 ave        5632 max        5632 min
Histogram: 1 0 0 0 0 0 0 0 0 0
Neighs:         104794 ave      104794 max      104794 min
Histogram: 1 0 0 0 0 0 0 0 0 0

Total # of neighbors = 104794
Ave neighs/atom = 68.22526
Neighbor list builds = 1
Dangerous builds not checked
run 1
Generated 0 of 0 mixed pair_coeff terms from geometric mixing rule
Per MPI rank memory allocation (min/avg/max) = 4.728 | 4.728 | 4.728 Mbytes
   Step          Temp          PotEng         KinEng         TotEng         Press     
        24   1897.2984     -107.1528       376.45118      269.29838      10208.278    
        25   1886.8616     -105.02627      374.38037      269.3541       10470.162    
Loop time of 0.00900283 on 1 procs for 1 steps with 1536 atoms

Performance: 9.597 ns/day, 2.501 hours/ns, 111.076 timesteps/s, 170.613 katom-step/s
94.2% CPU use with 1 MPI tasks x no OpenMP threads

MPI task timing breakdown:
Section |  min time  |  avg time  |  max time  |%varavg| %total
---------------------------------------------------------------
Pair    | 0.00059854 | 0.00059854 | 0.00059854 |   0.0 |  6.65
Neigh   | 0.001108   | 0.001108   | 0.001108   |   0.0 | 12.31
Comm    | 4.875e-05  | 4.875e-05  | 4.875e-05  |   0.0 |  0.54
Output  | 0.0072262  | 0.0072262  | 0.0072262  |   0.0 | 80.27
Modify  | 1.3625e-05 | 1.3625e-05 | 1.3625e-05 |   0.0 |  0.15
Other   |            | 7.792e-06  |            |       |  0.09

Nlocal:           1536 ave        1536 max        1536 min
Histogram: 1 0 0 0 0 0 0 0 0 0
Nghost:           5632 ave        5632 max        5632 min
Histogram: 1 0 0 0 0 0 0 0 0 0
Neighs:         104784 ave      104784 max      104784 min
Histogram: 1 0 0 0 0 0 0 0 0 0

Total # of neighbors = 104784
Ave neighs/atom = 68.21875
Neighbor list builds = 1
Dangerous builds not checked
run 1
Generated 0 of 0 mixed pair_coeff terms from geometric mixing rule
Per MPI rank memory allocation (min/avg/max) = 4.728 | 4.728 | 4.728 Mbytes
   Step          Temp          PotEng         KinEng         TotEng         Press     
        25   1886.8616     -105.02627      374.38037      269.3541       10470.162    
        26   1875.702      -102.75051      372.16614      269.41563      10748.733    
Loop time of 0.00939096 on 1 procs for 1 steps with 1536 atoms

Performance: 9.200 ns/day, 2.609 hours/ns, 106.485 timesteps/s, 163.562 katom-step/s
92.8% CPU use with 1 MPI tasks x no OpenMP threads

MPI task timing breakdown:
Section |  min time  |  avg time  |  max time  |%varavg| %total
---------------------------------------------------------------
Pair    | 0.00064933 | 0.00064933 | 0.00064933 |   0.0 |  6.91
Neigh   | 0.0011745  | 0.0011745  | 0.0011745  |   0.0 | 12.51
Comm    | 4.975e-05  | 4.975e-05  | 4.975e-05  |   0.0 |  0.53
Output  | 0.007491   | 0.007491   | 0.007491   |   0.0 | 79.77
Modify  | 1.5125e-05 | 1.5125e-05 | 1.5125e-05 |   0.0 |  0.16
Other   |            | 1.121e-05  |            |       |  0.12

Nlocal:           1536 ave        1536 max        1536 min
Histogram: 1 0 0 0 0 0 0 0 0 0
Nghost:           5632 ave        5632 max        5632 min
Histogram: 1 0 0 0 0 0 0 0 0 0
Neighs:         104767 ave      104767 max      104767 min
Histogram: 1 0 0 0 0 0 0 0 0 0

Total # of neighbors = 104767
Ave neighs/atom = 68.207682
Neighbor list builds = 1
Dangerous builds not checked
run 1
Generated 0 of 0 mixed pair_coeff terms from geometric mixing rule
Per MPI rank memory allocation (min/avg/max) = 4.728 | 4.728 | 4.728 Mbytes
   Step          Temp          PotEng         KinEng         TotEng         Press     
        26   1875.702      -102.75051      372.16614      269.41563      10748.733    
        27   1863.7838     -100.32027      369.80139      269.48112      11044.568    
Loop time of 0.00911683 on 1 procs for 1 steps with 1536 atoms

Performance: 9.477 ns/day, 2.532 hours/ns, 109.687 timesteps/s, 168.480 katom-step/s
93.9% CPU use with 1 MPI tasks x no OpenMP threads

MPI task timing breakdown:
Section |  min time  |  avg time  |  max time  |%varavg| %total
---------------------------------------------------------------
Pair    | 0.00060792 | 0.00060792 | 0.00060792 |   0.0 |  6.67
Neigh   | 0.0011476  | 0.0011476  | 0.0011476  |   0.0 | 12.59
Comm    | 4.8999e-05 | 4.8999e-05 | 4.8999e-05 |   0.0 |  0.54
Output  | 0.0072896  | 0.0072896  | 0.0072896  |   0.0 | 79.96
Modify  | 1.4292e-05 | 1.4292e-05 | 1.4292e-05 |   0.0 |  0.16
Other   |            | 8.376e-06  |            |       |  0.09

Nlocal:           1536 ave        1536 max        1536 min
Histogram: 1 0 0 0 0 0 0 0 0 0
Nghost:           5632 ave        5632 max        5632 min
Histogram: 1 0 0 0 0 0 0 0 0 0
Neighs:         104755 ave      104755 max      104755 min
Histogram: 1 0 0 0 0 0 0 0 0 0

Total # of neighbors = 104755
Ave neighs/atom = 68.19987
Neighbor list builds = 1
Dangerous builds not checked
run 1
Generated 0 of 0 mixed pair_coeff terms from geometric mixing rule
Per MPI rank memory allocation (min/avg/max) = 4.728 | 4.728 | 4.728 Mbytes
   Step          Temp          PotEng         KinEng         TotEng         Press     
        27   1863.7838     -100.32027      369.80139      269.48112      11044.568    
        28   1851.0711     -97.726531      367.27902      269.55249      11358.451    
Loop time of 0.009082 on 1 procs for 1 steps with 1536 atoms

Performance: 9.513 ns/day, 2.523 hours/ns, 110.108 timesteps/s, 169.126 katom-step/s
94.1% CPU use with 1 MPI tasks x no OpenMP threads

MPI task timing breakdown:
Section |  min time  |  avg time  |  max time  |%varavg| %total
---------------------------------------------------------------
Pair    | 0.00061412 | 0.00061412 | 0.00061412 |   0.0 |  6.76
Neigh   | 0.0011462  | 0.0011462  | 0.0011462  |   0.0 | 12.62
Comm    | 4.9124e-05 | 4.9124e-05 | 4.9124e-05 |   0.0 |  0.54
Output  | 0.0072516  | 0.0072516  | 0.0072516  |   0.0 | 79.85
Modify  | 1.3209e-05 | 1.3209e-05 | 1.3209e-05 |   0.0 |  0.15
Other   |            | 7.751e-06  |            |       |  0.09

Nlocal:           1536 ave        1536 max        1536 min
Histogram: 1 0 0 0 0 0 0 0 0 0
Nghost:           5632 ave        5632 max        5632 min
Histogram: 1 0 0 0 0 0 0 0 0 0
Neighs:         104750 ave      104750 max      104750 min
Histogram: 1 0 0 0 0 0 0 0 0 0

Total # of neighbors = 104750
Ave neighs/atom = 68.196615
Neighbor list builds = 1
Dangerous builds not checked
run 1
Generated 0 of 0 mixed pair_coeff terms from geometric mixing rule
Per MPI rank memory allocation (min/avg/max) = 4.728 | 4.728 | 4.728 Mbytes
   Step          Temp          PotEng         KinEng         TotEng         Press     
        28   1851.0711     -97.726531      367.27902      269.55249      11358.451    
        29   1837.5286     -94.968416      364.59199      269.62357      11690.694    
Loop time of 0.00924192 on 1 procs for 1 steps with 1536 atoms

Performance: 9.349 ns/day, 2.567 hours/ns, 108.203 timesteps/s, 166.199 katom-step/s
93.1% CPU use with 1 MPI tasks x no OpenMP threads

MPI task timing breakdown:
Section |  min time  |  avg time  |  max time  |%varavg| %total
---------------------------------------------------------------
Pair    | 0.00065146 | 0.00065146 | 0.00065146 |   0.0 |  7.05
Neigh   | 0.0011767  | 0.0011767  | 0.0011767  |   0.0 | 12.73
Comm    | 4.8708e-05 | 4.8708e-05 | 4.8708e-05 |   0.0 |  0.53
Output  | 0.007342   | 0.007342   | 0.007342   |   0.0 | 79.44
Modify  | 1.4541e-05 | 1.4541e-05 | 1.4541e-05 |   0.0 |  0.16
Other   |            | 8.501e-06  |            |       |  0.09

Nlocal:           1536 ave        1536 max        1536 min
Histogram: 1 0 0 0 0 0 0 0 0 0
Nghost:           5632 ave        5632 max        5632 min
Histogram: 1 0 0 0 0 0 0 0 0 0
Neighs:         104727 ave      104727 max      104727 min
Histogram: 1 0 0 0 0 0 0 0 0 0

Total # of neighbors = 104727
Ave neighs/atom = 68.181641
Neighbor list builds = 1
Dangerous builds not checked
run 1
Generated 0 of 0 mixed pair_coeff terms from geometric mixing rule
Per MPI rank memory allocation (min/avg/max) = 4.728 | 4.728 | 4.728 Mbytes
   Step          Temp          PotEng         KinEng         TotEng         Press     
        29   1837.5286     -94.968416      364.59199      269.62357      11690.694    
        30   1823.1217     -92.034485      361.73346      269.69898      12042.194    
Loop time of 0.00908629 on 1 procs for 1 steps with 1536 atoms

Performance: 9.509 ns/day, 2.524 hours/ns, 110.056 timesteps/s, 169.046 katom-step/s
94.2% CPU use with 1 MPI tasks x no OpenMP threads

MPI task timing breakdown:
Section |  min time  |  avg time  |  max time  |%varavg| %total
---------------------------------------------------------------
Pair    | 0.00062171 | 0.00062171 | 0.00062171 |   0.0 |  6.84
Neigh   | 0.0011293  | 0.0011293  | 0.0011293  |   0.0 | 12.43
Comm    | 4.875e-05  | 4.875e-05  | 4.875e-05  |   0.0 |  0.54
Output  | 0.0072653  | 0.0072653  | 0.0072653  |   0.0 | 79.96
Modify  | 1.3333e-05 | 1.3333e-05 | 1.3333e-05 |   0.0 |  0.15
Other   |            | 7.918e-06  |            |       |  0.09

Nlocal:           1536 ave        1536 max        1536 min
Histogram: 1 0 0 0 0 0 0 0 0 0
Nghost:           5632 ave        5632 max        5632 min
Histogram: 1 0 0 0 0 0 0 0 0 0
Neighs:         104693 ave      104693 max      104693 min
Histogram: 1 0 0 0 0 0 0 0 0 0

Total # of neighbors = 104693
Ave neighs/atom = 68.159505
Neighbor list builds = 1
Dangerous builds not checked
run 1
Generated 0 of 0 mixed pair_coeff terms from geometric mixing rule
Per MPI rank memory allocation (min/avg/max) = 4.728 | 4.728 | 4.728 Mbytes
   Step          Temp          PotEng         KinEng         TotEng         Press     
        30   1823.1217     -92.034485      361.73346      269.69898      12042.194    
        31   1807.8184     -88.918408      358.69705      269.77865      12413.532    
Loop time of 0.00915592 on 1 procs for 1 steps with 1536 atoms

Performance: 9.437 ns/day, 2.543 hours/ns, 109.219 timesteps/s, 167.760 katom-step/s
93.4% CPU use with 1 MPI tasks x no OpenMP threads

MPI task timing breakdown:
Section |  min time  |  avg time  |  max time  |%varavg| %total
---------------------------------------------------------------
Pair    | 0.0006235  | 0.0006235  | 0.0006235  |   0.0 |  6.81
Neigh   | 0.0011304  | 0.0011304  | 0.0011304  |   0.0 | 12.35
Comm    | 4.9209e-05 | 4.9209e-05 | 4.9209e-05 |   0.0 |  0.54
Output  | 0.0073313  | 0.0073313  | 0.0073313  |   0.0 | 80.07
Modify  | 1.3625e-05 | 1.3625e-05 | 1.3625e-05 |   0.0 |  0.15
Other   |            | 7.832e-06  |            |       |  0.09

Nlocal:           1536 ave        1536 max        1536 min
Histogram: 1 0 0 0 0 0 0 0 0 0
Nghost:           5632 ave        5632 max        5632 min
Histogram: 1 0 0 0 0 0 0 0 0 0
Neighs:         104666 ave      104666 max      104666 min
Histogram: 1 0 0 0 0 0 0 0 0 0

Total # of neighbors = 104666
Ave neighs/atom = 68.141927
Neighbor list builds = 1
Dangerous builds not checked
run 1
Generated 0 of 0 mixed pair_coeff terms from geometric mixing rule
Per MPI rank memory allocation (min/avg/max) = 4.728 | 4.728 | 4.728 Mbytes
   Step          Temp          PotEng         KinEng         TotEng         Press     
        31   1807.8184     -88.918408      358.69705      269.77865      12413.532    
        32   1791.5895     -85.612294      355.47701      269.86472      12805.342    
Loop time of 0.00915637 on 1 procs for 1 steps with 1536 atoms

Performance: 9.436 ns/day, 2.543 hours/ns, 109.214 timesteps/s, 167.752 katom-step/s
94.2% CPU use with 1 MPI tasks x no OpenMP threads

MPI task timing breakdown:
Section |  min time  |  avg time  |  max time  |%varavg| %total
---------------------------------------------------------------
Pair    | 0.0006365  | 0.0006365  | 0.0006365  |   0.0 |  6.95
Neigh   | 0.0011317  | 0.0011317  | 0.0011317  |   0.0 | 12.36
Comm    | 4.9083e-05 | 4.9083e-05 | 4.9083e-05 |   0.0 |  0.54
Output  | 0.007318   | 0.007318   | 0.007318   |   0.0 | 79.92
Modify  | 1.3334e-05 | 1.3334e-05 | 1.3334e-05 |   0.0 |  0.15
Other   |            | 7.792e-06  |            |       |  0.09

Nlocal:           1536 ave        1536 max        1536 min
Histogram: 1 0 0 0 0 0 0 0 0 0
Nghost:           5632 ave        5632 max        5632 min
Histogram: 1 0 0 0 0 0 0 0 0 0
Neighs:         104624 ave      104624 max      104624 min
Histogram: 1 0 0 0 0 0 0 0 0 0

Total # of neighbors = 104624
Ave neighs/atom = 68.114583
Neighbor list builds = 1
Dangerous builds not checked
run 1
Generated 0 of 0 mixed pair_coeff terms from geometric mixing rule
Per MPI rank memory allocation (min/avg/max) = 4.728 | 4.728 | 4.728 Mbytes
   Step          Temp          PotEng         KinEng         TotEng         Press     
        32   1791.5895     -85.612294      355.47701      269.86472      12805.342    
        33   1774.4106     -82.112521      352.06848      269.95596      13217.971    
Loop time of 0.00938875 on 1 procs for 1 steps with 1536 atoms

Performance: 9.203 ns/day, 2.608 hours/ns, 106.510 timesteps/s, 163.600 katom-step/s
92.6% CPU use with 1 MPI tasks x no OpenMP threads

MPI task timing breakdown:
Section |  min time  |  avg time  |  max time  |%varavg| %total
---------------------------------------------------------------
Pair    | 0.00063421 | 0.00063421 | 0.00063421 |   0.0 |  6.75
Neigh   | 0.0011949  | 0.0011949  | 0.0011949  |   0.0 | 12.73
Comm    | 4.975e-05  | 4.975e-05  | 4.975e-05  |   0.0 |  0.53
Output  | 0.0074857  | 0.0074857  | 0.0074857  |   0.0 | 79.73
Modify  | 1.3374e-05 | 1.3374e-05 | 1.3374e-05 |   0.0 |  0.14
Other   |            | 1.079e-05  |            |       |  0.11

Nlocal:           1536 ave        1536 max        1536 min
Histogram: 1 0 0 0 0 0 0 0 0 0
Nghost:           5632 ave        5632 max        5632 min
Histogram: 1 0 0 0 0 0 0 0 0 0
Neighs:         104584 ave      104584 max      104584 min
Histogram: 1 0 0 0 0 0 0 0 0 0

Total # of neighbors = 104584
Ave neighs/atom = 68.088542
Neighbor list builds = 1
Dangerous builds not checked
run 1
Generated 0 of 0 mixed pair_coeff terms from geometric mixing rule
Per MPI rank memory allocation (min/avg/max) = 4.728 | 4.728 | 4.728 Mbytes
   Step          Temp          PotEng         KinEng         TotEng         Press     
        33   1774.4106     -82.112521      352.06848      269.95596      13217.971    
        34   1756.2635     -78.416842      348.46783      270.05099      13651.627    
Loop time of 0.00912317 on 1 procs for 1 steps with 1536 atoms

Performance: 9.470 ns/day, 2.534 hours/ns, 109.611 timesteps/s, 168.363 katom-step/s
94.3% CPU use with 1 MPI tasks x no OpenMP threads

MPI task timing breakdown:
Section |  min time  |  avg time  |  max time  |%varavg| %total
---------------------------------------------------------------
Pair    | 0.00065238 | 0.00065238 | 0.00065238 |   0.0 |  7.15
Neigh   | 0.0011352  | 0.0011352  | 0.0011352  |   0.0 | 12.44
Comm    | 4.9249e-05 | 4.9249e-05 | 4.9249e-05 |   0.0 |  0.54
Output  | 0.0072643  | 0.0072643  | 0.0072643  |   0.0 | 79.62
Modify  | 1.4125e-05 | 1.4125e-05 | 1.4125e-05 |   0.0 |  0.15
Other   |            | 7.917e-06  |            |       |  0.09

Nlocal:           1536 ave        1536 max        1536 min
Histogram: 1 0 0 0 0 0 0 0 0 0
Nghost:           5632 ave        5632 max        5632 min
Histogram: 1 0 0 0 0 0 0 0 0 0
Neighs:         104540 ave      104540 max      104540 min
Histogram: 1 0 0 0 0 0 0 0 0 0

Total # of neighbors = 104540
Ave neighs/atom = 68.059896
Neighbor list builds = 1
Dangerous builds not checked
run 1
Generated 0 of 0 mixed pair_coeff terms from geometric mixing rule
Per MPI rank memory allocation (min/avg/max) = 4.728 | 4.728 | 4.728 Mbytes
   Step          Temp          PotEng         KinEng         TotEng         Press     
        34   1756.2635     -78.416842      348.46783      270.05099      13651.627    
        35   1737.1376     -74.516628      344.67298      270.15635      14106.806    
Loop time of 0.00979996 on 1 procs for 1 steps with 1536 atoms

Performance: 8.816 ns/day, 2.722 hours/ns, 102.041 timesteps/s, 156.735 katom-step/s
88.2% CPU use with 1 MPI tasks x no OpenMP threads

MPI task timing breakdown:
Section |  min time  |  avg time  |  max time  |%varavg| %total
---------------------------------------------------------------
Pair    | 0.00067575 | 0.00067575 | 0.00067575 |   0.0 |  6.90
Neigh   | 0.0011618  | 0.0011618  | 0.0011618  |   0.0 | 11.85
Comm    | 4.9084e-05 | 4.9084e-05 | 4.9084e-05 |   0.0 |  0.50
Output  | 0.0078915  | 0.0078915  | 0.0078915  |   0.0 | 80.53
Modify  | 1.3709e-05 | 1.3709e-05 | 1.3709e-05 |   0.0 |  0.14
Other   |            | 8.207e-06  |            |       |  0.08

Nlocal:           1536 ave        1536 max        1536 min
Histogram: 1 0 0 0 0 0 0 0 0 0
Nghost:           5632 ave        5632 max        5632 min
Histogram: 1 0 0 0 0 0 0 0 0 0
Neighs:         104498 ave      104498 max      104498 min
Histogram: 1 0 0 0 0 0 0 0 0 0

Total # of neighbors = 104498
Ave neighs/atom = 68.032552
Neighbor list builds = 1
Dangerous builds not checked
run 1
Generated 0 of 0 mixed pair_coeff terms from geometric mixing rule
Per MPI rank memory allocation (min/avg/max) = 4.728 | 4.728 | 4.728 Mbytes
   Step          Temp          PotEng         KinEng         TotEng         Press     
        35   1737.1376     -74.516628      344.67298      270.15635      14106.806    
        36   1717.0322     -70.416833      340.68377      270.26694      14583.142    
Loop time of 0.00929287 on 1 procs for 1 steps with 1536 atoms

Performance: 9.297 ns/day, 2.581 hours/ns, 107.609 timesteps/s, 165.288 katom-step/s
93.7% CPU use with 1 MPI tasks x no OpenMP threads

MPI task timing breakdown:
Section |  min time  |  avg time  |  max time  |%varavg| %total
---------------------------------------------------------------
Pair    | 0.00066013 | 0.00066013 | 0.00066013 |   0.0 |  7.10
Neigh   | 0.0011393  | 0.0011393  | 0.0011393  |   0.0 | 12.26
Comm    | 4.9083e-05 | 4.9083e-05 | 4.9083e-05 |   0.0 |  0.53
Output  | 0.0074229  | 0.0074229  | 0.0074229  |   0.0 | 79.88
Modify  | 1.3125e-05 | 1.3125e-05 | 1.3125e-05 |   0.0 |  0.14
Other   |            | 8.417e-06  |            |       |  0.09

Nlocal:           1536 ave        1536 max        1536 min
Histogram: 1 0 0 0 0 0 0 0 0 0
Nghost:           5632 ave        5632 max        5632 min
Histogram: 1 0 0 0 0 0 0 0 0 0
Neighs:         104449 ave      104449 max      104449 min
Histogram: 1 0 0 0 0 0 0 0 0 0

Total # of neighbors = 104449
Ave neighs/atom = 68.000651
Neighbor list builds = 1
Dangerous builds not checked
run 1
Generated 0 of 0 mixed pair_coeff terms from geometric mixing rule
Per MPI rank memory allocation (min/avg/max) = 4.728 | 4.728 | 4.728 Mbytes
   Step          Temp          PotEng         KinEng         TotEng         Press     
        36   1717.0322     -70.416833      340.68377      270.26694      14583.142    
        37   1695.9582     -66.112583      336.5024       270.38982      15080.719    
Loop time of 0.00914754 on 1 procs for 1 steps with 1536 atoms

Performance: 9.445 ns/day, 2.541 hours/ns, 109.319 timesteps/s, 167.914 katom-step/s
94.3% CPU use with 1 MPI tasks x no OpenMP threads

MPI task timing breakdown:
Section |  min time  |  avg time  |  max time  |%varavg| %total
---------------------------------------------------------------
Pair    | 0.00066346 | 0.00066346 | 0.00066346 |   0.0 |  7.25
Neigh   | 0.00114    | 0.00114    | 0.00114    |   0.0 | 12.46
Comm    | 4.9084e-05 | 4.9084e-05 | 4.9084e-05 |   0.0 |  0.54
Output  | 0.007274   | 0.007274   | 0.007274   |   0.0 | 79.52
Modify  | 1.3334e-05 | 1.3334e-05 | 1.3334e-05 |   0.0 |  0.15
Other   |            | 7.666e-06  |            |       |  0.08

Nlocal:           1536 ave        1536 max        1536 min
Histogram: 1 0 0 0 0 0 0 0 0 0
Nghost:           5632 ave        5632 max        5632 min
Histogram: 1 0 0 0 0 0 0 0 0 0
Neighs:         104398 ave      104398 max      104398 min
Histogram: 1 0 0 0 0 0 0 0 0 0

Total # of neighbors = 104398
Ave neighs/atom = 67.967448
Neighbor list builds = 1
Dangerous builds not checked
run 1
Generated 0 of 0 mixed pair_coeff terms from geometric mixing rule
Per MPI rank memory allocation (min/avg/max) = 4.728 | 4.728 | 4.728 Mbytes
   Step          Temp          PotEng         KinEng         TotEng         Press     
        37   1695.9582     -66.112583      336.5024       270.38982      15080.719    
        38   1673.9405     -61.61491       332.13377      270.51886      15598.595    
Loop time of 0.00935158 on 1 procs for 1 steps with 1536 atoms

Performance: 9.239 ns/day, 2.598 hours/ns, 106.934 timesteps/s, 164.250 katom-step/s
92.8% CPU use with 1 MPI tasks x no OpenMP threads

MPI task timing breakdown:
Section |  min time  |  avg time  |  max time  |%varavg| %total
---------------------------------------------------------------
Pair    | 0.00068821 | 0.00068821 | 0.00068821 |   0.0 |  7.36
Neigh   | 0.0011571  | 0.0011571  | 0.0011571  |   0.0 | 12.37
Comm    | 4.8875e-05 | 4.8875e-05 | 4.8875e-05 |   0.0 |  0.52
Output  | 0.0074355  | 0.0074355  | 0.0074355  |   0.0 | 79.51
Modify  | 1.4e-05    | 1.4e-05    | 1.4e-05    |   0.0 |  0.15
Other   |            | 7.874e-06  |            |       |  0.08

Nlocal:           1536 ave        1536 max        1536 min
Histogram: 1 0 0 0 0 0 0 0 0 0
Nghost:           5632 ave        5632 max        5632 min
Histogram: 1 0 0 0 0 0 0 0 0 0
Neighs:         104339 ave      104339 max      104339 min
Histogram: 1 0 0 0 0 0 0 0 0 0

Total # of neighbors = 104339
Ave neighs/atom = 67.929036
Neighbor list builds = 1
Dangerous builds not checked
run 1
Generated 0 of 0 mixed pair_coeff terms from geometric mixing rule
Per MPI rank memory allocation (min/avg/max) = 4.728 | 4.728 | 4.728 Mbytes
   Step          Temp          PotEng         KinEng         TotEng         Press     
        38   1673.9405     -61.61491       332.13377      270.51886      15598.595    
        39   1651.0194     -56.930545      327.5859       270.65536      16135.932    
Loop time of 0.00930025 on 1 procs for 1 steps with 1536 atoms

Performance: 9.290 ns/day, 2.583 hours/ns, 107.524 timesteps/s, 165.157 katom-step/s
93.2% CPU use with 1 MPI tasks x no OpenMP threads

MPI task timing breakdown:
Section |  min time  |  avg time  |  max time  |%varavg| %total
---------------------------------------------------------------
Pair    | 0.00069883 | 0.00069883 | 0.00069883 |   0.0 |  7.51
Neigh   | 0.0011413  | 0.0011413  | 0.0011413  |   0.0 | 12.27
Comm    | 4.925e-05  | 4.925e-05  | 4.925e-05  |   0.0 |  0.53
Output  | 0.0073894  | 0.0073894  | 0.0073894  |   0.0 | 79.45
Modify  | 1.3457e-05 | 1.3457e-05 | 1.3457e-05 |   0.0 |  0.14
Other   |            | 8.043e-06  |            |       |  0.09

Nlocal:           1536 ave        1536 max        1536 min
Histogram: 1 0 0 0 0 0 0 0 0 0
Nghost:           5632 ave        5632 max        5632 min
Histogram: 1 0 0 0 0 0 0 0 0 0
Neighs:         104305 ave      104305 max      104305 min
Histogram: 1 0 0 0 0 0 0 0 0 0

Total # of neighbors = 104305
Ave neighs/atom = 67.906901
Neighbor list builds = 1
Dangerous builds not checked
run 1
Generated 0 of 0 mixed pair_coeff terms from geometric mixing rule
Per MPI rank memory allocation (min/avg/max) = 4.728 | 4.728 | 4.728 Mbytes
   Step          Temp          PotEng         KinEng         TotEng         Press     
        39   1651.0194     -56.930545      327.5859       270.65536      16135.932    
        40   1627.2526     -52.069319      322.87022      270.8009       16691.564    
Loop time of 0.00926246 on 1 procs for 1 steps with 1536 atoms

Performance: 9.328 ns/day, 2.573 hours/ns, 107.963 timesteps/s, 165.831 katom-step/s
93.3% CPU use with 1 MPI tasks x no OpenMP threads

MPI task timing breakdown:
Section |  min time  |  avg time  |  max time  |%varavg| %total
---------------------------------------------------------------
Pair    | 0.00068696 | 0.00068696 | 0.00068696 |   0.0 |  7.42
Neigh   | 0.0011399  | 0.0011399  | 0.0011399  |   0.0 | 12.31
Comm    | 4.8792e-05 | 4.8792e-05 | 4.8792e-05 |   0.0 |  0.53
Output  | 0.0073655  | 0.0073655  | 0.0073655  |   0.0 | 79.52
Modify  | 1.3333e-05 | 1.3333e-05 | 1.3333e-05 |   0.0 |  0.14
Other   |            | 8.001e-06  |            |       |  0.09

Nlocal:           1536 ave        1536 max        1536 min
Histogram: 1 0 0 0 0 0 0 0 0 0
Nghost:           5632 ave        5632 max        5632 min
Histogram: 1 0 0 0 0 0 0 0 0 0
Neighs:         104268 ave      104268 max      104268 min
Histogram: 1 0 0 0 0 0 0 0 0 0

Total # of neighbors = 104268
Ave neighs/atom = 67.882812
Neighbor list builds = 1
Dangerous builds not checked
run 1
Generated 0 of 0 mixed pair_coeff terms from geometric mixing rule
Per MPI rank memory allocation (min/avg/max) = 4.728 | 4.728 | 4.728 Mbytes
   Step          Temp          PotEng         KinEng         TotEng         Press     
        40   1627.2526     -52.069319      322.87022      270.8009       16691.564    
        41   1602.716      -47.043053      318.00182      270.95876      17264.051    
Loop time of 0.00919317 on 1 procs for 1 steps with 1536 atoms

Performance: 9.398 ns/day, 2.554 hours/ns, 108.776 timesteps/s, 167.081 katom-step/s
94.3% CPU use with 1 MPI tasks x no OpenMP threads

MPI task timing breakdown:
Section |  min time  |  avg time  |  max time  |%varavg| %total
---------------------------------------------------------------
Pair    | 0.00068533 | 0.00068533 | 0.00068533 |   0.0 |  7.45
Neigh   | 0.0011622  | 0.0011622  | 0.0011622  |   0.0 | 12.64
Comm    | 5.0626e-05 | 5.0626e-05 | 5.0626e-05 |   0.0 |  0.55
Output  | 0.0072733  | 0.0072733  | 0.0072733  |   0.0 | 79.12
Modify  | 1.3584e-05 | 1.3584e-05 | 1.3584e-05 |   0.0 |  0.15
Other   |            | 8.081e-06  |            |       |  0.09

Nlocal:           1536 ave        1536 max        1536 min
Histogram: 1 0 0 0 0 0 0 0 0 0
Nghost:           5632 ave        5632 max        5632 min
Histogram: 1 0 0 0 0 0 0 0 0 0
Neighs:         104196 ave      104196 max      104196 min
Histogram: 1 0 0 0 0 0 0 0 0 0

Total # of neighbors = 104196
Ave neighs/atom = 67.835938
Neighbor list builds = 1
Dangerous builds not checked
run 1
Generated 0 of 0 mixed pair_coeff terms from geometric mixing rule
Per MPI rank memory allocation (min/avg/max) = 4.728 | 4.728 | 4.728 Mbytes
   Step          Temp          PotEng         KinEng         TotEng         Press     
        41   1602.716      -47.043053      318.00182      270.95876      17264.051    
        42   1577.5045     -41.870378      312.99949      271.12911      17851.402    
Loop time of 0.0095215 on 1 procs for 1 steps with 1536 atoms

Performance: 9.074 ns/day, 2.645 hours/ns, 105.025 timesteps/s, 161.319 katom-step/s
92.6% CPU use with 1 MPI tasks x no OpenMP threads

MPI task timing breakdown:
Section |  min time  |  avg time  |  max time  |%varavg| %total
---------------------------------------------------------------
Pair    | 0.00069321 | 0.00069321 | 0.00069321 |   0.0 |  7.28
Neigh   | 0.00115    | 0.00115    | 0.00115    |   0.0 | 12.08
Comm    | 4.875e-05  | 4.875e-05  | 4.875e-05  |   0.0 |  0.51
Output  | 0.0076043  | 0.0076043  | 0.0076043  |   0.0 | 79.86
Modify  | 1.3125e-05 | 1.3125e-05 | 1.3125e-05 |   0.0 |  0.14
Other   |            | 1.212e-05  |            |       |  0.13

Nlocal:           1536 ave        1536 max        1536 min
Histogram: 1 0 0 0 0 0 0 0 0 0
Nghost:           5632 ave        5632 max        5632 min
Histogram: 1 0 0 0 0 0 0 0 0 0
Neighs:         104137 ave      104137 max      104137 min
Histogram: 1 0 0 0 0 0 0 0 0 0

Total # of neighbors = 104137
Ave neighs/atom = 67.797526
Neighbor list builds = 1
Dangerous builds not checked
run 1
Generated 0 of 0 mixed pair_coeff terms from geometric mixing rule
Per MPI rank memory allocation (min/avg/max) = 4.728 | 4.728 | 4.728 Mbytes
   Step          Temp          PotEng         KinEng         TotEng         Press     
        42   1577.5045     -41.870378      312.99949      271.12911      17851.402    
        43   1551.7313     -36.576499      307.88572      271.30922      18451.095    
Loop time of 0.00921067 on 1 procs for 1 steps with 1536 atoms

Performance: 9.380 ns/day, 2.559 hours/ns, 108.570 timesteps/s, 166.763 katom-step/s
94.3% CPU use with 1 MPI tasks x no OpenMP threads

MPI task timing breakdown:
Section |  min time  |  avg time  |  max time  |%varavg| %total
---------------------------------------------------------------
Pair    | 0.00070625 | 0.00070625 | 0.00070625 |   0.0 |  7.67
Neigh   | 0.0011493  | 0.0011493  | 0.0011493  |   0.0 | 12.48
Comm    | 4.9292e-05 | 4.9292e-05 | 4.9292e-05 |   0.0 |  0.54
Output  | 0.0072833  | 0.0072833  | 0.0072833  |   0.0 | 79.07
Modify  | 1.4625e-05 | 1.4625e-05 | 1.4625e-05 |   0.0 |  0.16
Other   |            | 7.917e-06  |            |       |  0.09

Nlocal:           1536 ave        1536 max        1536 min
Histogram: 1 0 0 0 0 0 0 0 0 0
Nghost:           5632 ave        5632 max        5632 min
Histogram: 1 0 0 0 0 0 0 0 0 0
Neighs:         104074 ave      104074 max      104074 min
Histogram: 1 0 0 0 0 0 0 0 0 0

Total # of neighbors = 104074
Ave neighs/atom = 67.75651
Neighbor list builds = 1
Dangerous builds not checked
run 1
Generated 0 of 0 mixed pair_coeff terms from geometric mixing rule
Per MPI rank memory allocation (min/avg/max) = 4.728 | 4.728 | 4.728 Mbytes
   Step          Temp          PotEng         KinEng         TotEng         Press     
        43   1551.7313     -36.576499      307.88572      271.30922      18451.095    
        44   1525.527      -31.185035      302.68641      271.50138      19060.546    
Loop time of 0.00953271 on 1 procs for 1 steps with 1536 atoms

Performance: 9.064 ns/day, 2.648 hours/ns, 104.902 timesteps/s, 161.129 katom-step/s
92.3% CPU use with 1 MPI tasks x no OpenMP threads

MPI task timing breakdown:
Section |  min time  |  avg time  |  max time  |%varavg| %total
---------------------------------------------------------------
Pair    | 0.00072221 | 0.00072221 | 0.00072221 |   0.0 |  7.58
Neigh   | 0.0011564  | 0.0011564  | 0.0011564  |   0.0 | 12.13
Comm    | 4.9375e-05 | 4.9375e-05 | 4.9375e-05 |   0.0 |  0.52
Output  | 0.0075821  | 0.0075821  | 0.0075821  |   0.0 | 79.54
Modify  | 1.3751e-05 | 1.3751e-05 | 1.3751e-05 |   0.0 |  0.14
Other   |            | 8.874e-06  |            |       |  0.09

Nlocal:           1536 ave        1536 max        1536 min
Histogram: 1 0 0 0 0 0 0 0 0 0
Nghost:           5632 ave        5632 max        5632 min
Histogram: 1 0 0 0 0 0 0 0 0 0
Neighs:         104004 ave      104004 max      104004 min
Histogram: 1 0 0 0 0 0 0 0 0 0

Total # of neighbors = 104004
Ave neighs/atom = 67.710938
Neighbor list builds = 1
Dangerous builds not checked
run 1
Generated 0 of 0 mixed pair_coeff terms from geometric mixing rule
Per MPI rank memory allocation (min/avg/max) = 4.728 | 4.728 | 4.728 Mbytes
   Step          Temp          PotEng         KinEng         TotEng         Press     
        44   1525.527      -31.185035      302.68641      271.50138      19060.546    
        45   1499.0373     -25.724345      297.43047      271.70613      19676.771    
Loop time of 0.00996396 on 1 procs for 1 steps with 1536 atoms

Performance: 8.671 ns/day, 2.768 hours/ns, 100.362 timesteps/s, 154.156 katom-step/s
93.8% CPU use with 1 MPI tasks x no OpenMP threads

MPI task timing breakdown:
Section |  min time  |  avg time  |  max time  |%varavg| %total
---------------------------------------------------------------
Pair    | 0.00076771 | 0.00076771 | 0.00076771 |   0.0 |  7.70
Neigh   | 0.0012368  | 0.0012368  | 0.0012368  |   0.0 | 12.41
Comm    | 5.3292e-05 | 5.3292e-05 | 5.3292e-05 |   0.0 |  0.53
Output  | 0.007879   | 0.007879   | 0.007879   |   0.0 | 79.07
Modify  | 1.6292e-05 | 1.6292e-05 | 1.6292e-05 |   0.0 |  0.16
Other   |            | 1.091e-05  |            |       |  0.11

Nlocal:           1536 ave        1536 max        1536 min
Histogram: 1 0 0 0 0 0 0 0 0 0
Nghost:           5632 ave        5632 max        5632 min
Histogram: 1 0 0 0 0 0 0 0 0 0
Neighs:         103938 ave      103938 max      103938 min
Histogram: 1 0 0 0 0 0 0 0 0 0

Total # of neighbors = 103938
Ave neighs/atom = 67.667969
Neighbor list builds = 1
Dangerous builds not checked
run 1
Generated 0 of 0 mixed pair_coeff terms from geometric mixing rule
Per MPI rank memory allocation (min/avg/max) = 4.728 | 4.728 | 4.728 Mbytes
   Step          Temp          PotEng         KinEng         TotEng         Press     
        45   1499.0373     -25.724345      297.43047      271.70613      19676.771    
        46   1472.4199     -20.229283      292.14919      271.91991      20296.315    
Loop time of 0.010002 on 1 procs for 1 steps with 1536 atoms

Performance: 8.638 ns/day, 2.778 hours/ns, 99.980 timesteps/s, 153.570 katom-step/s
93.0% CPU use with 1 MPI tasks x no OpenMP threads

MPI task timing breakdown:
Section |  min time  |  avg time  |  max time  |%varavg| %total
---------------------------------------------------------------
Pair    | 0.00077679 | 0.00077679 | 0.00077679 |   0.0 |  7.77
Neigh   | 0.0012181  | 0.0012181  | 0.0012181  |   0.0 | 12.18
Comm    | 5.2209e-05 | 5.2209e-05 | 5.2209e-05 |   0.0 |  0.52
Output  | 0.0079259  | 0.0079259  | 0.0079259  |   0.0 | 79.24
Modify  | 1.6333e-05 | 1.6333e-05 | 1.6333e-05 |   0.0 |  0.16
Other   |            | 1.267e-05  |            |       |  0.13

Nlocal:           1536 ave        1536 max        1536 min
Histogram: 1 0 0 0 0 0 0 0 0 0
Nghost:           5632 ave        5632 max        5632 min
Histogram: 1 0 0 0 0 0 0 0 0 0
Neighs:         103876 ave      103876 max      103876 min
Histogram: 1 0 0 0 0 0 0 0 0 0

Total # of neighbors = 103876
Ave neighs/atom = 67.627604
Neighbor list builds = 1
Dangerous builds not checked
run 1
Generated 0 of 0 mixed pair_coeff terms from geometric mixing rule
Per MPI rank memory allocation (min/avg/max) = 4.728 | 4.728 | 4.728 Mbytes
   Step          Temp          PotEng         KinEng         TotEng         Press     
        46   1472.4199     -20.229283      292.14919      271.91991      20296.315    
        47   1445.8409     -14.729322      286.87554      272.14622      20915.956    
Loop time of 0.00941238 on 1 procs for 1 steps with 1536 atoms

Performance: 9.179 ns/day, 2.615 hours/ns, 106.243 timesteps/s, 163.189 katom-step/s
92.9% CPU use with 1 MPI tasks x no OpenMP threads

MPI task timing breakdown:
Section |  min time  |  avg time  |  max time  |%varavg| %total
---------------------------------------------------------------
Pair    | 0.00073454 | 0.00073454 | 0.00073454 |   0.0 |  7.80
Neigh   | 0.0011598  | 0.0011598  | 0.0011598  |   0.0 | 12.32
Comm    | 4.9375e-05 | 4.9375e-05 | 4.9375e-05 |   0.0 |  0.52
Output  | 0.0074459  | 0.0074459  | 0.0074459  |   0.0 | 79.11
Modify  | 1.4209e-05 | 1.4209e-05 | 1.4209e-05 |   0.0 |  0.15
Other   |            | 8.5e-06    |            |       |  0.09

Nlocal:           1536 ave        1536 max        1536 min
Histogram: 1 0 0 0 0 0 0 0 0 0
Nghost:           5632 ave        5632 max        5632 min
Histogram: 1 0 0 0 0 0 0 0 0 0
Neighs:         103821 ave      103821 max      103821 min
Histogram: 1 0 0 0 0 0 0 0 0 0

Total # of neighbors = 103821
Ave neighs/atom = 67.591797
Neighbor list builds = 1
Dangerous builds not checked
run 1
Generated 0 of 0 mixed pair_coeff terms from geometric mixing rule
Per MPI rank memory allocation (min/avg/max) = 4.728 | 4.728 | 4.728 Mbytes
   Step          Temp          PotEng         KinEng         TotEng         Press     
        47   1445.8409     -14.729322      286.87554      272.14622      20915.956    
        48   1419.4706     -9.2612265      281.64329      272.38207      21532.022    
Loop time of 0.00928242 on 1 procs for 1 steps with 1536 atoms

Performance: 9.308 ns/day, 2.578 hours/ns, 107.731 timesteps/s, 165.474 katom-step/s
94.3% CPU use with 1 MPI tasks x no OpenMP threads

MPI task timing breakdown:
Section |  min time  |  avg time  |  max time  |%varavg| %total
---------------------------------------------------------------
Pair    | 0.00074933 | 0.00074933 | 0.00074933 |   0.0 |  8.07
Neigh   | 0.0011621  | 0.0011621  | 0.0011621  |   0.0 | 12.52
Comm    | 4.8958e-05 | 4.8958e-05 | 4.8958e-05 |   0.0 |  0.53
Output  | 0.0073008  | 0.0073008  | 0.0073008  |   0.0 | 78.65
Modify  | 1.3416e-05 | 1.3416e-05 | 1.3416e-05 |   0.0 |  0.14
Other   |            | 7.792e-06  |            |       |  0.08

Nlocal:           1536 ave        1536 max        1536 min
Histogram: 1 0 0 0 0 0 0 0 0 0
Nghost:           5632 ave        5632 max        5632 min
Histogram: 1 0 0 0 0 0 0 0 0 0
Neighs:         103760 ave      103760 max      103760 min
Histogram: 1 0 0 0 0 0 0 0 0 0

Total # of neighbors = 103760
Ave neighs/atom = 67.552083
Neighbor list builds = 1
Dangerous builds not checked
run 1
Generated 0 of 0 mixed pair_coeff terms from geometric mixing rule
Per MPI rank memory allocation (min/avg/max) = 4.728 | 4.728 | 4.728 Mbytes
   Step          Temp          PotEng         KinEng         TotEng         Press     
        48   1419.4706     -9.2612265      281.64329      272.38207      21532.022    
        49   1393.479      -3.8558649      276.4862       272.63033      22141.177    
Loop time of 0.00942263 on 1 procs for 1 steps with 1536 atoms

Performance: 9.169 ns/day, 2.617 hours/ns, 106.128 timesteps/s, 163.012 katom-step/s
93.3% CPU use with 1 MPI tasks x no OpenMP threads

MPI task timing breakdown:
Section |  min time  |  avg time  |  max time  |%varavg| %total
---------------------------------------------------------------
Pair    | 0.00073617 | 0.00073617 | 0.00073617 |   0.0 |  7.81
Neigh   | 0.0011659  | 0.0011659  | 0.0011659  |   0.0 | 12.37
Comm    | 4.8917e-05 | 4.8917e-05 | 4.8917e-05 |   0.0 |  0.52
Output  | 0.0074485  | 0.0074485  | 0.0074485  |   0.0 | 79.05
Modify  | 1.3792e-05 | 1.3792e-05 | 1.3792e-05 |   0.0 |  0.15
Other   |            | 9.292e-06  |            |       |  0.10

Nlocal:           1536 ave        1536 max        1536 min
Histogram: 1 0 0 0 0 0 0 0 0 0
Nghost:           5632 ave        5632 max        5632 min
Histogram: 1 0 0 0 0 0 0 0 0 0
Neighs:         103708 ave      103708 max      103708 min
Histogram: 1 0 0 0 0 0 0 0 0 0

Total # of neighbors = 103708
Ave neighs/atom = 67.518229
Neighbor list builds = 1
Dangerous builds not checked
run 1
Generated 0 of 0 mixed pair_coeff terms from geometric mixing rule
Per MPI rank memory allocation (min/avg/max) = 4.728 | 4.728 | 4.728 Mbytes
   Step          Temp          PotEng         KinEng         TotEng         Press     
        49   1393.479      -3.8558649      276.4862       272.63033      22141.177    
        50   1368.0318      1.4493268      271.4371       272.88642      22739.752    
Loop time of 0.00927258 on 1 procs for 1 steps with 1536 atoms

Performance: 9.318 ns/day, 2.576 hours/ns, 107.845 timesteps/s, 165.650 katom-step/s
94.4% CPU use with 1 MPI tasks x no OpenMP threads

MPI task timing breakdown:
Section |  min time  |  avg time  |  max time  |%varavg| %total
---------------------------------------------------------------
Pair    | 0.00074438 | 0.00074438 | 0.00074438 |   0.0 |  8.03
Neigh   | 0.001162   | 0.001162   | 0.001162   |   0.0 | 12.53
Comm    | 5.1874e-05 | 5.1874e-05 | 5.1874e-05 |   0.0 |  0.56
Output  | 0.0072931  | 0.0072931  | 0.0072931  |   0.0 | 78.65
Modify  | 1.3334e-05 | 1.3334e-05 | 1.3334e-05 |   0.0 |  0.14
Other   |            | 7.834e-06  |            |       |  0.08

Nlocal:           1536 ave        1536 max        1536 min
Histogram: 1 0 0 0 0 0 0 0 0 0
Nghost:           5632 ave        5632 max        5632 min
Histogram: 1 0 0 0 0 0 0 0 0 0
Neighs:         103667 ave      103667 max      103667 min
Histogram: 1 0 0 0 0 0 0 0 0 0

Total # of neighbors = 103667
Ave neighs/atom = 67.491536
Neighbor list builds = 1
Dangerous builds not checked
