96
 Atoms. Timestep: 0
1   10.8872619700000008    8.4562843700000005    3.7519201999999998
1    2.7682177200000000   10.2805686600000001    5.4050766000000001
1    5.2661078999999997    5.8903774300000000    6.3473908999999997
1    2.3234128500000000    3.2823558199999998    4.5907470999999997
1    4.2106383799999998    6.7881501100000001    2.6523938999999999
1    4.2482845500000002    9.9314096299999992    9.3820323999999999
1    0.1142743800000000    0.0620883100000000    9.2552570000000003
1    0.5961936000000000    2.3333637399999998    7.0547306000000001
1    1.2350242499999999    5.4572453100000002    9.2364622000000001
1    6.5585646899999999    3.2954576499999999    3.9863734000000002
1    5.3354822200000003    0.2000503100000000    6.8009212000000003
1    3.5588698499999998    3.7985817599999998    8.7246772999999997
1    7.4227238499999997    7.1833115000000003    8.9492876999999993
1    5.1314672300000002    1.7989666600000001   10.9839490000000009
1    9.6043533100000005    6.0175944799999996    6.9577751000000001
1    1.6444819700000000    6.7989453800000001    6.2042459000000001
1    9.9772603800000006    6.2552431999999998    0.0583646000000000
1    1.4489142600000000    2.5210595300000000    0.5942683000000000
1    9.9731027799999996    9.7864869599999995    6.7025277000000001
1    1.5403115300000001    6.2348670200000003    1.9041433999999999
1   10.1504474800000004    0.1355879100000000    1.7069723000000001
1    7.2382545399999998    8.0330458300000007    4.1684805999999996
1    8.3199954799999993    0.5598223400000000    8.6503259000000003
1    6.8774039900000004    5.3320168199999998    0.9926531000000000
1    4.5566227000000001    6.4139282599999996   10.2857575000000008
1    1.9637026900000001    8.9887812000000000    0.0439998000000000
1    7.4158237199999997    3.6301289699999999    7.2695812999999996
1    4.5377032599999998    0.6808431300000000    3.1163341000000000
1    6.9858429900000001    9.6046346600000003    0.3723487000000000
1    8.6115279200000003    2.4922300700000002    0.1118609000000000
1    7.7270777800000001   10.7591459999999994    4.2118387000000004
1    9.9888031799999997    2.9678138600000001    3.4581238000000001
2    0.8992960600000000   10.6864644599999998    7.5390086700000003
2    6.7075754400000003    9.5422469000000003    5.4586596199999997
2    4.2623142899999999    1.3604461200000000    9.2361252300000007
2    6.5996505900000004   10.6072639899999999    7.8373401700000001
2    3.1314888000000001   10.4900214900000002    0.0162407800000000
2   10.9008224200000008    7.2841989299999996    2.1318183700000000
2    9.0988866500000007    9.1267366499999998    4.4419974299999998
2    0.4414378900000000    4.7006667699999998    0.6985599700000000
2    5.6597280300000001    4.4100263699999998    7.4915150300000004
2    1.8611853700000001    1.1568000100000000    5.4640654700000004
2    0.2583514500000000    8.9755244199999993   10.9068411899999997
2    9.0548527399999994    8.0792885600000002    7.6211215000000001
2    9.7293191100000005    1.1732500600000000   10.4309134100000005
2    4.3930576099999996   11.0582403500000002    5.0160466699999997
2    6.0054828699999998    6.6232011499999999    4.6454218400000000
2    6.5573901899999996    2.9991108199999998    0.8416408200000000
2   10.8289244000000000    6.5058321299999999    5.4410252999999997
2    1.8983061600000000    7.3741918899999996    3.3560855599999999
2    5.3609917800000000    6.6518150100000000    1.0310178200000000
2    3.3383210700000001    1.8896659400000000    0.3776929100000000
2    5.6323954100000000    8.9796486000000009   10.0535500500000001
2    4.0083879199999997    2.5170635300000002    2.9854359499999998
2    2.2748493399999998    3.2579365500000002    7.2145859100000003
2    8.1754375699999997    7.0892364600000004    0.8372943900000001
2    8.7372767899999992   10.1572731899999997    1.1427389500000000
2    7.6721479600000002    5.7576417900000001    6.5717552699999997
2    2.8573021000000001    5.3058821299999996    2.5846852100000000
2   11.0496160200000002    4.5237725900000001    7.8645253999999998
2    7.0974205000000001    8.7987293199999996    2.4469050299999999
2    2.7639507100000000    5.0433260899999999    6.0009321699999996
2    0.3105592900000000    9.0883059700000004    5.6079435999999996
2    3.1714078699999999    5.7927073699999996    9.0546962299999993
2   10.2930971299999996    1.2217674700000001    7.9251554200000003
2    4.7185160200000000    4.2404048599999999   10.0406465899999997
2    1.1462654299999999    6.6556243999999998   11.0138255699999998
2    9.8782392199999993    4.7216192000000001    3.7816931999999999
2    5.0942635799999998    3.9785664700000001    5.0894828499999996
2    8.8305780899999995    4.3079392299999997    0.0261620100000000
2    3.0712221000000000   10.2141261399999994    3.2803941399999998
2    7.0356257600000003    0.4958538800000000   10.2378326499999996
2    3.3472604000000001    8.1563256400000004    9.8034061799999996
2    5.6974389600000004    6.8821400700000002    8.0734096399999995
2    8.0485931799999992    2.7970448399999999    5.0298017300000000
2    0.3021852100000000   10.1073913500000003    2.5455883099999999
2    1.1153934400000001    7.1461635000000001    8.0700614300000009
2    0.6031487200000000    0.8197781400000000    0.1607944700000000
2    9.7410407400000008    2.2071615699999998    1.6428867199999999
2    6.9329835900000001    5.7775663300000000   10.2127439399999993
2    0.4413329300000000    3.4393040099999999    4.9126227699999996
2    6.2104950800000003    4.9301905499999998    2.8262671699999999
2    9.7264287500000002   10.0820245100000001    9.0428253200000004
2    1.5449955200000001    3.6458910300000000   10.0669020200000006
2    3.4866860300000000    7.3412674700000000    5.9582810100000003
2    1.1235467100000001    3.1292215600000000    2.9788549400000002
2    8.4392817400000002    0.1819419400000000    5.8820224500000000
2    5.3682652300000004    0.5115820599999999    1.2046327699999999
2    8.0774973800000005    8.5162950500000001   10.2922670800000002
2    9.5140077999999999    5.8985431400000001    9.1500391800000003
2    8.2219958599999998    2.5738912699999998    8.9791284400000002
2    3.9301748999999999   10.0729433299999993    7.4269552100000000
2    3.2190650199999999    7.1542058099999997    1.0534665200000000
2    6.3645665700000000    2.0810346100000001    7.3590762900000000
2    6.7014198299999999    1.0770554000000001    3.4241068800000001
2    9.3346107899999993    0.8531612900000000    3.4202645000000000
96
 Atoms. Timestep: 1
1   10.8864711778282715    8.4520522586635725    3.7529201790418383
1    2.7707255654608223   10.2767994944125913    5.4031571566960066
1    5.2607308586157524    5.8858371657479163    6.3493083668806607
1    2.3245881623562776    3.2894352584699966    4.5889186981841901
1    4.2081233294096734    6.7828225240932358    2.6572514171654200
1    4.2425335103682418    9.9334155009777287    9.3843500969052052
1    0.1179244670925447    0.0569498926208407    9.2516069068091316
1    0.6001142684125794    2.3350434826616766    7.0599446676251061
1    1.2368635325899122    5.4594248917290571    9.2403203863193024
1    6.5458352845916430    3.3019419734040887    3.9799276169096984
1    5.3368183158664344    0.1949469222432837    6.8034998640385114
1    3.5550821426185037    3.7961167142613994    8.7181395514853790
1    7.4207893173528445    7.1811619512472733    8.9588274260891136
1    5.1395784940565132    1.8026677467248038   10.9861571925356269
1    9.6002280283986678    6.0179199486002295    6.9586757107110353
1    1.6393117408660869    6.7944256594131831    6.2062505201230769
1    9.9791693797913528    6.2522501411423761    0.0634782749923632
1    1.4522048597485067    2.5199077302000430    0.5872694005539254
1    9.9781752087312459    9.7840757346361595    6.6986934516723631
1    1.5439295917964997    6.2395299066200138    1.9095241468368891
1   10.1447126601016890    0.1314657696401260    1.7053389511667645
1    7.2394569883661575    8.0323865506473346    4.1695012524958361
1    8.3206265106514223    0.5598510691569207    8.6545400025640475
1    6.8773252491907035    5.3316231518078148    0.9820370629878560
1    4.5572708782766576    6.4208453756797335   10.2800778657200453
1    1.9670795805506951    8.9902847670840078    0.0421105522257683
1    7.4183704629209615    3.6288847794377079    7.2694250338114719
1    4.5355525990042853    0.6787741378636866    3.1216381467739218
1    6.9895114771164213    9.6084403937855640    0.3799185282578750
1    8.6145563506398179    2.4934105084069440    0.1107820731997774
1    7.7280735021474731   10.7544972624236852    4.2086782247640544
1    9.9911384722195553    2.9730149824500760    3.4543766421394961
2    0.8944025682856298   10.6800888457083385    7.5625689869288468
2    6.7065342290942667    9.5522050534513951    5.4501653852389529
2    4.2587039902148200    1.3660224895953763    9.2413098922921133
2    6.6086678307981996   10.6163350186734533    7.8392176961897668
2    3.1324443351501401   10.4751997797419243    0.0418242788572164
2   10.8922569614572868    7.2752249644114313    2.1153554680070146
2    9.1162938921872563    9.1589656531586598    4.4358367883954397
2    0.4468047400889708    4.7136289091482855    0.6759017521692640
2    5.6428038233265907    4.3957355934122724    7.4734988625015841
2    1.8660795962189471    1.1466877414906784    5.4621380234835275
2    0.2409713490738776    8.9557657607023735   10.9406217880278422
2    9.0550130667284954    8.0776809414486994    7.6285415491583164
2    9.7273429178798221    1.1994977403030436   10.4118490364604011
2    4.3996084612115496   11.0709328329348029    5.0148951170655076
2    5.9934252247186306    6.6281508754540397    4.6501623615138250
2    6.5651264609623574    2.9965972092179882    0.8427577309529255
2   10.8564582001906391    6.4894400105629728    5.4363433250768178
2    1.8786966723512302    7.3638597829723054    3.3351547279986513
2    5.3579247941924617    6.6557805661311580    1.0444670780705236
2    3.3222936708315998    1.8846817494330721    0.3788233768442525
2    5.6172187599868000    8.9828426071412650   10.0517633799711241
2    3.9990238463258607    2.5485547687731920    2.9898103144043975
2    2.2600101060327522    3.2716673055959289    7.2076115444802316
2    8.1793010316381629    7.0685345005878251    0.8450597121806682
2    8.7425229829715274   10.1593545455446126    1.1650033071086059
2    7.6950361836645307    5.7511362235947745    6.5577629223111877
2    2.8476808158722617    5.3270988063883085    2.5845565264954375
2   11.0614906704702989    4.5431054345349811    7.8900268922452721
2    7.0943956264062358    8.7868959946431531    2.4436579204814737
2    2.7514838228625833    5.0455801558012912    5.9805165827138183
2    0.2919064643447015    9.0771049133710591    5.5950470214730208
2    3.1478604250915772    5.7998356910016575    9.0688742526893833
2   10.2880233945807298    1.2238487295666007    7.9041805196716863
2    4.7089281320233898    4.2234627711996842   10.0290304604264335
2    1.1655486242607120    6.6480048389345265   11.0000399899490446
2    9.8649380550229893    4.7314265725497542    3.7619526367685197
2    5.1041054924118585    3.9900971497497455    5.0927713374517065
2    8.8455080422268093    4.2945706595907511    0.0295766277721411
2    3.0582942167165164   10.2105472053831665    3.2941933830830741
2    7.0761185099749424    0.5152076829375856   10.2366466297897336
2    3.3674900064629996    8.1453623101222448    9.8014979208285631
2    5.7054215322038733    6.8956902935370126    8.0830588459838850
2    8.0591158347308838    2.8128363403993135    5.0096601505077007
2    0.3036258106222338   10.0986855890641554    2.5377433053356908
2    1.1224214460002735    7.1425156981007101    8.0449651769178612
2    0.6128746034892641    0.8038258022710851    0.1731469374409283
2    9.7366868237513788    2.2142125191698860    1.6473859605717460
2    6.9479618348681305    5.8097298042351513   10.2181055519722985
2    0.4301405085197982    3.4369214485709181    4.9184906782813043
2    6.1985130835737685    4.9022820965267719    2.8276723997351425
2    9.7285323554098984   10.0921070351434778    9.0402791195925349
2    1.5247202046349102    3.6644069011071587   10.0644855839438119
2    3.4958742172521653    7.3411322762403541    5.9413533832011920
2    1.1244835187859619    3.1396342988943160    2.9738207976091133
2    8.4330749440878261    0.2016037746273691    5.8849354002186862
2    5.3767967455011494    0.5059644236576782    1.2199355707983337
2    8.0665841968958123    8.5214439842716452   10.2828403753465345
2    9.5164058400202407    5.9097719768204175    9.1437440745006882
2    8.2099800758625427    2.5469002236332243    8.9878300209638926
2    3.9396179089338434   10.0757739772341814    7.4191713910719637
2    3.2076971139998314    7.1644587093149310    1.0548729592241588
2    6.3386928734018175    2.0717597210556100    7.3522751299617877
2    6.7022204251149891    1.0842044556653578    3.4303678916481704
2    9.3355343623811979    0.8555674329278190    3.4276532160312532
96
 Atoms. Timestep: 2
1   10.8857962459059863    8.4477730031597495    3.7537343073393648
1    2.7730084111624191   10.2730626353297101    5.4011815452810215
1    5.2551757186410430    5.8813618255153877    6.3511353066235792
1    2.3258325976001908    3.2965441126432466    4.5870505379842683
1    4.2055973994059848    6.7774278870989955    2.6622157168557732
1    4.2365779154434318    9.9355470298357957    9.3866902086602391
1    0.1216445529937977    0.0518054382582632    9.2481723527118529
1    0.6040439960603725    2.3367965868625173    7.0649153222589707
1    1.2384673749371600    5.4617409840210218    9.2442595606517042
1    6.5329110129655152    3.3084085823079894    3.9734236276710009
1    5.3382533641806491    0.1900505172021625    6.8060743906591785
1    3.5513202901028520    3.7934683593778735    8.7114540465784316
1    7.4190563201298403    7.1791512711795189    8.9683703868145219
1    5.1477827385754402    1.8064395694702675   10.9882987400790011
1    9.5962816316224089    6.0183128894033073    6.9596806914979537
1    1.6342430896534190    6.7898269468118437    6.2082303033268502
1    9.9810155499314188    6.2492423249665343    0.0686681042247261
1    1.4555708174403943    2.5188830590270670    0.5803852610861243
1    9.9831452106338610    9.7816854674884777    6.6949605928687479
1    1.5470198306800107    6.2441774210658778    1.9145181139865188
1   10.1390533242136911    0.1273742918099263    1.7036685397660731
1    7.2406615097451548    8.0317645738314702    4.1706116409451992
1    8.3211298189723006    0.5599039458107418    8.6587869516843092
1    6.8774525174010233    5.3311917556655031    0.9714575235939302
1    4.5579502123278175    6.4278744311447404   10.2743360969429514
1    1.9707384073420373    8.9915318748908799    0.0403610662742717
1    7.4208977626358621    3.6275057879613186    7.2693306590924616
1    4.5333835694111340    0.6766959374591823    3.1267639432019889
1    6.9933002209258461    9.6122537390434069    0.3875197887380780
1    8.6172807216356908    2.4945428358773873    0.1095887123890740
1    7.7292378973696705   10.7500074866857300    4.2055293666770597
1    9.9936203478222456    2.9781916893837703    3.4507909400382570
2    0.8901091822913092   10.6733600585420891    7.5853264484513936
2    6.7045974007416742    9.5609365162936992    5.4402052710003526
2    4.2553089284544052    1.3711292299044322    9.2451861720375010
2    6.6195086850106870   10.6242225516308846    7.8429679101606045
2    3.1341385639141093   10.4607269342921168    0.0661729133782094
2   10.8821564440568803    7.2661981893288248    2.0988846879909064
2    9.1337555499327614    9.1900013798632330    4.4297927611607264
2    0.4508845709671625    4.7259584018415888    0.6539619529697657
2    5.6254550069299416    4.3805246319366953    7.4569107374177204
2    1.8715822164343923    1.1364261103946338    5.4602741534665684
2    0.2202993444326452    8.9372011246647798   10.9731513725797445
2    9.0554921754551074    8.0753856891684208    7.6341193295287404
2    9.7252331892608570    1.2246275062596992   10.3915169816904207
2    4.4076287057268893   11.0844157923310735    5.0139437051752962
2    5.9812562951112884    6.6335857937475264    4.6541102438873621
2    6.5736902724882231    2.9948164638605492    0.8435955512197139
2   10.8834342802467638    6.4736521198598851    5.4318428595209589
2    1.8596826048105795    7.3560109205069706    3.3174187273903257
2    5.3554467727616819    6.6591067648488655    1.0582007093738892
2    3.3040541078155274    1.8808424049604657    0.3807765275847841
2    5.6040333435820511    8.9847564876514454   10.0509734081080087
2    3.9897142454076517    2.5791969841882025    2.9954285719005562
2    2.2457686250918529    3.2841626204527521    7.2017325832094734
2    8.1843113561919765    7.0450751360654182    0.8540897299341469
2    8.7471354066237179   10.1616890139210057    1.1872079831836746
2    7.7177649242511022    5.7440946529961128    6.5439970419628750
2    2.8433695765299931    5.3448663276893198    2.5869877109503485
2   11.0732649958648963    4.5616800152793893    7.9144405924762644
2    7.0902975009950300    8.7752719529627754    2.4409249666084096
2    2.7382464415647432    5.0482674265796010    5.9592935605817798
2    0.2746950852546670    9.0657974032500626    5.5819986597952385
2    3.1241036794970252    5.8058903186069983    9.0822047581764380
2   10.2821989016439641    1.2270022697369880    7.8828453305201114
2    4.7010576997930960    4.2071293068024120   10.0201232702348975
2    1.1842904040595008    6.6412232327438803   10.9841844878589985
2    9.8503079860974569    4.7426428036386570    3.7417136139777267
2    5.1149118541598453    4.0015064697319795    5.0959957373863594
2    8.8611282826167717    4.2842316380844663    0.0338464272066612
2    3.0455325518054130   10.2072362401211958    3.3090172219090528
2    7.1165017549503231    0.5341020868534589   10.2363076581633266
2    3.3873244332537502    8.1347841361011710    9.7993242687397473
2    5.7126869812549197    6.9098361479072965    8.0928268785420236
2    8.0703588887337734    2.8297050647818427    4.9904579663172717
2    0.3051682754879560   10.0889008535827163    2.5311321851481265
2    1.1292508475827432    7.1386423888297763    8.0194927011889714
2    0.6235527979630754    0.7878317060070824    0.1860033476602472
2    9.7330537032305600    2.2216222853228169    1.6512158401998029
2    6.9609145913011528    5.8416135393702673   10.2221958107793203
2    0.4180893146934802    3.4333518768780631    4.9281140960522150
2    6.1866660058448213    4.8746976277214245    2.8285774949415501
2    9.7290675093162502   10.1022322165599672    9.0360080619350569
2    1.5060666442529340    3.6818425677667244   10.0606438858777807
2    3.5054915242046434    7.3422743284063268    5.9241151688745939
2    1.1258504855909148    3.1487559730927011    2.9659675685194307
2    8.4285514314349399    0.2207284766429293    5.8897052671828680
2    5.3852896531813634    0.4983290688176867    1.2366558656951441
2    8.0549987622581227    8.5271822242146360   10.2723793672817045
2    9.5185042298724998    5.9220979547410151    9.1378509976523752
2    8.1977458403228916    2.5210615030544581    8.9956557613752448
2    3.9482272193523893   10.0787075917957996    7.4107795526015172
2    3.1957777646439030    7.1760398653141761    1.0556174952504775
2    6.3121410005614402    2.0613115304495500    7.3444326219668108
2    6.7009179891124653    1.0924329391874357    3.4368187609553775
2    9.3365912224837828    0.8569795486870726    3.4355922271827537
96
 Atoms. Timestep: 3
1   10.8852380295849667    8.4434375163110857    3.7543375197581876
1    2.7750816318076801   10.2693646241008363    5.3991435365346216
1    5.2494420185758770    5.8769657017837620    6.3528659789735666
1    2.3271328357720455    3.3036827238777811    4.5851400773150397
1    4.2030651543957687    6.7719769626125137    2.6672847176584025
1    4.2304137532221739    9.9378058366193951    9.3890442736653146
1    0.1254203353485804    0.0466786795680547    9.2449738464728153
1    0.6079672443450773    2.3386178396353845    7.0696369487521773
1    1.2398127523478111    5.4642011647805333    9.2482895102449287
1    6.5198096145538109    3.3148352580938294    3.9668768860929124
1    5.3398048458167526    0.1853732846643657    6.8086369389455257
1    3.5475734224328987    3.7906424189777064    8.7046152992333212
1    7.4175463870198453    7.1773085964684906    8.9778818807882796
1    5.1560519209891122    1.8102683100214063   10.9903950606095488
1    9.5925436067604188    6.0187812220936499    6.9607938660825051
1    1.6292914681328787    6.7851544376176287    6.2101620414948426
1    9.9828136482476673    6.2462201516903146    0.0739395044144936
1    1.4589967776668815    2.5179860580424309    0.5736114027689158
1    9.9880003384808056    9.7793255108180688    6.6913354130945990
1    1.5495372635934550    6.2488004448531713    1.9190620526348683
1   10.1335073162269218    0.1233321209765681    1.7019843829046157
1    7.2418667334080782    8.0311726097829617    4.1718132713309553
1    8.3215180647877744    0.5599689640925256    8.6630405210678720
1    6.8777797415575517    5.3307166091291700    0.9609440414110589
1    4.5586495012015078    6.4350151649519871   10.2685342938471571
1    1.9746143504139888    8.9924998679985855    0.0387369799783421
1    7.4233760644453364    3.6259635225702591    7.2692942233011513
1    4.5311878618218255    0.6746378178094546    3.1317112275555545
1    6.9972054754060640    9.6160690523955932    0.3951438775910140
1    8.6196928644459749    2.4956106141112393    0.1082858675854117
1    7.7305706945009200   10.7457068592490064    4.2023991948943964
1    9.9962416520245547    2.9833540949115247    3.4473781326416395
2    0.8866097959338234   10.6661369152641043    7.6069503487694252
2    6.7017515394838494    9.5683489370419714    5.4288701028648099
2    4.2521528447400776    1.3757592235231690    9.2478476549347608
2    6.6321026752516818   10.6308697444634461    7.8485951077964771
2    3.1367243295798524   10.4467839081661396    0.0892903747105539
2   10.8704968526034058    7.2571377627650504    2.0824399970773988
2    9.1511293956850182    9.2197720451107337    4.4238566362189404
2    0.4535914070057182    4.7376270761828394    0.6328673981415583
2    5.6078473196345611    4.3643997980665237    7.4418790034524775
2    1.8776799152865855    1.1260099997557620    5.4585097571071026
2    0.1969054276246685    8.9198044193783463   11.0045252700610821
2    9.0563484841960147    8.0724453776921550    7.6377662718519277
2    9.7233645938010831    1.2484881155913075   10.3699757641253640
2    4.4169711390503252   11.0985816199320571    5.0131899308077195
2    5.9690789848931969    6.6395618284949363    4.6571923098950547
2    6.5830045526840362    2.9937648066220186    0.8440945583420922
2   10.9096573003620261    6.4584361190729274    5.4275558251656149
2    1.8413155193090323    7.3510541478155869    3.3033443696671205
2    5.3535684707501385    6.6617248629369099    1.0720103109445440
2    3.2840828313522974    1.8780763946829031    0.3834437559300836
2    5.5930751761102782    8.9854540398624554   10.0513443749638824
2    3.9805497537686807    2.6086465262862428    3.0023093884744867
2    2.2323381417107573    3.2954824624205163    7.1969646494648636
2    8.1904310630801547    7.0189922381159002    0.8643153162385505
2    8.7507369140579438   10.1640209773850252    1.2092064691144300
2    7.7399983331364659    5.7364261027688741    6.5304652067168805
2    2.8446801965432522    5.3588551208094435    2.5921477724665500
2   11.0847987171057607    4.5793801059016843    7.9375707741189778
2    7.0851523852815914    8.7638814676684778    2.4387061019651259
2    2.7243040946170178    5.0512830608475321    5.9372549506167278
2    0.2590599354118679    9.0544630436078588    5.5689600186342947
2    3.1007031592969945    5.8108437045000398    9.0946895884198682
2   10.2757219291249591    1.2311300920943360    7.8612788718388753
2    4.6950415598819539    4.1914724530491583   10.0140207676418687
2    1.2024459014956015    6.6354255174537755   10.9664049311933560
2    9.8344322842830092    4.7552036823852166    3.7209046452953340
2    5.1265546856779398    4.0128574231853884    5.0992236607250199
2    8.8774048103666594    4.2771912357610562    0.0388583590562546
2    3.0329962376183421   10.2042122554480645    3.3248515955518592
2    7.1564433864141206    0.5524442893319000   10.2371139080815095
2    3.4066476586682093    8.1246621433877735    9.7968814220745983
2    5.7190821957447886    6.9243994221291754    8.1025508022490680
2    8.0822727058472044    2.8476555874523362    4.9721640545155843
2    0.3067250059394974   10.0780849251152773    2.5257758512206436
2    1.1358082911638214    7.1346898904434219    7.9939284009284641
2    0.6350223591115410    0.7718441934035267    0.1992978831993527
2    9.7301457423401967    2.2292442343031995    1.6543267329254012
2    6.9717003937995887    5.8727721124525045   10.2252576750171755
2    0.4053447874745654    3.4285786623219563    4.9413271777902947
2    6.1749991907821613    4.8477475567384074    2.8286972124422860
2    9.7279939725903883   10.1122377598748159    9.0300684271518215
2    1.4891516402175518    3.6978676603924314   10.0554687848886051
2    3.5154589233169693    7.3446408851999649    5.9066122867614528
2    1.1276273849448641    3.1566391521968780    2.9554600850232200
2    8.4256287313839415    0.2391727862909843    5.8961439957043043
2    5.3937182384323537    0.4888767584568683    1.2544872299801804
2    8.0427640779197862    8.5335658921674362   10.2611839376855105
2    9.5202239446580776    5.9354875921145229    9.1323937730834164
2    8.1852201377206235    2.4967976552599951    9.0024829128176478
2    3.9558842549999245   10.0816223998075447    7.4019488918731913
2    3.1834533414618260    7.1889748150926929    1.0557846486007156
2    6.2851434170119056    2.0500554200557377    7.3355479936280839
2    6.6975222241885293    1.1016274748193349    3.4434616797074082
2    9.3378398053055971    0.8574088030690918    3.4439732230448330
96
 Atoms. Timestep: 4
1   10.8847970988960778    8.4390371979032874    3.7547060085260187
1    2.7769605404589406   10.2657115260462994    5.3970381813948922
1    5.2435302600905800    5.8726613856790202    6.3544949184124686
1    2.3284752870229291    3.3108516749961745    4.5831839945230639
1    4.2005328874077685    6.7664814418967669    2.6724584728620715
1    4.2240422586172768    9.9401907451128313    9.3914048283202760
1    0.1292355866539445    0.0415920290254875    9.2420344205013976
1    0.6118679907582271    2.3405017024470647    7.0741044624366074
1    1.2408750257158860    5.4668124197552785    9.2524192231104863
1    6.5065521013490590    3.3211968903344875    3.9603049102712977
1    5.3414943314659666    0.1809245553456637    6.8111827668104850
1    3.5438344412288569    3.7876456856359764    8.6976222534191105
1    7.4162811213195887    7.1756653741878145    8.9873223972236378
1    5.1643601764919795    1.8141401975781508   10.9924661685878604
1    9.5890443724396714    6.0193331760924282    6.9620202504390063
1    1.6244748318336637    6.7804134584474678    6.2120157632388562
1    9.9845774137641641    6.2431838454903579    0.0792975555016097
1    1.4624628553715502    2.5172180271223503    0.5669435274198766
1    9.9927292926502318    9.7770045652297757    6.6878233745522664
1    1.5514536163490822    6.2533828178428275    1.9231044968539506
1   10.1281137741897140    0.1193570371625981    1.7003090886514276
1    7.2430706957523920    8.0306023520618961    4.1731069412538622
1    8.3218057757465917    0.5600320883195001    8.6672702621547391
1    6.8783012277347835    5.3301913665897640    0.9505219593956177
1    4.5593586426965063    6.4422656823322617   10.2626743003143801
1    1.9786366278969234    8.9931682560131989    0.0372252156997433
1    7.4257777669925282    3.6242329123893606    7.2693109071169975
1    4.5289589313397860    0.6726225614020754    3.1364804670692101
1    7.0012220126655391    9.6198814740164380    0.4027836728748638
1    8.6217882009742830    2.4966031074078958    0.1068768367074009
1    7.7320712717707023   10.7416264491936246    4.1992946705012351
1    9.9989950910703094    2.9885156708764877    3.4441503123347310
2    0.8840942255300014   10.6582809293424337    7.6271002934581444
2    6.6979897763615250    9.5743665324619212    5.4162608162833941
2    4.2492647352161805    1.3799144601883022    9.2494004476958214
2    6.6463219617257190   10.6362441514534396    7.8560553003814180
2    3.1403416543614457   10.4335207502560348    0.1111935442034249
2   10.8573019509036381    7.2480458572343922    2.0660429458271379
2    9.1682799462931079    9.2482292171378475    4.4180217003622539
2    0.4548673552593819    4.7486282308894845    0.6127317299381524
2    5.5901230581634538    4.3473879372832389    7.4285202057092814
2    1.8843595022100648    1.1154371254333977    5.4568778465192596
2    0.1714300151840482    8.9035469372739673   11.0348283627397752
2    9.0576364591479894    8.0688997953428938    7.6394041401476152
2    9.7220931750645434    1.2709506842474230   10.3473053332010103
2    4.4274873856010286   11.1133205490604290    5.0126436946848774
2    5.9569806139642116    6.6461238380862993    4.6593561481798753
2    6.5929867853180575    2.9934239769191104    0.8441918025760389
2   10.9349155262622428    6.4437553416833140    5.4234917450650597
2    1.8236274131187138    7.3493298418439794    3.2933164705910021
2    5.3522987657748144    6.6635770986452298    1.0856905583934173
2    3.2628905066304563    1.8762989103275458    0.3867222185986117
2    5.5845043940680430    8.9850258337288338   10.0530061096540386
2    3.9715968384630949    2.6366359876723227    3.0104598817272024
2    2.2199355705936874    3.3057029938165856    7.1933189870870740