ITEM: TIMESTEP
0
ITEM: NUMBER OF ATOMS
96
ITEM: BOX BOUNDS pp pp pp
0.0000000000000000e+00 1.1107390000000001e+01
0.0000000000000000e+00 1.1107390000000001e+01
0.0000000000000000e+00 1.1107390000000001e+01
ITEM: ATOMS id type x y z fx fy fz
   1 1   10.8872619700000008    8.4562843700000005    3.7519201999999998    2.1226316123819013   -0.6947666631460074   -2.9535642142999992
   2 1    2.7682177200000000   10.2805686600000001    5.4050766000000001   -4.4361509770447869    0.4724049788807522   -0.9076673309975410
   3 1    5.2661078999999997    5.8903774300000000    6.3473908999999997   -3.2715040398472022    0.9127382980629581   -1.5643775835166220
   4 1    2.3234128500000000    3.2823558199999998    4.5907470999999997    1.5074896352351415    0.5435929755966625   -0.7079733585210450
   5 1    4.2106383799999998    6.7881501100000001    2.6523938999999999   -0.2596233633736159   -1.4259916849539336    2.0350962387442877
   6 1    4.2482845500000002    9.9314096299999992    9.3820323999999999   -3.6213913838748812    2.2526721467190725    0.5763862226483436
   7 1    0.1142743800000000    0.0620883100000000    9.2552570000000003    1.5217996471801940   -0.5682965830229085    3.6704925595469891
   8 1    0.5961936000000000    2.3333637399999998    7.0547306000000001    0.4357639156973827    1.4457066755065862   -4.3844497701887271
   9 1    1.2350242499999999    5.4572453100000002    9.2364622000000001   -3.9664331425225718    2.3794713946087187    1.3100869552023355
  10 1    6.5585646899999999    3.2954576499999999    3.9863734000000002   -3.8707780647235688    0.0263439295973976   -1.3204402173134258
  11 1    5.3354822200000003    0.2000503100000000    6.8009212000000003    1.5938384975003017    3.5569105895959821    0.1270456647256007
  12 1    3.5588698499999998    3.7985817599999998    8.7246772999999997    0.7336578996037701   -3.4779593758509746   -2.5628222083410170
  13 1    7.4227238499999997    7.1833115000000003    8.9492876999999993    3.3395879211634218    2.0829469340817450    0.6062984500796955
  14 1    5.1314672300000002    1.7989666600000001   10.9839490000000009    2.2526375210893987    1.5475693264205823   -1.6304918700155890
  15 1    9.6043533100000005    6.0175944799999996    6.9577751000000001    2.7918468297759627    1.1089984554401069    1.8863569541414793
  16 1    1.6444819700000000    6.7989453800000001    6.2042459000000001    1.6349994277138427   -1.5520603034819578   -0.1444650736434699
  17 1    9.9772603800000006    6.2552431999999998    0.0583646000000000   -1.4618142419301736   -0.3320930983114591    1.4126630768395505
  18 1    1.4489142600000000    2.5210595300000000    0.5942683000000000    1.6078589111522561    2.3547167330369545    2.2036721369413659
  19 1    9.9731027799999996    9.7864869599999995    6.7025277000000001   -1.6466039194880020    0.2048627781354690    1.7486745859239847
  20 1    1.5403115300000001    6.2348670200000003    1.9041433999999999   -8.6860162412435784   -0.2692489070343910   -5.8531824441655846
  21 1   10.1504474800000004    0.1355879100000000    1.7069723000000001    0.7463878541412621    0.2185373455932041   -1.1153084906867010
  22 1    7.2382545399999998    8.0330458300000007    4.1684805999999996    0.0504014088326370    0.8021576190023874    1.6185686939013848
  23 1    8.3199954799999993    0.5598223400000000    8.6503259000000003   -2.5558231576463868    0.6228813298581755    1.0041629143045603
  24 1    6.8774039900000004    5.3320168199999998    0.9926531000000000    3.9290404483697259   -0.5927201641166708    0.0517797363284884
  25 1    4.5566227000000001    6.4139282599999996   10.2857575000000008    0.7900629998376629    2.0463674056787786   -1.1990483303551329
  26 1    1.9637026900000001    8.9887812000000000    0.0439998000000000    6.2102990850388977   -4.3045441230702481    2.8496116172333235
  27 1    7.4158237199999997    3.6301289699999999    7.2695812999999996    0.2017909904886599   -1.9226428896739378    1.1996029352798576
  28 1    4.5377032599999998    0.6808431300000000    3.1163341000000000   -0.1457905999939750   -0.8592958843632277   -3.2772824806068086
  29 1    6.9858429900000001    9.6046346600000003    0.3723487000000000    2.2735440071167452    0.2706338820837138    0.7770482882981462
  30 1    8.6115279200000003    2.4922300700000002    0.1118609000000000   -5.4224726696837653   -0.5040488093706140   -2.2354466526188457
  31 1    7.7270777800000001   10.7591459999999994    4.2118387000000004    3.1178046608150973    2.4129061050635947    0.0898430135072765
  32 1    9.9888031799999997    2.9678138600000001    3.4581238000000001    2.8428348527934046   -0.5683072953913684    2.7945080431545981
  33 2    0.8992960600000000   10.6864644599999998    7.5390086700000003    0.6808434002671083   -0.3543339090515131   -0.8207149181474868
  34 2    6.7075754400000003    9.5422469000000003    5.4586596199999997   -1.4532628421087415   -1.8539039744263106   -2.5619398822461998
  35 2    4.2623142899999999    1.3604461200000000    9.2361252300000007    0.3287739332618953   -0.7619583731859965   -2.2964382822669513
  36 2    6.5996505900000004   10.6072639899999999    7.8373401700000001    3.0426908073854153   -1.8256668452478717    3.0162842886054810
  37 2    3.1314888000000001   10.4900214900000002    0.0162407800000000    0.9599599614601919    0.2412065635216065   -2.0288390105138387
  38 2   10.9008224200000008    7.2841989299999996    2.1318183700000000   -2.4205295021723270   -0.1588277878392238   -0.0999177602713694
  39 2    9.0988866500000007    9.1267366499999998    4.4419974299999998    0.3160083783865197   -1.8297377468954974    0.2078797568196996
  40 2    0.4414378900000000    4.7006667699999998    0.6985599700000000   -1.9515889351046205   -0.9538348937977417    0.9636562783826559
  41 2    5.6597280300000001    4.4100263699999998    7.4915150300000004   -1.0084210730169576   -1.5118555687428099    2.1401717235754756
  42 2    1.8611853700000001    1.1568000100000000    5.4640654700000004    1.0333094162996603   -0.2372276965260997    0.0408509469600966
  43 2    0.2583514500000000    8.9755244199999993   10.9068411899999997   -6.1992633831187449    2.0300117609331956   -2.2284372043247225
  44 2    9.0548527399999994    8.0792885600000002    7.6211215000000001    0.4293067944802798   -1.2137233304271178   -2.8952657584060515
  45 2    9.7293191100000005    1.1732500600000000   10.4309134100000005   -0.8529270211679045   -1.5651534033802881   -2.1703422080296639
  46 2    4.3930576099999996   11.0582403500000002    5.0160466699999997    2.6657874731508722    1.4782981015781105    0.3554723739125739
  47 2    6.0054828699999998    6.6232011499999999    4.6454218400000000   -0.3575195436616486    0.7111729220979301   -1.1627303886060876
  48 2    6.5573901899999996    2.9991108199999998    0.8416408200000000    1.4879493632692034    1.1960730944545293   -0.3736031535761971
  49 2   10.8289244000000000    6.5058321299999999    5.4410252999999997   -0.6127458517803823    1.0493182518466697    0.2275161309777095
  50 2    1.8983061600000000    7.3741918899999996    3.3560855599999999    0.8757809414378372    3.3870409291657744    4.4577784130987705
  51 2    5.3609917800000000    6.6518150100000000    1.0310178200000000    0.9568006380717389   -0.9290944280691303    0.8152450450104483
  52 2    3.3383210700000001    1.8896659400000000    0.3776929100000000   -4.3961262159947507    1.9966034738139999    1.5455221606353335
  53 2    5.6323954100000000    8.9796486000000009   10.0535500500000001    2.8164762215896681   -2.1853026761688152    1.3412776794925840
  54 2    4.0083879199999997    2.5170635300000002    2.9854359499999998   -0.1094256589915033   -0.6910975926841405    2.0116418620215852
  55 2    2.2748493399999998    3.2579365500000002    7.2145859100000003    0.6514866736877144   -2.1177689288348023    1.7838416793663896
  56 2    8.1754375699999997    7.0892364600000004    0.8372943900000001    1.9242412357158520   -4.7635460846331164    2.1965705083314773
  57 2    8.7372767899999992   10.1572731899999997    1.1427389500000000   -0.4728090576961238    0.8197981003486260    0.1320782334600147
  58 2    7.6721479600000002    5.7576417900000001    6.5717552699999997    0.2679787319508962   -0.7576344848497989    0.3419341583884771
  59 2    2.8573021000000001    5.3058821299999996    2.5846852100000000    7.9896969528992807   -4.9530201432644425    3.8382836509411797
  60 2   11.0496160200000002    4.5237725900000001    7.8645253999999998    0.0348011739878321   -1.0702491195348438   -1.4941437271196067
  61 2    7.0974205000000001    8.7987293199999996    2.4469050299999999   -1.8194819024418696    0.3218794943376809    0.8362592829673362
  62 2    2.7639507100000000    5.0433260899999999    6.0009321699999996   -1.3680538345674726    0.8676401869034941   -1.3274597672533357
  63 2    0.3105592900000000    9.0883059700000004    5.6079435999999996    2.1468534833514861   -0.2957799337110409   -0.4932891391750100
  64 2    3.1714078699999999    5.7927073699999996    9.0546962299999993   -1.2067766163312776   -1.6999356567688813   -1.4037154489338135
  65 2   10.2930971299999996    1.2217674700000001    7.9251554200000003   -1.3974829283625172    1.9305955076122099   -0.8136989056665962
  66 2    4.7185160200000000    4.2404048599999999   10.0406465899999997    2.5384779917857889    0.8553195051019199    4.2593510657987856
  67 2    1.1462654299999999    6.6556243999999998   11.0138255699999998   -0.8165291257189007    1.1531946048140596   -3.5861717099830526
  68 2    9.8782392199999993    4.7216192000000001    3.7816931999999999   -2.3192265806923356    2.3999583817143701   -0.8317825875360495
  69 2    5.0942635799999998    3.9785664700000001    5.0894828499999996    1.7962109648441986   -0.2934232890702275   -0.2022804919830495
  70 2    8.8305780899999995    4.3079392299999997    0.0261620100000000    1.1868808871114682    4.4597009512063917    1.6104253768585055
  71 2    3.0712221000000000   10.2141261399999994    3.2803941399999998    0.1724524913200476    0.4053662804544061    1.7065810914942066
  72 2    7.0356257600000003    0.4958538800000000   10.2378326499999996    0.3251563815490057   -0.6049138315862752    0.9813468486596717
  73 2    3.3472604000000001    8.1563256400000004    9.8034061799999996   -0.4688538778763464    0.5302453797506128   -0.4395327631543899
  74 2    5.6974389600000004    6.8821400700000002    8.0734096399999995   -0.9388066069916590    1.2955891312448937    0.4773311700228405
  75 2    8.0485931799999992    2.7970448399999999    5.0298017300000000    1.2604633076792615    1.7749163162160313    1.5840318360792516
  76 2    0.3021852100000000   10.1073913500000003    2.5455883099999999    0.3136426531553633   -1.8532334449002503    2.0105799649404386
  77 2    1.1153934400000001    7.1461635000000001    8.0700614300000009   -0.2370818741030510   -0.6030058911217784   -0.9905247860937809
  78 2    0.6031487200000000    0.8197781400000000    0.1607944700000000    1.8375833265444881   -0.1440813096411372    0.9280767526602193
  79 2    9.7410407400000008    2.2071615699999998    1.6428867199999999    1.1756364770382173    0.8310458723498457   -1.0310620601290914
  80 2    6.9329835900000001    5.7775663300000000   10.2127439399999993   -3.1247755219068112    0.2117333305416267   -2.3915632662771755
  81 2    0.4413329300000000    3.4393040099999999    4.9126227699999996   -1.6677420193738750   -1.9396114582448807    6.4049923339621673
  82 2    6.2104950800000003    4.9301905499999998    2.8262671699999999    0.1267040639906352    0.0614744942497255   -0.3630488922125091
  83 2    9.7264287500000002   10.0820245100000001    9.0428253200000004   -2.4883174348010377    0.3510447874190412   -2.9514883975265520
  84 2    1.5449955200000001    3.6458910300000000   10.0669020200000006    2.4940890902860398   -1.2601529745178861   -2.5038058716547877
  85 2    3.4866860300000000    7.3412674700000000    5.9582810100000003    0.8506003904289162    2.1934355186175867   -0.5796856427974503
  86 2    1.1235467100000001    3.1292215600000000    2.9788549400000002    0.7210040118873815   -2.2041913495633318   -4.8429677645299618
  87 2    8.4392817400000002    0.1819419400000000    5.8820224500000000    2.9009809258388231   -0.6748379572223282    3.3444610644623651
  88 2    5.3682652300000004    0.5115820599999999    1.2046327699999999   -0.0184694202054940   -3.6415902460889189    2.8180125362595803
  89 2    8.0774973800000005    8.5162950500000001   10.2922670800000002   -1.1242052510526350    0.8715216150292628   -2.1911194219205230
  90 2    9.5140077999999999    5.8985431400000001    9.1500391800000003   -0.3617681378100194    1.8644318172910306    0.5946320260028364
  91 2    8.2219958599999998    2.5738912699999998    8.9791284400000002   -0.2447390075897912    1.2620515593213342   -1.2391654559568932
  92 2    3.9301748999999999   10.0729433299999993    7.4269552100000000   -1.1901851634778609    0.3616814206136821   -1.2703791845706289
  93 2    3.2190650199999999    7.1542058099999997    1.0534665200000000   -1.1792765632915450    2.1362246219356287   -1.2160632021867852
  94 2    6.3645665700000000    2.0810346100000001    7.3590762900000000   -1.5369363702940502   -2.5866735646525609   -1.7031071447320647
  95 2    6.7014198299999999    1.0770554000000001    3.4241068800000001   -3.4516934759652842    1.9319490195269831    0.3388570995996000
  96 2    9.3346107899999993    0.8531612900000000    3.4202645000000000    0.1265159289993131   -1.6355982205383834    1.0879627965031669
ITEM: TIMESTEP
1
ITEM: NUMBER OF ATOMS
96
ITEM: BOX BOUNDS pp pp pp
0.0000000000000000e+00 1.1107390000000001e+01
0.0000000000000000e+00 1.1107390000000001e+01
0.0000000000000000e+00 1.1107390000000001e+01
ITEM: ATOMS id type x y z fx fy fz
   1 1   10.8864711778282715    8.4520522586635725    3.7529201790418383    2.1433271122742537   -0.8720875606363891   -3.4380958171559661
   2 1    2.7707255654608223   10.2767994944125913    5.4031571566960066   -4.1623349946221424    0.5976801681360870   -1.0390454178412878
   3 1    5.2607308586157524    5.8858371657479163    6.3493083668806607   -3.2946258175709398    1.2010848531086036   -1.6746962153567786
   4 1    2.3245881623562776    3.2894352584699966    4.5889186981841901    1.2787053273378923    0.5440980626959917   -0.7354798226234220
   5 1    4.2081233294096734    6.7828225240932358    2.6572514171654200   -0.2012359517993366   -1.2403386689038274    1.9753421736745378
   6 1    4.2425335103682418    9.9334155009777287    9.3843500969052052   -3.7840494843580523    2.3245482599606486    0.4146339587076511
   7 1    0.1179244670925447    0.0569498926208407    9.2516069068091316    1.2948852740538457   -0.1116296665191342    3.9873314675655340
   8 1    0.6001142684125794    2.3350434826616766    7.0599446676251061    0.1675505907212996    1.3571120341258844   -4.5029907747492439
   9 1    1.2368635325899122    5.4594248917290571    9.2403203863193024   -4.3554689161473297    2.5253123007615290    1.4981745246906630
  10 1    6.5458352845916430    3.3019419734040887    3.9799276169096984   -3.6047422275589591   -0.3277662620292802   -1.0767037712358942
  11 1    5.3368183158664344    0.1949469222432837    6.8034998640385114    1.8305261463364488    3.8290595199421014   -0.0765637090652879
  12 1    3.5550821426185037    3.7961167142613994    8.7181395514853790    0.4783303287362528   -3.3910448886010403   -2.7333088683622209
  13 1    7.4207893173528445    7.1811619512472733    8.9588274260891136    3.7282585312768632    2.5689773854325577    0.0597460866546627
  14 1    5.1395784940565132    1.8026677467248038   10.9861571925356269    1.7199839611550833    1.3085225978561879   -1.2328989376670347
  15 1    9.6002280283986678    6.0179199486002295    6.9586757107110353    3.3092621803522717    1.2481772124799273    1.9307520189928347
  16 1    1.6393117408660869    6.7944256594131831    6.2062505201230769    1.8791580156160312   -1.4612438081452936   -0.4594819522569651
  17 1    9.9791693797913528    6.2522501411423761    0.0634782749923632   -1.1623153762196567   -0.2729693962536170    1.4087415797116141
  18 1    1.4522048597485067    2.5199077302000430    0.5872694005539254    1.3940283331338845    2.3517863270030674    2.1230328880590852
  19 1    9.9781752087312459    9.7840757346361595    6.6986934516723631   -1.8948611617439906    0.3877330512857509    1.8756599335928028
  20 1    1.5439295917964997    6.2395299066200138    1.9095241468368891   -9.7643254057328939   -0.2844175823329637   -7.1551585427311020
  21 1   10.1447126601016890    0.1314657696401260    1.7053389511667645    1.3964475352846983    0.5672713883294562   -0.6856113096338105
  22 1    7.2394569883661575    8.0323865506473346    4.1695012524958361    0.0383374355099955    0.6900726622455420    1.6600316132283521
  23 1    8.3206265106514223    0.5598510691569207    8.6545400025640475   -2.3627643316440672    0.4467085883524297    0.6075936670907809
  24 1    6.8773252491907035    5.3316231518078148    0.9820370629878560    3.8109984715073493   -0.6979323018007335    0.6752783813060754
  25 1    4.5572708782766576    6.4208453756797335   10.2800778657200453    0.5763499938203954    2.0707273866586564   -1.1493823884474734
  26 1    1.9670795805506951    8.9902847670840078    0.0421105522257683    5.2155563817020187   -4.7443005568216456    2.5854971896142751
  27 1    7.4183704629209615    3.6288847794377079    7.2694250338114719   -0.3597079157919001   -2.4936942251464562    1.1449428753687021
  28 1    4.5355525990042853    0.6787741378636866    3.1216381467739218   -0.3397832231733890   -0.1703254413794812   -3.2975362072142804
  29 1    6.9895114771164213    9.6084403937855640    0.3799185282578750    2.2246146900160135    0.1407692739386879    0.5813972790954953
  30 1    8.6145563506398179    2.4934105084069440    0.1107820731997774   -5.6248829690472375   -0.8900242096554561   -2.1187747443533138
  31 1    7.7280735021474731   10.7544972624236852    4.2086782247640544    3.1203037817612760    2.9407083343568634    0.2149382057522433
  32 1    9.9911384722195553    2.9730149824500760    3.4543766421394961    2.7116497021456287   -0.4517171805798338    2.9868351259248183
  33 2    0.8944025682856298   10.6800888457083385    7.5625689869288468    0.9950869131554402   -0.5856183186208370   -1.3312983193105952
  34 2    6.7065342290942667    9.5522050534513951    5.4501653852389529   -1.4850931106931013   -2.0340811753524268   -2.4306831698517888
  35 2    4.2587039902148200    1.3660224895953763    9.2413098922921133    0.3569062869623064   -0.7787342258095462   -2.1695369002930520
  36 2    6.6086678307981996   10.6163350186734533    7.8392176961897668    3.0238696065517758   -1.9624555451743406    3.1052498630035634
  37 2    3.1324443351501401   10.4751997797419243    0.0418242788572164    1.2248853857456539    0.5784931030635789   -2.0476481890361091
  38 2   10.8922569614572868    7.2752249644114313    2.1153554680070146   -2.5453949012200625   -0.0875598323467243   -0.0130489367037192
  39 2    9.1162938921872563    9.1589656531586598    4.4358367883954397    0.0902156819579797   -1.9786937840701866    0.1933728222177602
  40 2    0.4468047400889708    4.7136289091482855    0.6759017521692640   -2.1341128235435898   -1.0490522523098753    1.1912862549861218
  41 2    5.6428038233265907    4.3957355934122724    7.4734988625015841   -0.7040642769778918   -1.5258188676245219    2.3679654715171847
  42 2    1.8660795962189471    1.1466877414906784    5.4621380234835275    1.0088218953469830   -0.2476611553448392    0.1054228808301494
  43 2    0.2409713490738776    8.9557657607023735   10.9406217880278422   -5.4585504664348088    1.9799213388325820   -2.0744334408752105
  44 2    9.0550130667284954    8.0776809414486994    7.6285415491583164    0.5285974650481287   -1.1402183948739919   -3.0548177680221098
  45 2    9.7273429178798221    1.1994977403030436   10.4118490364604011   -0.2214257045217631   -1.8537247502591128   -2.1020258654647712
  46 2    4.3996084612115496   11.0709328329348029    5.0148951170655076    2.4365114030529620    1.3107404654705217    0.3318706654031801
  47 2    5.9934252247186306    6.6281508754540397    4.6501623615138250   -0.1845189021734646    0.8045322802751576   -1.3143416483724890
  48 2    6.5651264609623574    2.9965972092179882    0.8427577309529255    1.3722036654807259    1.2152242046994173   -0.4627832708649507
  49 2   10.8564582001906391    6.4894400105629728    5.4363433250768178   -0.9248236039490054    1.0019335509603740    0.3009790633573028
  50 2    1.8786966723512302    7.3638597829723054    3.3351547279986513    0.9873300549828822    4.1176728323575622    5.2976203114571865
  51 2    5.3579247941924617    6.6557805661311580    1.0444670780705236    0.9766109926823023   -1.0601724431025727    0.4715300832789988
  52 2    3.3222936708315998    1.8846817494330721    0.3788233768442525   -3.6681497003078465    1.8983640215641211    1.3641561541017300
  53 2    5.6172187599868000    8.9828426071412650   10.0517633799711241    3.3018348071493291   -2.1226818140167003    1.6527054778152808
  54 2    3.9990238463258607    2.5485547687731920    2.9898103144043975    0.0903336751909958   -1.4078599038697368    2.0625935768881423
  55 2    2.2600101060327522    3.2716673055959289    7.2076115444802316    0.9911943260639130   -2.0485937190659271    1.8163823145903681
  56 2    8.1793010316381629    7.0685345005878251    0.8450597121806682    1.9017006216757890   -4.5722532506038585    2.0970848812113529
  57 2    8.7425229829715274   10.1593545455446126    1.1650033071086059   -1.0509074903614086    0.4197045736644331   -0.0989810864791877
  58 2    7.6950361836645307    5.7511362235947745    6.5577629223111877   -0.2644712766586048   -0.8887852533002678    0.3755354794927772
  59 2    2.8476808158722617    5.3270988063883085    2.5845565264954375    8.8050128858077645   -5.7193347587633108    4.2447193147425200
  60 2   11.0614906704702989    4.5431054345349811    7.8900268922452721   -0.1663671982346940   -1.2573537845903124   -1.8037758875516503
  61 2    7.0943956264062358    8.7868959946431531    2.4436579204814737   -1.7796409721680513    0.3470400223444810    0.8525648838060733
  62 2    2.7514838228625833    5.0455801558012912    5.9805165827138183   -1.2776064292796205    0.7183294313089227   -1.3388538235504337
  63 2    0.2919064643447015    9.0771049133710591    5.5950470214730208    2.3901925027905078   -0.1765092556831145   -0.2516724761851441
  64 2    3.1478604250915772    5.7998356910016575    9.0688742526893833   -0.3470376335395556   -1.7803819684701794   -1.4053474571262667
  65 2   10.2880233945807298    1.2238487295666007    7.9041805196716863   -1.2448859360188584    1.7780313420600597   -0.5974052109784678
  66 2    4.7089281320233898    4.2234627711996842   10.0290304604264335    2.8478572824656365    1.0092228325665520    4.4919163451344275
  67 2    1.1655486242607120    6.6480048389345265   11.0000399899490446   -0.8977787463253647    1.3894857356815211   -3.4322892638886393
  68 2    9.8649380550229893    4.7314265725497542    3.7619526367685197   -2.2035490723276117    2.3361311137507363   -0.8265180864067385
  69 2    5.1041054924118585    3.9900971497497455    5.0927713374517065    1.5992210916021423   -0.2012461842952562   -0.1062714162618751
  70 2    8.8455080422268093    4.2945706595907511    0.0295766277721411    1.1446084019214098    5.0235458240540032    1.4180412911441984
  71 2    3.0582942167165164   10.2105472053831665    3.2941933830830741    0.2756309874529490    0.4443442422004816    1.6989511762203398
  72 2    7.0761185099749424    0.5152076829375856   10.2366466297897336   -0.1816139010417698   -0.7617825296209830    1.4045591696078343
  73 2    3.3674900064629996    8.1453623101222448    9.8014979208285631   -0.6552961125071352    0.6386668198067219   -0.4400673029719078
  74 2    5.7054215322038733    6.8956902935370126    8.0830588459838850   -1.1891254298569365    0.9876508016899216    0.1970273822045127
  75 2    8.0591158347308838    2.8128363403993135    5.0096601505077007    1.1945418202376406    1.7862164945553287    1.5577029458288774
  76 2    0.3036258106222338   10.0986855890641554    2.5377433053356908    0.1689079001418310   -1.7891253673296994    2.0460080681273354
  77 2    1.1224214460002735    7.1425156981007101    8.0449651769178612   -0.3293277450891474   -0.3739284258361259   -0.6238227781692780
  78 2    0.6128746034892641    0.8038258022710851    0.1731469374409283    1.5790936326721423   -0.0692293304524989    0.8356166334518140
  79 2    9.7366868237513788    2.2142125191698860    1.6473859605717460    1.1952120787216312    0.5949766765762796   -1.1099241272976834
  80 2    6.9479618348681305    5.8097298042351513   10.2181055519722985   -3.3586352685987388   -0.4638853032134174   -2.1081357118979098
  81 2    0.4301405085197982    3.4369214485709181    4.9184906782813043   -1.4239885618950832   -1.9682733903699750    6.2273017643677813
  82 2    6.1985130835737685    4.9022820965267719    2.8276723997351425    0.2237297066879465    0.5372486937771077   -0.8293137703044742
  83 2    9.7285323554098984   10.0921070351434778    9.0402791195925349   -2.6007751097331795    0.0707230162382864   -2.8601198078198209
  84 2    1.5247202046349102    3.6644069011071587   10.0644855839438119    2.6891775314458419   -1.7911883035859606   -2.3633373947748506
  85 2    3.4958742172521653    7.3411322762403541    5.9413533832011920    0.7115493154530742    2.1179024438422980   -0.5149950679860159
  86 2    1.1244835187859619    3.1396342988943160    2.9738207976091133    0.7132781686378866   -2.1408253251215759   -4.6745459112981953
  87 2    8.4330749440878261    0.2016037746273691    5.8849354002186862    2.7911902596550529   -0.8906789999460429    3.0790977682212524
  88 2    5.3767967455011494    0.5059644236576782    1.2199355707983337   -0.0640260537854734   -3.3457335124555310    2.3504456646655170
  89 2    8.0665841968958123    8.5214439842716452   10.2828403753465345   -1.1147039153479381    0.9771698158576757   -1.7150520088062589
  90 2    9.5164058400202407    5.9097719768204175    9.1437440745006882   -0.4968756789882682    1.8192465842992525    0.6666408957945424
  91 2    8.2099800758625427    2.5469002236332243    8.9878300209638926   -0.3622211298972082    1.9107857217005968   -1.4523079051671373
  92 2    3.9396179089338434   10.0757739772341814    7.4191713910719637   -1.3824295065834249    0.1707358087629376   -1.0081984848136021
  93 2    3.2076971139998314    7.1644587093149310    1.0548729592241588   -0.9143819430223228    2.2024784282795165   -1.0975551756499518
  94 2    6.3386928734018175    2.0717597210556100    7.3522751299617877   -1.1245152062733301   -1.9455361149061419   -1.7267353961246925
  95 2    6.7022204251149891    1.0842044556653578    3.4303678916481704   -3.4872026539907051    1.7898783843921877    0.3148125626339202
  96 2    9.3355343623811979    0.8555674329278190    3.4276532160312532    0.2210140972736934   -1.6482770221118463    0.9124814038668886
ITEM: TIMESTEP
2
ITEM: NUMBER OF ATOMS
96
ITEM: BOX BOUNDS pp pp pp
0.0000000000000000e+00 1.1107390000000001e+01
0.0000000000000000e+00 1.1107390000000001e+01
0.0000000000000000e+00 1.1107390000000001e+01
ITEM: ATOMS id type x y z fx fy fz
   1 1   10.8857962459059863    8.4477730031597495    3.7537343073393648    2.1591676758959637   -1.0400640601548334   -3.9017995494966513
   2 1    2.7730084111624191   10.2730626353297101    5.4011815452810215   -3.8779783536904224    0.7188002368550099   -1.1542205327029400
   3 1    5.2551757186410430    5.8813618255153877    6.3511353066235792   -3.3029932570238145    1.4656155888404616   -1.7809383612932208
   4 1    2.3258325976001908    3.2965441126432466    4.5870505379842683    1.0322584251779212    0.5502003227031684   -0.7824496232108908
   5 1    4.2055973994059848    6.7774278870989955    2.6622157168557732   -0.1167226970312003   -1.0410587398601612    1.9366872135916264
   6 1    4.2365779154434318    9.9355470298357957    9.3866902086602391   -3.8580856848373677    2.3544511338534191    0.2580311468510976
   7 1    0.1216445529937977    0.0518054382582632    9.2481723527118529    1.0301910765382170    0.3275580871685583    4.3668235331502636
   8 1    0.6040439960603725    2.3367965868625173    7.0649153222589707   -0.1200178228484988    1.2606224536635928   -4.6070085036025761
   9 1    1.2384673749371600    5.4617409840210218    9.2442595606517042   -4.7814485233002335    2.6654248269672927    1.6791110433457961
  10 1    6.5329110129655152    3.3084085823079894    3.9734236276710009   -3.2761876128084055   -0.7389843994560641   -0.7906259648950013
  11 1    5.3382533641806491    0.1900505172021625    6.8060743906591785    2.1538625075960836    4.0547012427850397   -0.2216907327433567
  12 1    3.5513202901028520    3.7934683593778735    8.7114540465784316    0.2773555182279319   -3.2850791248490081   -2.8345932634289723
  13 1    7.4190563201298403    7.1791512711795189    8.9683703868145219    4.1265679765171956    3.1080379678610792   -0.5824850564869154
  14 1    5.1477827385754402    1.8064395694702675   10.9882987400790011    1.2009731193822162    1.0527830292455178   -0.8367464092405446
  15 1    9.5962816316224089    6.0183128894033073    6.9596806914979537    3.8548618978788936    1.3946713868434071    2.0014551625639281
  16 1    1.6342430896534190    6.7898269468118437    6.2082303033268502    2.1651514204988684   -1.3649938623422149   -0.8888710966987056
  17 1    9.9810155499314188    6.2492423249665343    0.0686681042247261   -0.8893613821472375   -0.2654757004178870    1.5087897881356920
  18 1    1.4555708174403943    2.5188830590270670    0.5803852610861243    1.1098639463794713    2.3618321756412612    2.0403806623140746