LAMMPS DATA file

96 atoms 
2 atom types 

0.0000000000000000e+00  11.10739 xlo xhi
0.0000000000000000e+00  11.10739 ylo yhi
0.0000000000000000e+00  11.10739 zlo zhi

Masses 

1 178.49 # element 72 
2 15.999 # element 8 

Atoms

1    1      10.88726197       8.45628437       3.7519202
2    1       2.76821772      10.28056866       5.4050766
3    1       5.26610790       5.89037743       6.3473909
4    1       2.32341285       3.28235582       4.5907471
5    1       4.21063838       6.78815011       2.6523939
6    1       4.24828455       9.93140963       9.3820324
7    1       0.11427438       0.06208831       9.2552570
8    1       0.59619360       2.33336374       7.0547306
9    1       1.23502425       5.45724531       9.2364622
10   1       6.55856469       3.29545765       3.9863734
11   1       5.33548222       0.20005031       6.8009212
12   1       3.55886985       3.79858176       8.7246773
13   1       7.42272385       7.18331150       8.9492877
14   1       5.13146723       1.79896666      10.9839490
15   1       9.60435331       6.01759448       6.9577751
16   1       1.64448197       6.79894538       6.2042459
17   1       9.97726038       6.25524320       0.0583646
18   1       1.44891426       2.52105953       0.5942683
19   1       9.97310278       9.78648696       6.7025277
20   1       1.54031153       6.23486702       1.9041434
21   1      10.15044748       0.13558791       1.7069723
22   1       7.23825454       8.03304583       4.1684806
23   1       8.31999548       0.55982234       8.6503259
24   1       6.87740399       5.33201682       0.9926531
25   1       4.55662270       6.41392826      10.2857575
26   1       1.96370269       8.98878120       0.0439998
27   1       7.41582372       3.63012897       7.2695813
28   1       4.53770326       0.68084313       3.1163341
29   1       6.98584299       9.60463466       0.3723487
30   1       8.61152792       2.49223007       0.1118609
31   1       7.72707778      10.75914600       4.2118387
32   1       9.98880318       2.96781386       3.4581238
33   2       0.89929606      10.68646446       7.53900867
34   2       6.70757544       9.54224690       5.45865962
35   2       4.26231429       1.36044612       9.23612523
36   2       6.59965059      10.60726399       7.83734017
37   2       3.13148880      10.49002149       0.01624078
38   2      10.90082242       7.28419893       2.13181837
39   2       9.09888665       9.12673665       4.44199743
40   2       0.44143789       4.70066677       0.69855997
41   2       5.65972803       4.41002637       7.49151503
42   2       1.86118537       1.15680001       5.46406547
43   2       0.25835145       8.97552442      10.90684119
44   2       9.05485274       8.07928856       7.62112150
45   2       9.72931911       1.17325006      10.43091341
46   2       4.39305761      11.05824035       5.01604667
47   2       6.00548287       6.62320115       4.64542184
48   2       6.55739019       2.99911082       0.84164082
49   2      10.82892440       6.50583213       5.44102530
50   2       1.89830616       7.37419189       3.35608556
51   2       5.36099178       6.65181501       1.03101782
52   2       3.33832107       1.88966594       0.37769291
53   2       5.63239541       8.97964860      10.05355005
54   2       4.00838792       2.51706353       2.98543595
55   2       2.27484934       3.25793655       7.21458591
56   2       8.17543757       7.08923646       0.83729439
57   2       8.73727679      10.15727319       1.14273895
58   2       7.67214796       5.75764179       6.57175527
59   2       2.85730210       5.30588213       2.58468521
60   2      11.04961602       4.52377259       7.86452540
61   2       7.09742050       8.79872932       2.44690503
62   2       2.76395071       5.04332609       6.00093217
63   2       0.31055929       9.08830597       5.60794360
64   2       3.17140787       5.79270737       9.05469623
65   2      10.29309713       1.22176747       7.92515542
66   2       4.71851602       4.24040486      10.04064659
67   2       1.14626543       6.65562440      11.01382557
68   2       9.87823922       4.72161920       3.78169320
69   2       5.09426358       3.97856647       5.08948285
70   2       8.83057809       4.30793923       0.02616201
71   2       3.07122210      10.21412614       3.28039414
72   2       7.03562576       0.49585388      10.23783265
73   2       3.34726040       8.15632564       9.80340618
74   2       5.69743896       6.88214007       8.07340964
75   2       8.04859318       2.79704484       5.02980173
76   2       0.30218521      10.10739135       2.54558831
77   2       1.11539344       7.14616350       8.07006143
78   2       0.60314872       0.81977814       0.16079447
79   2       9.74104074       2.20716157       1.64288672
80   2       6.93298359       5.77756633      10.21274394
81   2       0.44133293       3.43930401       4.91262277
82   2       6.21049508       4.93019055       2.82626717
83   2       9.72642875      10.08202451       9.04282532
84   2       1.54499552       3.64589103      10.06690202
85   2       3.48668603       7.34126747       5.95828101
86   2       1.12354671       3.12922156       2.97885494
87   2       8.43928174       0.18194194       5.88202245
88   2       5.36826523       0.51158206       1.20463277
89   2       8.07749738       8.51629505      10.29226708
90   2       9.51400780       5.89854314       9.15003918
91   2       8.22199586       2.57389127       8.97912844
92   2       3.93017490      10.07294333       7.42695521
93   2       3.21906502       7.15420581       1.05346652
94   2       6.36456657       2.08103461       7.35907629
95   2       6.70141983       1.07705540       3.42410688
96   2       9.33461079       0.85316129       3.42026450
