ITEM: TIMESTEP
0
ITEM: NUMBER OF ATOMS
97
ITEM: BOX BOUNDS xy xz yz pp pp pp
-6.4403077717034334e+00 1.2880619210125166e+01 -6.4403077717034334e+00
0.0000000000000000e+00 1.1154943116692575e+01 0.0000000000000000e+00
0.0000000000000000e+00 1.5046356078130312e+01 0.0000000000000000e+00
ITEM: ATOMS id type x y z
1 1     6.40757145998314     11.0941254993466   0.0815242515506039
2 1   -0.076395014306956     2.05700408023146     2.59746548471704
3 1     6.35966454681819     11.1226359358687     5.11993386578133
4 1   0.0516079896493478     1.82255791713293     7.46090780061691
5 1    -6.35229684944844     11.1545134564708     10.0350993981061
6 1  -0.0628503655631115     1.91566640475409     12.5270188126692
7 1    -1.51826297067726     2.89961376057878     14.9473350639181
8 1    -1.56601535684885     4.68810378370394     2.57072335731672
9 1    -1.58385420576531     2.85978620477343      5.0372449403269
10 1    -1.64349137047655     4.66212610731488     7.47394897027747
11 1     11.2871332411356     2.69606797110669     9.93024457548549
12 1    -1.65851791981824     4.69119415721234     12.4709757540843
13 1    -3.18283270700709     5.62008744914936  0.00883197870265174
14 1    -3.23733046169743     7.46136723816838     2.57903369701357
15 1    -3.15375067968888     5.54814474418287     5.11052987487725
16 1    -3.11980565819471     7.51110848972539      7.5287719699145
17 1    -3.18909126873311     5.55590939755698      10.086240308829
18 1    -3.15194709549308     7.39047410559692     12.4856578680292
19 1    -4.80458660817051      8.4368122338025     14.9528792312121
20 1    -4.61631303200064     10.1906519441557     2.44208167126348
21 1     8.05360485196855     8.33547980582289     5.00423723891831
22 1    -4.79558919775623     10.2231756417207     7.60518430071172
23 1     8.01899445253963     8.31861844505357     9.94134787577526
24 1    -4.89528840500105     10.1635854491432     12.4880713769032
25 1    -3.21894975114197     11.0754119325238   0.0334359446090541
26 1     3.26029895027088     1.83109899558673     2.52887631641221
27 1     3.29362954441336   0.0565976418792925     4.97174233070447
28 1     3.20979490221791     1.81466350908949     7.55022874472112
29 1    -3.20025552871457     11.0944717938082     9.97366882950963
30 1     3.30230618715448     1.87645836868178     12.5438172657339
31 1     1.54479304329439      2.7780891698027   0.0371818122021476
32 1     1.57534044373731     4.76602825136346     2.44725131087277
33 1     1.60038828384198     2.80051267168841      5.0269743803481
34 1     1.60356701218674     4.60361996708163     7.56125006999104
35 1     1.67221977914092     2.74291661823867     10.1154569226694
36 1     1.57173180491005     4.57294239592198     12.6136237469703
37 1  -0.0616935142819837     5.48397106057223   0.0346143952576837
38 1  -0.0755812885409139     7.52137005737755     2.55075848539213
39 1   -0.086837516768835     5.48544193945985     5.02631233989583
40 1   0.0444706279242735     7.43393008778229     7.55816876460066
41 1   0.0494578181802315     5.60103896741871     10.1257129053631
42 1   0.0571068793052366     7.41140704763362     12.6370215702539
43 1    -1.54749311231117      8.3260461933476   0.0717854012914261
44 1    -1.65483373761702     10.2718495419698     2.44155419452122
45 1    -1.55175875892053     8.29875017940886      5.0758159342764
46 1    -1.67226083109924     10.1866246090008     7.46980421601476
47 1    -1.56773182066031     8.46216892893729     10.0509601494927
48 1    -1.54009794602764     10.1471344230914       12.45197596144
49 1  -0.0305951368049684     11.1089102284378     14.9911295643773
50 1     6.39757582216721     1.82895134957296     2.54994134731432
51 1  -0.0860351265803402     11.1323008885291     5.11911980282654
52 1     6.37642072194948     1.87527174542175     7.56227752771624
53 1   0.0333803784221643     11.1503636743217     9.95211244228981
54 1     6.44848747502079     1.90094485768147     12.6045904277931
55 1     4.81807574075549     2.72795748246731      14.943329062155
56 1     4.79245545768834     4.69267641640023     2.41949301156501
57 1     4.78216523746786     2.76536170179553     5.00438809890293
58 1     4.92696628899849     4.70615186345963     7.47581943558624
59 1     4.84114147284861     2.78242876289647     9.92440230762268
60 1      4.8549754894524     4.74376156756153     12.5236076408728
61 1     3.15505936791818     5.52028768038306   0.0741183235816285
62 1     3.14397803530179     7.31641500747975     2.56689251324417
63 1     3.25427412377565     5.67296639401218     4.98799855606251
64 1     3.18947325820558     7.42913844508924     7.45823177008032
65 1      3.1291610056764     5.51807557166801     10.0131285929753
66 1     3.28978023768689     7.40952864510746     12.5353034216747
67 1     1.68378426599375     8.40076784555862     14.9649501901378
68 1     1.55410106848845     10.3312904438729     2.46479248118744
69 1     1.65268302394463     8.42004551107012     5.08645516509518
70 1     1.60223131726353     10.2125263580911     7.60050117577606
71 1     1.66676358784342     8.44951301910628     9.94308361971158
72 1     1.58893854598186     10.2965966802072     12.4641313075524
73 1     9.73038196021736  0.00502597567445191     15.0319775071115
74 1     9.60556737308407     1.92954256375793     2.46992656991386
75 1     3.21502414574245     11.1186537162521     5.01922206157107
76 1     9.75222292614655      1.7650075741775     7.58293067886535
77 1     9.73599340229737   0.0908715089244277     9.99264303946784
78 1     9.63190591542744     1.77743427771974     12.4459204668951
79 1     8.13058924371374      2.8814059533138     14.9517785791631
80 1     8.00252302483181     4.61210410087097     2.44058591137046
81 1     7.96866468326168     2.82730471355528     5.08058674508522
82 1     7.96974972697084     4.70126357887843     7.51842047943018
83 1     7.97347124186975     2.80893039865025     9.93739442145739
84 1       8.138711462141     4.65441466572689     12.4702285061072
85 1     6.52823271154176     5.48374640717855     14.9853570138584
86 1     6.49026683851754     7.44294301786103     2.40649439161052
87 1     6.47827047766598      5.5712624045135     4.97684849771313
88 1     6.36015462200185     7.44623521969497     7.50363850495852
89 1     6.38622270820935     5.52312698073823      10.050124185122
90 1     6.51944129200226     7.37224311626612      12.512686701786
91 1     4.83938904938221     8.35060203515506     15.0180705636795
92 1     4.60710095749962     10.2022620836019     2.57369534273187
93 1      4.8597968605193     8.32416512911559     5.03846581947243
94 1     4.74935859961052     10.1803451364787     7.55288269796988
95 1     4.73823717374131      8.3963777689177     10.0423040602393
96 1     4.82069976780633     10.2316884889984     12.4958622230051
97 2     12.8009759016702   0.0349147975141717     2.24654296810009
ITEM: TIMESTEP
1
ITEM: NUMBER OF ATOMS
97
ITEM: BOX BOUNDS xy xz yz pp pp pp
-6.4403077717034334e+00 1.2880619210125166e+01 -6.4403077717034334e+00
0.0000000000000000e+00 1.1154943116692575e+01 0.0000000000000000e+00
0.0000000000000000e+00 1.5046356078130312e+01 0.0000000000000000e+00
ITEM: ATOMS id type x y z
1 1     6.40766941578223     11.0962911329413    0.080752005647529
2 1  -0.0750632361334843     2.05684237858962      2.5952141618522
3 1     6.36190571093976     11.1224420861414     5.11628901328799
4 1   0.0510953263237359     1.82335727769643     7.46354647883404
5 1    -6.35433940908609     11.1543398695502     10.0346524410734
6 1  -0.0615325540207763     1.91315177513721     12.5265809401311
7 1    -1.52185848975913     2.89689723097686     14.9494597257349
8 1     -1.5693513990883     4.68935647234219     2.56856653705846
9 1    -1.58601526031633     2.85680928828598      5.0378241854699
10 1    -1.64238054706091     4.66127051968415     7.47844264491568
11 1     11.2885459584435     2.69973131441731     9.93247636863339
12 1    -1.65690322365985     4.68932117909083     12.4723122072401
13 1    -3.18354585119294     5.61991898712377  0.00900531823155662
14 1     -3.2366957355639     7.45943999933167     2.57773865726673
15 1    -3.15699909844669     5.54887091715523     5.10762131090867
16 1    -3.12186338913689     7.50854227911999     7.52968058930415
17 1    -3.18966566337675     5.55651893093245     10.0814868824757
18 1    -3.15256750138057     7.39304431764866     12.4868979292042
19 1    -4.80358983810607     8.43430414394978     14.9539513153121
20 1    -4.62108351628683     10.1909476459391     2.44607403473773
21 1      8.0542681563803     8.33679902860457     5.00515626138612
22 1    -4.79696905726211     10.2228658752003      7.6009067841999
23 1     8.01956729344269      8.3181621916221     9.94362267425708
24 1    -4.89319629215223     10.1651344062699     12.4881072945924
25 1    -3.21847216694922     11.0771494852679   0.0284359446090541
26 1     3.25917216381995     1.83337681730677     2.52690072686426
27 1     3.29042150108781    0.054236381679974     4.97338153211002
28 1     3.20976175325736     1.81575547680618     7.54902568693521
29 1    -3.19961692618926     11.0954590487787     9.97661366051687
30 1     3.30060119423332     1.87502335052072     12.5428899466314
31 1      1.5470560803484     2.77673287116347   0.0369028258963423
32 1     1.57564203886911     4.76364721206124     2.45104096032292
33 1     1.60155874791147     2.80042529769607     5.02657823745931
34 1     1.60341974278061     4.60360188953562     7.56013799099976
35 1     1.67061641712071     2.74330363545107     10.1136102770539
36 1     1.57311606192964     4.57435971552373     12.6129869256451
37 1  -0.0602447745517049     5.48777703957752   0.0337404315786314
38 1  -0.0731215099146904     7.52002614063657     2.55064490975151
39 1  -0.0827221932513347     5.48872972774744     5.02699423896632
40 1   0.0437135078685015     7.43301090563219      7.5580704943596
41 1   0.0482986171116109     5.60055811800754      10.123378445401
42 1   0.0571945881909849     7.41168967095489     12.6345027582811
43 1    -1.54890353196005     8.32668470690358   0.0693217552587864
44 1    -1.65090755496417     10.2706665922356     2.44451398868335
45 1    -1.55299865140584     8.30065655200147      5.0740244246753
46 1    -1.67073290321231     10.1874620879222     7.47140540717027
47 1    -1.56709968121342      8.4588507292071     10.0497310775018
48 1    -1.54163018344927     10.1490312251547     12.4550070202361
49 1  -0.0295246550496368     11.1099101574301     14.9914085834302
50 1     6.39839184361736     1.83056422616161     2.54796667427915
51 1  -0.0833187391930671     11.1327669334367     5.11658071689302
52 1     6.37739133065237      1.8744845832892     7.55955453313836
53 1   0.0320646362850491     11.1519640286881     9.95426578827158
54 1     6.44858256630024     1.90053399182178     12.6003587554107
55 1     4.81828633574905     2.72967818562943     14.9472391301582
56 1     4.79386722870115      4.6907120553437     2.42139173352513
57 1      4.7829625603932     2.76743562471057     5.00505137159913
58 1     4.92367802107184      4.7049760384427     7.47595996238356
59 1     4.84031140557904      2.7828552252499     9.92828891635716
60 1      4.8539844570353     4.74057543630824     12.5237915272562
61 1     3.15615795854221     5.52171170053216    0.069806424153987
62 1     3.14514400283503     7.32079251395226     2.56443554701511
63 1     3.25287327453453     5.66943731646938     4.98957967174806
64 1      3.1901590111677     7.42855499474552     7.46089963298449
65 1     3.13127470801077     5.51953314256195     10.0135259248521
66 1     3.28785171371908     7.40971744234442     12.5348671447338
67 1      1.6833510414903     8.40035680944419     14.9678904289074
68 1       1.552852943118     10.3294772561397     2.46583562239202
69 1     1.65139965919067     8.41953242648074     5.08393874328339
70 1     1.60257889474005     10.2138868048737     7.59697097726352
71 1     1.66589905187898     8.44727039938512     9.94718026258669
72 1     1.59026581431695     10.2948171093355     12.4648650784995
73 1     9.72853277925807  0.00543454340157028     15.0305872490616
74 1     9.60613661323715     1.92978064906675     2.47074889844483
75 1     3.21367759216374     11.1205946779296     5.02059845634294
76 1     9.74934358234855      1.7675700443525     7.57867789319521
77 1     9.73429861736693   0.0881190544454003     9.99395427330756
78 1     9.63258409529301     1.78025259324548     12.4472079559257
79 1     8.12987843942802     2.87855758708792     14.9534723942732
80 1      8.0034761622215     4.61281030955849     2.44276888376711
81 1     7.97021161379253     2.82561418982969     5.07982752857971
82 1      7.9723732309612     4.70203911684653      7.5193167158111
83 1     7.97585985096562     2.80822136731559     9.93959799633286
84 1     8.13710298584211     4.65377803211398     12.4711518856242
85 1     6.52668211242978     5.48573632925388     14.9855155898071
86 1     6.48933056966394     7.44248100104462     2.40784082936771
87 1      6.4779043045621     5.57183613693411     4.97557144216453
88 1     6.36174730586081     7.44605378793263     7.50457767847979
89 1     6.38660277876236     5.52500481263505     10.0487350414613
90 1      6.5185033091297     7.37382635422693      12.512080620652
91 1     4.83895993073848     8.34981155986434     15.0185516674621
92 1     4.60663895859702     10.1992480108318     2.57237805361825
93 1     4.85943256408228     8.32508139023214     5.03668926558142
94 1     4.75132962439259     10.1803956886049     7.55287097633673
95 1     4.74077483578705     8.39475237103502     10.0416382615585
96 1     4.82083678436575     10.2311167214527     12.4966352991949
97 2     12.8039047285915   0.0332236704247251     2.24881394619477
ITEM: TIMESTEP
2
ITEM: NUMBER OF ATOMS
97
ITEM: BOX BOUNDS xy xz yz pp pp pp
-6.4403077717034334e+00 1.2880619210125166e+01 -6.4403077717034334e+00
0.0000000000000000e+00 1.1154943116692575e+01 0.0000000000000000e+00
0.0000000000000000e+00 1.5046356078130312e+01 0.0000000000000000e+00
ITEM: ATOMS id type x y z
1 1     6.40777945948233     11.0984964269981   0.0799945979531133
2 1  -0.0737163829653438     2.05670258206352     2.59290265070278
3 1     6.36420227478173     11.1222768252208     5.11247702444698
4 1   0.0505431687270525     1.82415824980937     7.46622912339469
5 1    -6.35645278500405     11.1541427574713     10.0341712058848
6 1  -0.0601474602430013      1.9105605921322     12.5261706719897
7 1    -1.52550386287753      2.8941235677033     14.9516567176049
8 1    -1.57277159420828     4.69063310455626     2.56639376219286
9 1    -1.58819140128595     2.85381623254849     5.03839667314888
10 1    -1.64123273284722     4.66041419537048     7.48292823516273
11 1     11.2899385538537     2.70345311382573     9.93477252541654
12 1    -1.65526140460374     4.68742792262996     12.4736767911096
13 1    -3.18430332855756     5.61972356352822  0.00914316872464354
14 1    -3.23604303902342      7.4574800723324     2.57637699528843
15 1    -3.16027556245161     5.54959430830494     5.10466983630417
16 1    -3.12400010419118     7.50590598859853     7.53057020243582
17 1    -3.19025520526283     5.55715607259507     10.0767244263304
18 1    -3.15320459149203     7.39563547987023     12.4881393970513
19 1     -4.8025846143603     8.43174914580133     14.9550994829401
20 1    -4.62576679411495     10.1911817163058      2.4500911177743
21 1     8.05494559135756     8.33814448476449     5.00610391826427
22 1    -4.79837515236384     10.2225480487755     7.59657500927133
23 1     8.02018287170105     8.31774297075357     9.94595383802509
24 1    -4.89104493316426     10.1667487238001     12.4881717322099
25 1    -3.21799445893064     11.0789040873406   0.0234359446090541
26 1      3.2580300014204     1.83568163427595     2.52491079149602
27 1     3.28714979747685   0.0518341585325939     4.97505777293625
28 1     3.20974896730327     1.81688310828145     7.54782345761234
29 1    -3.19899363979166     11.0964671778464     9.97958049317763
30 1     3.29883383941081      1.8735553313331     12.5419675832519
31 1     1.54935330826421     2.77538489583413   0.0365678759031322
32 1     1.57601791996804     4.76121774439729     2.45486315158417
33 1     1.60272370798771     2.80032664721343     5.02617288208499
34 1     1.60328343745893     4.60359659830037     7.55900799900147
35 1     1.66895746024665     2.74372329923389     10.1116854108938
36 1     1.57452901799701     4.57580687775516     12.6122796860035
37 1  -0.0587325595648349     5.49164709570139   0.0328624689453259
38 1  -0.0705783390246709     7.51861891053697     2.55048094791868
39 1  -0.0785665231505671     5.49208134300339      5.0277031774916
40 1   0.0429454373846879     7.43209089658643     7.55794083981045
41 1   0.0471085261929861     5.60004489973517     10.1209677895555
42 1   0.0572725949602897     7.41200115190922     12.6318892226724
43 1    -1.55034828631706     8.32736940485989   0.0668063386558149
44 1    -1.64697256057944     10.2694677950362     2.44750963146486
45 1    -1.55429917040827     8.30262326396856     5.07220099677481
46 1    -1.66914475023415     10.1883233851666     7.47306066833144
47 1    -1.56646579999173     8.45544741648987     10.0485198747222
48 1    -1.54320135443981     10.1509722421281     12.4580956253361
49 1  -0.0284062760406542      11.110972986571     14.9916983596857
50 1     6.39923854252476     1.83223051662503     2.54593343162473
51 1  -0.0805578061479847     11.1332639366047     5.11392973956955
52 1      6.3783998331666     1.87370537008885     7.55682955254899
53 1   0.0307226757253486     11.1535849505719     9.95646869717605
54 1     6.44865783866465     1.90010827044043     12.5960584422661
55 1     4.81853035292529     2.73143877250456     14.9511929114869
56 1     4.79528475311878     4.68873684644694     2.42333360353109
57 1     4.78378876390207     2.76953140897355     5.00569154512103
58 1     4.92031364852047     4.70374425580198     7.47613430141725
59 1     4.83948236455063     2.78329214371164     9.93224233902136
60 1     4.85297139958638     4.73729134843139     12.5239679575788
61 1      3.1573108159945     5.52317386527389   0.0654710398956554
62 1     3.14635602362126     7.32520311554507     2.56192532567858
63 1     3.25142826212428     5.66584013014298     4.99115899136877
64 1     3.19085785135008     7.42797786188309     7.46361535049283
65 1     3.13345403354352     5.52103334184536      10.013939101721
66 1       3.285867517755     7.40991334131717     12.5344222403785
67 1     1.68285928708284     8.39992320327138     14.9709103278692
68 1     1.55158150503085     10.3276137943445      2.4669214320487
69 1      1.6500911782475     8.41897119406189     5.08136563692896
70 1     1.60291991078704       10.21524619202     7.59342856599335
71 1     1.66498866503944     8.44498005455642     9.95134084581989
72 1     1.59162815634074     10.2929719726418     12.4656648728949
73 1     9.72660581758454  0.00584906470695376     15.0291907031673
74 1     9.60673615879131     1.92997092352741      2.4716126624339
75 1     3.21231734577651     11.1225729077405     5.02195137760856
76 1     9.74638234533247     1.77022135198813     7.57443092561736
77 1     9.73255497646314   0.0853285298400308     9.99524386283656
78 1     9.63330418311251      1.7831586513499     12.4485330944545
79 1     8.12908288862337      2.8756153831587     14.9552295897718
80 1     8.00447771766724     4.61354669882363      2.4450027767089
81 1     7.97181833150723     2.82389846709746     5.07901621509995
82 1     7.97504702368709      4.7027867153714     7.52020027693444
83 1     7.97832054788453     2.80749547429954     9.94182509110404
84 1     8.13545032652838     4.65315672472559     12.4720844499404
85 1     6.52506514915962     5.48778653246815     14.9857033859113
86 1     6.48835410666122     7.44200328990817     2.40925458807198
87 1     6.47750355379977     5.57242409482383     4.97432194980337
88 1     6.36340463522621     7.44585222392589      7.5055082220702
89 1     6.38700473282158      5.5269208189677     10.0473180617845
90 1     6.51750808141682     7.37545635554915     12.5114759827054
91 1     4.83853115328073     8.34900804070439     15.0190202268703
92 1     4.60621482783841     10.1962022281786     2.57099289189571
93 1      4.8590334809497     8.32600676935527     5.03490049695979
94 1     4.75337882949696     10.1804888130115     7.55282184041927
95 1     4.74340264191042     8.39307272601757     10.0409705251539
96 1     4.82099734783057     10.2305179362812     12.4974366991564
97 2     12.8067795259895   0.0314832212444234     2.25119713987181
ITEM: TIMESTEP
3
ITEM: NUMBER OF ATOMS
97
ITEM: BOX BOUNDS xy xz yz pp pp pp
-6.4403077717034334e+00 1.2880619210125166e+01 -6.4403077717034334e+00
0.0000000000000000e+00 1.1154943116692575e+01 0.0000000000000000e+00
0.0000000000000000e+00 1.5046356078130312e+01 0.0000000000000000e+00
ITEM: ATOMS id type x y z
1 1     6.40790392863949     11.1007442758557   0.0792553330376467
2 1  -0.0723522230530973     2.05658748586584     2.59052473102723
3 1     6.36655809523061      11.122144336522      5.1084795829452
4 1   0.0499466115497995     1.82496003775269     7.46895809971708
5 1    -6.35864434689964      11.153919524776     10.0336529234366
6 1    -0.05868813649313     1.90788508755721     12.5257908439113
7 1    -1.52920421741577     2.89128682311263     14.9539330570031
8 1    -1.57628274085695     4.69193547601281       2.564203034889
9 1    -1.59038317077262     2.85080434467591     5.03896055841334
10 1    -1.64004299847562     4.65955636948656     7.48740326718296
11 1     11.2913088105544     2.70723917728513      9.9371421711197
12 1    -1.65358792126684     4.68551231166091     12.4750746376313
13 1    -3.18510985308544     5.61949749209192  0.00923997020423957
14 1    -3.23536997157836     7.45548368050042     2.57494175623084
15 1    -3.16358475780304     5.55031628069948     5.10167043161317
16 1    -3.12622396965361     7.50319402800537     7.53143753866346
17 1    -3.19086214736726     5.55782344780434     10.0719547804937
18 1    -3.15386092953875     7.39824946419066     12.4893830759382
19 1    -4.80157151180632     8.42914225515727     14.9563315292238
20 1    -4.63035366072906     10.1913421407679     2.45413424257323
21 1     8.05563748377123     8.33951712063052     5.00708230944706
22 1    -4.79981092928081     10.2222218951347     7.59218514538094
23 1     8.02084624660031     8.31736571915267     9.94834702730199
24 1    -4.88882971478337     10.1684346844203     12.4882681591164
25 1    -3.21751607358283     11.0806807810276   0.0184359446090541
26 1     3.25687049517348     1.83801565188916     2.52290618600246
27 1     3.28380949906924   0.0493879428236625     4.97677536206562
28 1     3.20975887328261     1.81804987534423     7.54662225829251
29 1    -3.19838749323206      11.097498613589     9.98257007659782
30 1     3.29699698763291     1.87205199011153     12.5410502092065
31 1     1.55168827220241     2.77404741500283   0.0361702138368065
32 1     1.57647458632206     4.75873392850472     2.45872006047541
33 1     1.60388145446573     2.80021486447715     5.02575803129581
34 1     1.60315950353367      4.6036060502636     7.55785889613561
35 1     1.66723785123496     2.74417889913833     10.1096746780946
36 1     1.57597268496391     4.57728695650547     12.6114932885828
37 1  -0.0571503965003322     5.49558820131546    0.031979764470036
38 1  -0.0679441618378686     7.51714113132517     2.55026124022853
39 1  -0.0743656108822286     5.49550466258944     5.02844055182969
40 1   0.0421650436910278      7.4311709184415     7.55777573305219
41 1   0.0458854773408834     5.59949612360976     10.1184737866378
42 1   0.0573384940055453     7.41234420507044     12.6291725152315
43 1    -1.55183051801289     8.32810513482468   0.0642342645549163
44 1    -1.64302359003339     10.2682516446993     2.45054460818728
45 1    -1.55566593076337      8.3046556217803     5.07034245439907
46 1    -1.66748983550013     10.1892108794237     7.47477510643603
47 1    -1.56583126532301     8.45195046834153     10.0473274772264
48 1    -1.54481436435866     10.1529627250989       12.46124622796
49 1  -0.0272353704879434     11.1121056839343     14.9920007377211
50 1     6.40011944173204      1.8339549398225       2.543836595385
51 1  -0.0777481810202855     11.1337957596151     5.11115674243466
52 1     6.37945076447825     1.87293458600752     7.55410162847278
53 1     6.46965998002967 0.000283928319960531     9.95872646724597
54 1     6.44871278506802      1.8996653411276     12.5916847116389
55 1     4.81881111504626     2.73324368428675     14.9551935241621
56 1     4.79670957799513     4.68675026964023     2.42532411174738
57 1     4.78464781095082     2.77165041469906     5.00630606444508
58 1     4.91686535396712     4.70245068503735     7.47634697733499
59 1     4.83865352051224     2.78374101410476     9.93626818005521
60 1     4.85193457202491     4.73390018644525     12.5241366054261
61 1     3.15852494208149     5.52467853508754   0.0611090281138601
62 1     3.14761893413617     7.32964873716875     2.55935675677769
63 1     3.24993574525441     5.66216832454385     4.99273762542975
64 1     3.19157134138964     7.42740803412462     7.46638296671391
65 1      3.1357056080967     5.52258012522021      10.014369710893
66 1     3.28382273004805     7.41011726775058     12.5339688481796
67 1     1.68230177804125     8.39946477294271     14.9740162234833
68 1     1.55028587377059     10.3256952444819     2.46805354299956
69 1     1.64875493159879     8.41835739034209     5.07873106894135
70 1     1.60325317802433     10.2166041306764       7.589871924852
71 1     1.66402805407668     8.44263567188645     9.95557074839274
72 1     1.59302853556333     10.2910551166503     12.4665381294562
73 1     9.72459291551274  0.00626935401283538     15.0277879830447
74 1     9.60736881359207     1.93010721862345     2.47252223415484
75 1     3.21094340904886     11.1245905820916     5.02327701655112
76 1     9.74333052020332     1.77297195372046     7.57019126647938
77 1     9.73075714787184   0.0824937911308936     9.99651159391284
78 1     9.63407055372022     1.78616043080499     12.4498999548154
79 1     8.12819244889761     2.87257053481409       14.95705638936
80 1     8.00553232463933     4.61431639115935     2.44729145295633
81 1     7.97349027450553      2.8221568153074     5.07814552938124
82 1     7.97777568549382     4.70350069670533     7.52106785554514
83 1     7.98086104219787     2.80675213136014      9.9440782821356
84 1     8.13374739830088     4.65255231210497     12.4730285806024
85 1     6.52337424703059     5.48990332207072     14.9859237597309
86 1     6.48733319842918     7.44150829222603     2.41074333098331
87 1     6.47706342521542     5.57302730007656     4.97310496526724
88 1     6.36513395474084     7.44562839318451     7.50642876684511
89 1      6.3874319400722     5.52887804344583     10.0458710017645
90 1      6.5164493825204     7.37713785938874     12.5108742694614
91 1     4.83810277597718      8.3481909884864     15.0194738212657
92 1     4.60582867024156     10.1931200171626     2.56953281184701
93 1     4.85859573079805     8.32694278242707     5.03309955475186
94 1     4.75551433128277     10.1806296140287     7.55272946288661
95 1      4.7461295242671     8.39133440591277     10.0403007848148
96 1     4.82118433599365     10.2298897316585     12.4982690395612
97 2     12.8095953116735   0.0296942611376488      2.2537056119993
ITEM: TIMESTEP
4
ITEM: NUMBER OF ATOMS
97
ITEM: BOX BOUNDS xy xz yz pp pp pp
-6.4403077717034334e+00 1.2880619210125166e+01 -6.4403077717034334e+00
0.0000000000000000e+00 1.1154943116692575e+01 0.0000000000000000e+00
0.0000000000000000e+00 1.5046356078130312e+01 0.0000000000000000e+00
ITEM: ATOMS id type x y z
1 1     6.40804568253148     11.1030382740135   0.0785383272131385
2 1  -0.0709678299313571     2.05650048524333     2.58807270220205
3 1     6.36897794849365     11.1220495962112     5.10427425181886
4 1   0.0492996790654609      1.8257617186252     7.47173634739824
5 1    -6.36092304671651     11.1536670712788     10.0330943494675
6 1  -0.0571462319338065     1.90511581076402     12.5254447550916
7 1    -1.53296603108327     2.88837965517497     14.9562972874985
8 1    -1.57989310435285     4.69326577459498     2.56199172603273
9 1    -1.59259133099113       2.847770232007     5.03951368963703
10 1    -1.63880543651735     4.65869605325425      7.4918651226524
11 1     11.2926541353627      2.7110966843705     9.93959636767251
12 1    -1.65187714686859     4.68357176169558     12.4765120746853
13 1    -3.18597108667124     5.61923628388224  0.00928904700093819
14 1      -3.234673546355     7.45344606903719     2.57342452895097
15 1    -3.16693246902966     5.55103856977054     5.09861692107355
16 1    -3.12854486928069     7.50039957532609     7.53227878597001
17 1    -3.19148920046753     5.55852417501702     10.0671797688117
18 1     -3.1545397075853     7.40088869952964       12.49063014136
19 1    -4.80055120872511     8.42647731144703     14.9576567683949
20 1    -4.63483379639004     10.1914149785799     2.45820499780961
21 1     8.05634419721324     8.34091808326371     5.00809390241656
22 1    -4.80128066676696     10.2218871521121     7.58773235424714
23 1     8.02156352680624     8.31703635145034     9.95080918690012
24 1    -4.88654504405892     10.1701998372899     12.4884007844481
25 1    -3.21703631619996     11.0824856820805   0.0134359446090541
26 1     3.25569116670471      1.8403815578569     2.52088636868942
27 1     3.28039455259125   0.0468939701301255     4.97853961431746
28 1     3.20979425895186     1.81925997778076     7.54542219875448
29 1    -3.19780067159304     11.0985563860429     9.98558349510353
30 1     3.29508200874005     1.87051052035707     12.5401377051919