ITEM: TIMESTEP
73
ITEM: NUMBER OF ATOMS
97
ITEM: BOX BOUNDS xy xz yz pp pp pp
-6.4403077717034334e+00 1.2880619210125166e+01 -6.4403077717034334e+00
0.0000000000000000e+00 1.1154943116692575e+01 0.0000000000000000e+00
0.0000000000000000e+00 1.5046356078130312e+01 0.0000000000000000e+00
ITEM: ATOMS id type x y z
1 1    -6.43923757714271     11.1546718773314    0.134503081196233
2 1  0.00107168393077023     2.09751437475463     2.49925639565835
3 1    -6.43923661788691     11.1546716343368     4.86400973269028
4 1  0.00107350455337338     1.83813546971437     7.50168980886147
5 1    -6.43923543877568     11.1546706992191     10.0224342371685
6 1  0.00107276697738304     1.83813515138131     12.5431783202078
7 1    -1.61020265045135     2.79943138201506     15.0233483351279
8 1    -1.65516504761102     4.69485735180609     2.49925733295348
9 1    -1.61020115227268     2.79943141736197     5.02152126865581
10 1    -1.60358436628313     4.64739207287777     7.52132033346711
11 1    -1.60120873902381     2.78562535896276     10.0224347970225
12 1    -1.60358493558694     4.64739157304453     12.5235493985109
13 1     9.65545342084307     5.57368704146094     15.0159665165808
14 1    -3.20125658182763       7.372763149598     2.49925751595035
15 1     9.65545411251131     5.57368739996048     5.02890367828224
16 1    -3.21657005384935     7.44116372854397     7.52132041806188
17 1    -3.21845498207334     5.57755994405842     10.0224348324128
18 1    -3.21657150756155     7.44116330683511     12.5235496039774
19 1    -4.82026244070015     8.35941389845789     15.0233487616053
20 1    -4.62250323174058      10.105776927776     2.49925610163891
21 1    -4.82026162836424     8.35941480183829     5.02152113385875
22 1    -4.84712779981357     10.2354647919092     7.50169021271676
23 1    -4.82771977430755     8.37410292212304     10.0224350667927
24 1    -4.84712957767128     10.2354652155568     12.5431785294395
25 1    -3.20898741243248     11.1502221577843     15.0233484128969
26 1     3.23787087221575     1.86849401521923     2.49925713181631
27 1    -3.20898676786771     11.1502215324424     5.02152102071183
28 1     3.22524086519378     1.86119952529224     7.52615275716817
29 1    -3.22543653097424     11.1493364683757     10.0224349453144
30 1     3.22524017564913     1.86119996444446     12.5187171039014
31 1     1.61234607984805     2.79943025222863      15.023348093166
32 1     1.65731015765169     4.69485625936016     2.49925710181572
33 1     1.61234672236334     2.79942963194219     5.02152080532721
34 1     1.60573253722263     4.64739022871778     7.52132034524739
35 1     1.60335599325317     2.78562419010074     10.0224347526355
36 1     1.60573159798023     4.64739077086762     12.5235495122739
37 1  0.00107272175311168     5.57681043777943     15.0376298967657
38 1  0.00107183577244388     7.43635751420403     2.49925693606657
39 1    0.001074074893885      5.5768101869985     5.00723989315113
40 1  0.00107459981619773     7.43635608136984     7.50930338999842
41 1   0.0010743926834797     5.58307819020499     10.0224348392651
42 1  0.00107303412601267     7.43635626708042     12.5355667267448
43 1     -1.6093431220031     8.36612887702302      15.037630055406
44 1    -1.54501823825682     10.2414510892547     2.49925735281638
45 1     -1.6093414156643     8.36612911678511     5.00723995274475
46 1    -1.61191081658897     10.2205128473893     7.52132048965557
47 1    -1.60391178075331     8.36299321984439     10.0224350884869
48 1    -1.61191243745111     10.2205123617095     12.5235494962314
49 1     6.44138030680609  0.00674976090083758     15.0159664081495
50 1     6.44138249441766     1.86826813795955     2.49925716264142
51 1     6.44138236765805  0.00674985427098012     5.02890353144999
52 1     6.44138425997374     1.86118481201451     7.52256248698305
53 1  0.00107465961406237     11.1539441870728      10.022434827713
54 1     6.44138264255763     1.86118471997023      12.522307294298
55 1     4.83653771559027     2.79148253810721     15.0299103011323
56 1      4.8394318006531     4.64292555043035     2.49925705779553
57 1     4.83653914224731     2.79148199456352     5.01495915698367
58 1     4.83330043267018     4.64646548393948     7.52256270941918
59 1     4.83117199529997     2.78838264325344     10.0224346390326
60 1     4.83329899642141     4.64646638988382     12.5223074854016
61 1     3.22731137134141     5.57368616685813     15.0159663485491
62 1     3.20340051811842     7.37276164949781     2.49925747514042
63 1     3.22731254103267     5.57368501809597     5.02890338719919
64 1     3.21871861498674      7.4411611629029     7.52132038078882
65 1      3.2206030303608     5.57755877599747     10.0224345988025
66 1     3.21871714970534     7.44116241272831     12.5235499632644
67 1     1.61148686854246     8.36612880708527     15.0376299968981
68 1     1.54716392423426     10.2414502000906     2.49925731419692
69 1     1.61148898793607     8.36612864004336     5.00724008711616
70 1     1.61406145613439     10.2205119419741       7.521320599619
71 1     1.60606041919571     8.36299328617648     10.0224350311797
72 1     1.61405993928717     10.2205124474597     12.5235496232028
73 1     3.21113134693338     11.1502235137496     15.0233488077385
74 1     9.64489185855537     1.86849528363761     2.49925742607041
75 1     3.21113392942282     11.1502228648103     5.02152135431218
76 1     9.65752593544686     1.86120032154378     7.52615289830321
77 1     3.22758510495942     11.1493377388552     10.0224350075363
78 1     9.65752425030179     1.86120100918616     12.5187172156381
79 1     8.04622497867098     2.79148403315469     15.0299102576913
80 1     8.04333301508187     4.64292747157445     2.49925713715871
81 1      8.0462262417742     2.79148407033662     5.01495973922681
82 1     8.04946790442768     4.64646746658185     7.52256250444842
83 1      8.0515939227236     2.78838417864203     10.0224345938496
84 1     8.04946675360132      4.6464676597464     12.5223075328852
85 1      6.4413815177298     5.57115360125075     15.0299106005657
86 1     6.44138091636559     7.41713391992165     2.49925741494559
87 1     6.44138250875151      5.5711527802509     5.01495930759582
88 1     6.44138348848543     7.43171866108818     7.52615310904897
89 1     6.44138318898229     5.57735028293246     10.0224348693667
90 1     6.44138191222086     7.43171925278546     12.5187176738959
91 1     4.82240522939092     8.35941486329094     15.0233485255128
92 1     4.62464801256792     10.1057763065608     2.49925646331206
93 1     4.82240679659897     8.35941457138751     5.02152139999285
94 1     4.84927643728331     10.2354643410767     7.50169018300337
95 1     4.82986674568259     8.37410308104917     10.0224350788167
96 1     4.84927546553369     10.2354658072614       12.54317888424
97 2    -6.43923743320931     11.1546722220587     2.49925648655377
