ITEM: TIMESTEP
7
ITEM: NUMBER OF ATOMS
4
ITEM: BOX BOUNDS pp pp pp
-5.3946594409035728e-03 3.1977792894409034e+00
-9.3438298140452770e-03 5.5387162062760167e+00
-1.7715908501488183e-02 5.0627575485014873e+00
ITEM: ATOMS id type x y z
1 1     3.19777927613777     1.84000952340018     1.25240245574926
2 1     1.59619232830313    0.915332835016759     3.79263918425075
3 1 -0.00539464613777385     3.68936285306179     3.79263918425075
4 1     1.59619230169687     4.61403954144521     1.25240245574926
