ITEM: TIMESTEP
0
ITEM: NUMBER OF ATOMS
97
ITEM: BOX BOUNDS xy xz yz pp pp pp
-6.4403077717034334e+00 1.2880619210125166e+01 -6.4403077717034334e+00
0.0000000000000000e+00 1.1154943116692575e+01 0.0000000000000000e+00
0.0000000000000000e+00 1.5046356078130312e+01 0.0000000000000000e+00
ITEM: ATOMS id type x y z
1 1                    0                    0   0.0432189854709689
2 1 3.34234666999631e-07     2.03362701928381     2.49920213756895
3 1                    0                    0     5.10672197309026
4 1 3.04415132908425e-07     1.85219218568203     7.52405930535105
5 1                    0                    0     10.0563987452578
6 1 3.03539096798806e-07     1.84686200556511     12.5314816434402
7 1     -1.6164779102856      2.8011237632298     15.0259496196731
8 1    -1.63990192121066     4.67661655476301     2.50486654704598
9 1    -1.60838363069182     2.79374146487604     5.02330148499869
10 1    -1.60609100535051     4.65006278066921     7.52561803646804
11 1     -1.6084504747938     2.78761891957359     10.0270354586153
12 1    -1.60409054782718     4.65203521105809     12.5265677396469
13 1    -3.21776108413573     5.57885304812204     15.0286099907416
14 1    -3.21019087282027     7.39643749656369     2.50486654704598
15 1     9.65999336260875     5.57719906689548     5.02653170578665
16 1     -3.2162816570641     7.43899549193082     7.52561803646804
17 1     9.65854290255418     5.57636164936404     10.0272364301839
18 1    -3.21357324723811     7.43974172681853     12.5265677396469
19 1    -4.82270300861637     8.35446994013846     15.0259496196731
20 1    -4.67913522051345      10.138129609442     2.49920213756895
21 1    -4.82504912395988     8.36517095024164     5.02330148499869
22 1    -4.83626238920149     10.2288470212057     7.52405930535105
23 1    -4.83038482446953     8.36817432579272     10.0270354586153
24 1    -4.84087846112872     10.2315121112642     12.5314816434402
25 1    -3.20622416771871      11.154292527371     15.0259496196731
26 1     3.22394684979781     1.86134634484629     2.49607532181632
27 1    -3.21666457624782     11.1509738256959     5.02330148499869
28 1     3.22454155695693      1.8616897077947     7.51955038309912
29 1     -3.2219334235684      11.154092985373     10.0270354586153
30 1     3.22893126990185     1.86422410373792     12.5225263543159
31 1      1.6164788310372      2.8011237632298     15.0259496196731
32 1     1.63990345845162     4.67661655476301     2.50486654704598
33 1      1.6083845490168     2.79374146487604     5.02330148499869
34 1     1.60609253386304     4.65006278066921     7.52561803646804
35 1     1.60845139110625     2.78761891957359     10.0270354586153
36 1     1.60409207698806     4.65203521105809     12.5265677396469
37 1 9.17470772231155e-07     5.58228552913404  0.00588751373465996
38 1 1.22223943604258e-06     7.43662874269782     2.50348266317954
39 1  9.1693030564049e-07     5.57899712093034     5.00824731446283
40 1 1.22223943604258e-06     7.43662874269782     7.51446192993809
41 1 9.16914244612881e-07     5.57889938998053     10.0258349017287
42 1 1.22223943604258e-06     7.43662874269782     12.5380505143406
43 1     -1.6059070021097     8.36380034947971  0.00588751373465996
44 1      -1.570287716159     10.2368321868411     2.50486654704598
45 1    -1.60875485016946     8.36544455861872     5.00824731446283
46 1    -1.61018942017781     10.2208279655678     7.52561803646804
47 1    -1.60883949457593     8.36549342913079     10.0258349017287
48 1    -1.60948147819476     10.2181092902168     12.5265677396469
49 1 1.83290504380794e-06     11.1521801445695     15.0286099907416
50 1     6.44030991088924     1.86078050067988     2.50248400129803
51 1     6.44030960515215 0.000544980255770751     5.02653170578665
52 1     6.44030991090403     1.86087050462851     7.52062351567058
53 1     6.44030960542742  0.00221981531864785     10.0272364301839
54 1     6.44030991086353     1.86062406668454     12.5330561424846
55 1     4.83194268700283     2.78972306158373      15.037417271852
56 1     4.83163879825419     4.64708130668343     2.50248400129803
57 1     4.82952782252972     2.78832883654829     5.01302188855991
58 1     4.83171674324025     4.64703630470911     7.52062351567058
59 1      4.8306343352825     2.78896768929044     10.0241382111762
60 1     4.83150332892144      4.6471595236811     12.5330561424846
61 1     3.21776291794898     5.57885304812204     15.0286099907416
62 1     3.21019330408796     7.39643749656369     2.50486654704598
63 1     3.22062768078599     5.57719906689548     5.02653170578665
64 1     3.21628410232094     7.43899549193082     7.52561803646804
65 1      3.2220781405653     5.57636164936404     10.0272364301839
66 1     3.21357569274024     7.43974172681853     12.5265677396469
67 1     1.60590975135723     8.36380034947971  0.00588751373465996
68 1     1.57029108108695     10.2368321868411     2.50486654704598
69 1     1.60875759995745     8.36544455861872     5.00824731446283
70 1     1.61019277984505     10.2208279655678     7.52561803646804
71 1     1.60884224437998     8.36549342913079     10.0258349017287
72 1     1.60948483696835     10.2181092902168     12.5265677396469
73 1     3.20622783422315      11.154292527371     15.0259496196731
74 1     9.65667297216666     1.86134634484628     2.49607532181632
75 1     3.21666824166138     11.1509738256959     5.02330148499869
76 1     9.65607826512041      1.8616897077947     7.51955038309912
77 1     3.22193709000726      11.154092985373     10.0270354586153
78 1     9.65168855300857     1.86422410373792     12.5225263543159
79 1     8.04867744012644     2.78972306158373      15.037417271852
80 1     8.04898193940347     4.64708130668343     2.50248400129803
81 1     8.05109230414125     2.78832883654829     5.01302188855991
82 1     8.04890399440262     4.64703630470911     7.52062351567058
83 1     8.04998579159847     2.78896768929044     10.0241382111762
84 1     8.04911740876193      4.6471595236811     12.5330561424846
85 1     6.44031052141763     5.57549699087927      15.037417271852
86 1     6.44031082658242     7.43225042435417     2.49607532181632
87 1     6.44031052187593     5.57828544095015     5.01302188855991
88 1     6.44031082646956     7.43156370853165     7.51955038309912
89 1     6.44031052166593     5.57700774554016     10.0241382111762
90 1     6.44031082563648      7.4264949065709     12.5225263543159
91 1     4.82270575479692     8.35446994013846     15.0259496196731
92 1     4.67913855299708      10.138129609442     2.49920213756895
93 1     4.82505187365794     8.36517095024164     5.02330148499869
94 1     4.83626575150466     10.2288470212057     7.52405930535105
95 1     4.83038757515482     8.36817432579272     10.0270354586153
96 1     4.84088182430793     10.2315121112642     12.5314816434402
97 2                    0                    0     2.23354114741615
ITEM: TIMESTEP
1
ITEM: NUMBER OF ATOMS
97
ITEM: BOX BOUNDS xy xz yz pp pp pp
-6.4403077717034334e+00 1.2880619210125166e+01 -6.4403077717034334e+00
0.0000000000000000e+00 1.1154943116692575e+01 0.0000000000000000e+00
0.0000000000000000e+00 1.5046356078130312e+01 0.0000000000000000e+00
ITEM: ATOMS id type x y z
1 1      6.4403114360128     11.1549431162439   0.0430258406938516
2 1 3.39110784500602e-07     2.03497063649431      2.5002485581496
3 1     6.44031143604654     11.1549431162713     5.10172197309026
4 1 3.06278480891316e-07     1.85254409190099     7.52499731821986
5 1     6.44031143652017     11.1549431163304     10.0551833925336
6 1 3.05434795761689e-07     1.84737274446941     12.5315534761641
7 1    -1.61627804130454     2.80142174193618     15.0255779908293
8 1     -1.6401473650851     4.67697512279932     2.50489164503915
9 1    -1.60842158328536      2.7937418288176     5.02326727632155
10 1    -1.60613679938923     4.65003799338229     7.52550276965116
11 1    -1.60847825239445     2.78761639642631     10.0269675944453
12 1    -1.60414247869984     4.65201424866535     12.5266992221185
13 1    -3.21788603210534     5.57878091002062      15.028525001815
14 1     -3.2100030654633     7.39604565021926     2.50489164510655
15 1     9.65989660185163     5.57714320300558     5.02655193958518
16 1     -3.2163260196268     7.43896822577065     7.52550276958788
17 1     9.65855031751376     5.57636593108341     10.0272141605242
18 1    -3.21361736589648      7.4397072334422     12.5266992220824
19 1    -4.82234501765864     8.35449404350461     15.0255779907442
20 1    -4.67797160938244     10.1374578016649     2.50024855875028
21 1    -4.82506778583045     8.36513790126448     5.02326727639745
22 1    -4.83595762779617     10.2286710685849     7.52499731834593
23 1    -4.83040089901487     8.36815153254177      10.026967594438
24 1    -4.84043614654825     10.2312567422778     12.5315534761863
25 1    -3.20606604825178     11.1539704445639     15.0255779910066
26 1     3.22443970692867     1.86163089539283     2.49638223694538
27 1    -3.21664528743351     11.1510065099207     5.02326727650123
28 1      3.2245766639809     1.86170997601795     7.51981543286326
29 1    -3.22192172271104     11.1541183008489     10.0269675944129
30 1     3.22883106670424     1.86416625068574     12.5225692367698
31 1     1.61627895830654     2.80142174123071     15.0255779913063
32 1     1.64014890491667     4.67697512134485     2.50489164507213
33 1     1.60842249808733     2.79374182837355      5.0232672763492
34 1     1.60613833177127     4.65003799342921     7.52550276957077
35 1     1.60847916486754     2.78761639642649     10.0269675944408
36 1      1.6041440117781     4.65201424879165     12.5266992221557
37 1 9.15584759074969e-07     5.58211015470608   0.0054787722521913
38 1 1.22429139202449e-06     7.43662874311738     2.50367642431925
39 1 9.15018631509707e-07      5.5789098647329     5.00840568400491
40 1 1.22414832249444e-06     7.43662874318661     7.51449591380596
41 1 9.15025483024369e-07     5.57901266688597     10.0258258220321
42 1 1.22413332898674e-06     7.43662874306973     12.5381182782789
43 1    -1.60605888251336     8.36388803624454  0.00547877224287864
44 1    -1.56985446355898     10.2368654658058     2.50489164510367
45 1    -1.60883041785738     8.36548818614959     5.00840568412893
46 1     -1.6101879870465     10.2208800200007     7.52550276950657
47 1    -1.60874139538153     8.36543678994503      10.025825821929
48 1    -1.60947366396487     10.2181647471121     12.5266992221592
49 1 1.83089539595954e-06     11.1523244196207      15.028525001904
50 1     6.44030991265474     1.86092613138356     2.50249662013587
51 1     6.44030960316206 0.000656707260641107     5.02655193947707
52 1     6.44030991287379     1.86085655299039     7.52061565926535
53 1      6.4403096035344  0.00221125091828276     10.0272141605815
54 1     6.44030991285696     1.86061114375353     12.5329379149494
55 1     4.83210698875411     2.78981792202837      15.037418422598
56 1     4.83176491968779     4.64700849183803     2.50249662018712
57 1     4.82967633329156     2.78841458012981     5.01296157309805
58 1     4.83170466239983     4.64704328115539     7.52061565915648
59 1      4.8307006195748      2.7890059591777     10.0241511060844
60 1     4.83149213883087     4.64716598572268     12.5329379149938
61 1     3.21788786215526     5.57878090983177     15.0285250020066
62 1     3.21000550009837     7.39604565335033     2.50489164518444
63 1     3.22072443772871     5.57714320287808     5.02655193943731
64 1     3.21632846871796     7.43896822562258     7.52550276944481
65 1      3.2220707217773     5.57636593111031     10.0272141605387
66 1     3.21361981520967     7.43970723320813     12.5266992222249
67 1     1.60606162791613     8.36388803615263  0.00547877231793619
68 1     1.56985783293431     10.2368654643993     2.50489164514858
69 1     1.60883316392855     8.36548818618625     5.00840568402595
70 1     1.61019135050373     10.2208800200684      7.5255027694439
71 1     1.60874414137257     8.36543678995679     10.0258258219146
72 1     1.60947702653671      10.218164747204     12.5266992222644
73 1     3.20606971099496     11.1539704439789     15.0255779912971
74 1     9.65618011861684     1.86163089557049     2.49638223708208
75 1     3.21664894907607       11.15100650939     5.02326727626882
76 1     9.65604316187163     1.86170997601312     7.51981543296369
77 1     3.22192538534556     11.1541183009232     10.0269675944262
78 1     9.65178876003442     1.86416625060107     12.5225692368394
79 1     8.04851313463208     2.78981792202106     15.0374184225589
80 1     8.04885582162989     4.64700849195396     2.50249662022822
81 1     8.05094378962095     2.78841458008977     5.01296157310434
82 1     8.04891607898608     4.64704328103798     7.52061565909844
83 1     8.04991950350637     2.78900595918035     10.0241511060577
84 1     8.04912860258241     4.64716598557064     12.5329379150474
85 1     6.44031051949298     5.57530726907227     15.0374184226539
86 1     6.44031082838649     7.43168132420063     2.49638223707375
87 1     6.44031051991974     5.57811395291471     5.01296157308758
88 1     6.44031082834297     7.43152317296978     7.51981543288801
89 1     6.44031051974945     5.57693120452597     10.0241511060006
90 1      6.4403108275058     7.42661061380354     12.5225692368191
91 1     4.82234776019991     8.35449404431629     15.0255779915116
92 1     4.67797495353895     10.1374578031563     2.50024855675764
93 1     4.82507053179015     8.36513790152789      5.0232672761927
94 1     4.83596099408035     10.2286710688319     7.52499731822612
95 1     4.83040364593133     8.36815153252689     10.0269675944468
96 1     4.84043951378037     10.2312567425742     12.5315534760747
97 2     6.44031142894559     11.1549431148417      2.2357537561298
ITEM: TIMESTEP
2
ITEM: NUMBER OF ATOMS
97
ITEM: BOX BOUNDS xy xz yz pp pp pp
-6.4403077717034334e+00 1.2880619210125166e+01 -6.4403077717034334e+00
0.0000000000000000e+00 1.1154943116692575e+01 0.0000000000000000e+00
0.0000000000000000e+00 1.5046356078130312e+01 0.0000000000000000e+00
ITEM: ATOMS id type x y z
1 1     6.44031143362063     11.1549431157993   0.0429417485073904
2 1  3.4412362466056e-07     2.03628937785522     2.50124709784401
3 1     6.44031143367369     11.1549431158497     5.09672197309026
4 1 3.08176281715713e-07     1.85286678183312     7.52587302281895
5 1     6.44031143459036      11.154943115964     10.0539980391751
6 1 3.07370083001749e-07     1.84787132518232      12.531611569302
7 1    -1.61607731784298     2.80171352693127     15.0252246743743
8 1    -1.64039662929276     4.67733989159248     2.50491344888637
9 1    -1.60846054392347     2.79374357721021     5.02324900820211
10 1    -1.60618300560844     4.65001365556491     7.52538949832574
11 1    -1.60850963607679     2.78762040695281     10.0269090586354
12 1    -1.60419642482515     4.65199526061758     12.5268219279536
13 1    -3.21801376565233     5.57870716367697       15.02843824001
14 1    -3.20981179824758     7.39564739496385     2.50491344902043
15 1     9.65979768169054     5.57708609239341     5.02657289265562
16 1    -3.21637019901693     7.43894037789793     7.52538949820323
17 1     9.65855958749025     5.57637128380974     10.0271910150112
18 1    -3.21366078233755     7.43967000761343     12.5268219278794
19 1    -4.82199196339471     8.35452198375925     15.0252246742158
20 1    -4.67682954158968     10.1367984320485     2.50124709899604
21 1    -4.82508575276733     8.36510328709182     5.02324900835278
22 1    -4.83567816841902     10.2285097241265     7.52587302305793
23 1    -4.83041311828298     8.36812234951292     10.0269090586206
24 1    -4.84000436124979     10.2310074524064     12.5316115693448
25 1    -3.20591372000853     11.1536507186009     15.0252246747281
26 1     3.22492637378969     1.86191187196972     2.49668061205732
27 1    -3.21662429567987     11.1510393748893     5.02324900857527
28 1     3.22461109045628     1.86172985131293     7.52007834882599
29 1    -3.22190256052635     11.1541434724054     10.0269090585703
30 1     3.22873091831805     1.86410842926649     12.5226089240372
31 1     1.61607823104927     2.80171352548735     15.0252246753057
32 1     1.64039817178827     4.67733988873725     2.50491344895898
33 1     1.60846145515157     2.79374357630359     5.02324900828583
34 1       1.606184541918     4.65001365565193     7.52538949816621
35 1     1.60851054464527     2.78762040695473     10.0269090586243
36 1     1.60419796188023      4.6519952608594     12.5268219280329
37 1 9.13663647726024e-07     5.58193749750286  0.00507558690782376
38 1 1.22637869906721e-06     7.43662874354359     2.50386334681486
39 1 9.13075438279079e-07     5.57882237516961     5.00856346060569
40 1 1.22608834256841e-06     7.43662874367881     7.51452931112319
41 1 9.13108327560563e-07     5.57912375787541     10.0258173069426
42 1 1.22605838929093e-06      7.4366287434479     12.5381815135709
43 1    -1.60620840975706     8.36397436438476  0.00507558689595651
44 1    -1.56941393069812     10.2368989529236     2.50491344901985
45 1    -1.60890618767489     8.36553193035574     5.00856346084256
46 1    -1.61018595853601     10.2209322066934     7.52538949804351
47 1    -1.60864518926956     8.36538124371111     10.0258173067391
48 1    -1.60946313224086     10.2182209621333     12.5268219280333
49 1 1.82885812218195e-06     11.1524719111338     15.0284382402073
50 1     6.44030991446098      1.8610741212019     2.50250919571252
51 1     6.44030960114452 0.000770927685671815     5.02657289242248
52 1     6.44030991487333     1.86084428740841     7.52060872917123
53 1     6.44030960161093  0.00220054448396179     10.0271910151224
54 1     6.44030991488051     1.86060027823585     12.5328191709873
55 1     4.83227032583974     2.78991222553619     15.0374152987223
56 1     4.83189308419745     4.64693449745244      2.5025091958145
57 1      4.8298261095582     2.78850105436426     5.01290832877713
58 1     4.83169404175231     4.64704941458161     7.52060872895765
59 1     4.83076674939389      2.7890441398928     10.0241650839053
60 1     4.83148273053705     4.64717141906665     12.5328191710734
61 1     3.21801559187097     5.57870716330569     15.0284382404203
62 1     3.20981423627645     7.39564740121685     2.50491344917813
63 1     3.22082335400791     5.57708609214494     5.02657289233352
64 1      3.2163726520091     7.43894037760968     7.52538949791597
65 1     3.22206144791042     5.57637128386476      10.027191015038
66 1     3.21366323553155     7.43967000715612     12.5268219281734
67 1     1.60621115125519     8.36397436420766  0.00507558702934668
68 1      1.5694173046094     10.2368989501051     2.50491344910494
69 1     1.60890892995759     8.36553193042402     5.00856346065753
70 1     1.61018932584654     10.2209322068293     7.52538949791579
71 1     1.60864793138587     8.36538124373116     10.0258173067115
72 1     1.60946649867594     10.2182209623167     12.5268219282479
73 1     3.20591737887496     11.1536507174228     15.0252246752724
74 1     9.65569345536063     1.86191187235613     2.49668061233415
75 1     3.21662795347883     11.1510393738266     5.02324900811444
76 1     9.65600873923804     1.86172985130242     7.52007834901995
77 1     3.22190621929504     11.1541434725587     10.0269090585966
78 1     9.65188891231478     1.86410842909519     12.5226089241779
79 1     8.04834979375004     2.78991222551037     15.0374152986505
80 1     8.04872766082794     4.64693449766548     2.50250919589568
81 1     8.05079400954117      2.7885010542766     5.01290832878957
82 1     8.04892670343731     4.64704941434792     7.52060872884145
83 1     8.04985336982698     2.78904413989632     10.0241650838549
84 1     8.04913801466784     4.64717141876402     12.5328191711792
85 1     6.44031051753224     5.57511866113294     15.0374152988367
86 1     6.44031083023114     7.43111937196573     2.49668061231466
87 1      6.4403105179293     5.57794100356414     5.01290832875606
88 1     6.44031083024915     7.43148342328443     7.52007834887132
89 1     6.44031051780123     5.57685484184105     10.0241650837413
90 1     6.44031082940637     7.42672625779082     12.5226089241379
91 1     4.82199470223949     8.35452198534056     15.0252246756916
92 1     4.67683289666732     10.1367984344322     2.50124709517288
93 1     4.82508849494113     8.36510328761004     5.02324900797567
94 1     4.83568153872772     10.2285097245975     7.52587302284815
95 1     4.83041586136663     8.36812234948529     10.0269090586357
96 1     4.84000773258052     10.2310074529764     12.5316115691258
97 2     6.44031142015288     11.1549431131288     2.23802809057013
ITEM: TIMESTEP
3
ITEM: NUMBER OF ATOMS
97
ITEM: BOX BOUNDS xy xz yz pp pp pp
-6.4403077717034334e+00 1.2880619210125166e+01 -6.4403077717034334e+00
0.0000000000000000e+00 1.1154943116692575e+01 0.0000000000000000e+00
0.0000000000000000e+00 1.5046356078130312e+01 0.0000000000000000e+00
ITEM: ATOMS id type x y z
1 1     6.44031143124077     11.1549431153579   0.0429662401434449
2 1 3.49269642060391e-07     2.03758526935675     2.50219692416489
3 1      6.4403114313007     11.1549431154274     5.09172197309026
4 1  3.1010819521542e-07     1.85315969195722     7.52668549538702
5 1     6.44031143263201     11.1549431155934     10.0528430080328
6 1 3.09345104178919e-07     1.84835685640577     12.5316566886544
7 1    -1.61587588462936     2.80199868099707     15.0248898761611
8 1    -1.64064957980059     4.67771057572861     2.50493203751647
9 1    -1.60850056430037     2.79374679001203     5.02324635213937
10 1     -1.6062295157956     4.64998972668726     7.52527845732531
11 1    -1.60854446734465     2.78763094131797     10.0268595249001
12 1    -1.60425236122102     4.65197823446273     12.5269358167729
13 1    -3.21814433858211     5.57863177802674      15.028349563391
14 1     -3.2096172513325     7.39524298958178     2.50493203771631
15 1     9.65969657258494      5.5770277180036     5.02659465281238
16 1    -3.21641417622808     7.43891206229222      7.5252784571477
17 1     9.65857072704789     5.57637771595182      10.027166873517
18 1    -3.21370349485415     7.43963007719329     12.5269358166587
19 1    -4.82164429683035     8.35455385417235       15.02488987594
20 1    -4.67570726256343     10.1361504875869     2.50219692582169
21 1    -4.82510298137198     8.36506702297622     5.02324635236407
22 1    -4.83542449909343     10.2283632695908     7.52668549572582
23 1    -4.83042141154339     8.36808691888547     10.0268595248777
24 1     -4.8395838771199     10.2307646872991     12.5316566887163
25 1    -3.20576748926414     11.1533336934294     15.0248898766876
26 1     3.22540663591302     1.86218915075431     2.49697039298918
27 1    -3.21660150589351     11.1510724253917     5.02324635272158
28 1     3.22464488079928     1.86174935932321     7.52033931319585
29 1     -3.2218760247799     11.1541683676985     10.0268595248021
30 1     3.22863083465508     1.86405064520255      12.522645624662
31 1     1.61587679399517     2.80199867878381     15.0248898775215
32 1     1.64065112503616     4.67771057152917     2.50493203763526
33 1     1.60850147190478     2.79374678862479     5.02324635230978
34 1     1.60623105609155     4.64998972680794     7.52527845708766
35 1     1.60854537194308     2.78763094132345     10.0268595248804
36 1     1.60425390231308     4.65197823480907     12.5269358168997
37 1 9.11706900416677e-07     5.58176776846544  0.00467817618802603
38 1 1.22850095137513e-06     7.43662874397634     2.50404325139238
39 1 9.11100156691574e-07     5.57873474578877     5.00872047214948
40 1 1.22805962774897e-06     7.43662874417433     7.51456207776252
41 1 9.11162506798311e-07     5.57923262220246     10.0258092852369
42 1 1.22801484199613e-06     7.43662874383238     12.5382400984559
43 1    -1.60635540116067     8.36405922842955  0.00467817618063116
44 1    -1.56896643176742     10.2369326748259     2.50493203772319
45 1    -1.60898207860692     8.36557574446269      5.0087204724876
46 1    -1.61018342385177     10.2209844521963     7.52527845691233
47 1    -1.60855091152753     8.36532681080218      10.025809284936
48 1    -1.60944990629752     10.2182779198722     12.5269358168905
49 1 1.82679300105345e-06      11.152622681237     15.0283495637161
50 1     6.44030991630872     1.86122444642011     2.50252167845282
51 1     6.44030959909955 0.000887675640861224     5.02659465243745
52 1     6.44030991690297     1.86083372128954      7.5206028700995
53 1     6.44030959965674  0.00218767919783606     10.0271668736788
54 1     6.44030991693452     1.86059149879994     12.5326998672021
55 1     4.83243252023467     2.79000586932458     15.0374077793101
56 1     4.83202327124574     4.64685933538447     2.50252167860488
57 1     4.82997702729517     2.78858818764044     5.01286233257772
58 1     4.83168489290859     4.64705469828443     7.52060286978541
59 1     4.83083267462735      2.7890822025035     10.0241801404583
60 1     4.83147512886775     4.64717580937904     12.5326998673274
61 1     3.21814616090049     5.57863177747975     15.0283495640473
62 1     3.20961969277982     7.39524299893987     2.50493203795564
63 1     3.22092445916339     5.57702771764117     5.02659465228993
64 1     3.21641663318832     7.43891206187115     7.52527845671504
65 1      3.2220503043999     5.57637771603621      10.027166873554
66 1     3.21370595199909     7.43963007652336      12.526935817113
67 1      1.6063581386938      8.3640592281744  0.00467817635466664
68 1     1.56896981029956     10.2369326705909     2.50493203784371
69 1     1.60898481702925      8.3655757445581     5.00872047224235
70 1     1.61018679507944     10.2209844524009     7.52527845671733
71 1     1.60855364970709     8.36532681082716     10.0258092848963
72 1     1.60945327666102     10.2182779201462     12.5269358172179
73 1     3.20577114414037     11.1533336916508     15.0248898774526
74 1     9.65521319687238     1.86218915137529      2.4969703934083
75 1     3.21660515977593     11.1510724237957     5.02324635203506
76 1     9.65597495280444     1.86174935930606     7.52033931347582
77 1      3.2218796796206     11.1541683679348     10.0268595248411
78 1     9.65198899993865     1.86405064494276     12.5226456248754
79 1     8.04818759550504     2.79000586926856      15.037407779212
80 1     8.04859747753531     4.64685933567505     2.50252167872514
81 1     8.05064308793609     2.78858818749721     5.01286233259631
82 1     8.04893585614576      4.6470546979354     7.52060286961138
83 1     8.04978744067227     2.78908220250606     10.0241801403871
84 1     8.04914562019078     4.64717580892704     12.5326998674838
85 1     6.44031051553489     5.57493137262673     15.0374077794854
86 1     6.44031083211511       7.430564815301     2.49697039337519
87 1     6.44031051590415       5.577766736121     5.01286233254605
88 1     6.44031083218849      7.4314444081889     7.52033931325727
89 1       6.440310515821     5.57677871534992     10.0241801402179
90 1     6.44031083133868     7.42684182708813     12.5226456248163
91 1     4.82164703192174     8.35455385648033     15.0248898780653
92 1     4.67571062785174     10.1361504902926     2.50219692032174
93 1     4.82510571971216      8.3650670237393     5.02324635184796
94 1     4.83542787347131     10.2283632702637     7.52668549545532
95 1     4.83042415072942     8.36808691884688     10.0268595248969
96 1     4.83958725259559     10.2307646881198     12.5316566883937
97 2     6.44031141200589     11.1549431115462     2.24036794312953
ITEM: TIMESTEP
4
ITEM: NUMBER OF ATOMS
97
ITEM: BOX BOUNDS xy xz yz pp pp pp
-6.4403077717034334e+00 1.2880619210125166e+01 -6.4403077717034334e+00
0.0000000000000000e+00 1.1154943116692575e+01 0.0000000000000000e+00
0.0000000000000000e+00 1.5046356078130312e+01 0.0000000000000000e+00
ITEM: ATOMS id type x y z
1 1     6.44031142886878     11.1549431149186   0.0430987783825134
2 1 3.54545385167264e-07     2.03886040758775      2.5030972276411
3 1     6.44031142892504     11.1549431150037     5.08672197309026
4 1 3.12073779366272e-07     1.85342225173358     7.52743385968765
5 1     6.44031143064487     11.1549431152187     10.0517185724903
6 1 3.11359909382277e-07     1.84882840501135     12.5316896726216
7 1     -1.6156738970205     2.80227674676003      15.024573778865
8 1    -1.64090607839914      4.6780868705994     2.50494749790237
9 1    -1.60854168908552     2.79375155189679     5.02325892091457
10 1    -1.60627621024398     4.64996616177918     7.52516988543987
11 1    -1.60858255677002     2.78764796248829     10.0268186248501
12 1    -1.60431025202828     4.65196314628253     12.5270408675434
13 1    -3.21827780055517     5.57855472439862     15.0282588260721
14 1     -3.2094196194121     7.39483270607151     2.50494749816701
15 1     9.65959324972448     5.57696806551174     5.02661731727783
16 1    -3.21645793035218     7.43888340510751     7.52516988521134
17 1     9.65858374713507     5.57638523383085     10.0271416133167
18 1     -3.2137455062306      7.4395874851958     12.5270408673877
19 1    -4.82130249174071     8.35458974888718      15.024573778591
20 1    -4.67460295659198     10.1355129199756     2.50309722975875
21 1    -4.82511942064969     8.36502902789606     5.02325892121296
22 1    -4.83519711392106      10.228231990247     7.52743386011328
23 1     -4.8304257161542     8.36804542322565     10.0268186248199
24 1    -4.83917550227137       10.23052891352     12.5316896727011
25 1    -3.20562767443474     11.1530197322794     15.0245737795578
26 1     3.22588026262365     1.86246259856679     2.49725153565094
27 1    -3.21657682240959     11.1511056577765     5.02325892172315
28 1     3.22467808308324     1.86176852780379     7.52059851707801
29 1    -3.22184224225756     11.1541928411954     10.0268186247194
30 1     3.22853082576711     1.86399290429714     12.5226795587881