ITEM: TIMESTEP
68
ITEM: NUMBER OF ATOMS
97
ITEM: BOX BOUNDS xy xz yz pp pp pp
-6.4403077717034334e+00 1.2880619210125166e+01 -6.4403077717034334e+00
0.0000000000000000e+00 1.1154943116692575e+01 0.0000000000000000e+00
0.0000000000000000e+00 1.5046356078130312e+01 0.0000000000000000e+00
ITEM: ATOMS id type x y z
1 1     6.44031125999675     11.1549430841408    0.136947707778386
2 1 7.23780456914578e-07     2.09778523677016     2.50170224296575
3 1     6.44031126000345     11.1549430841885     4.86645631421671
4 1 4.08587628080411e-07     1.83840821077212     7.50413577236344
5 1     6.44031132622716     11.1549430962886      10.024879339629
6 1 4.08571479360543e-07     1.83840823035909      12.545622889066
7 1    -1.61127294143072     2.79970197184475      15.025792482074
8 1    -1.65623728362809       4.695127874681     2.50170161271934
9 1    -1.61127352333413      2.7997027036823     5.02396567694885
10 1    -1.60465800584754     4.64766449333091        7.52376474299
11 1    -1.60228307022654       2.785898046711     10.0248790849485
12 1    -1.60465755677569     4.64766409411086      12.525994592176
13 1     9.65438239311346     5.57395962523311     15.0184116409527
14 1    -3.20232728157801     7.37303493117272     2.50170161271748
15 1     9.65438189187865     5.57395933589397     5.03134744805372
16 1     -3.2176420926411      7.4414355949957     7.52376474137371
17 1    -3.21952744765614      5.5778332777812     10.0248798361489
18 1    -3.21764221379537     7.44143618343735     12.5259945937932
19 1    -4.82133189276289     8.35968854390182     15.0257924783968
20 1    -4.62357247120439     10.1060507223348     2.50170224297116
21 1    -4.82133154996637     8.35968767410956     5.02396568063311
22 1    -4.84819957656952     10.2357390432228     7.50413577019517
23 1    -4.82879147542951     8.37437596327629     10.0248790849501
24 1    -4.84819955957028     10.2357390333381      12.545622891234
25 1    -3.21005812465193     11.1504957392994     15.0257924487862
26 1      3.2367999498409     1.86876705419508     2.50170109980313
27 1    -3.21005719993526     11.1504958774276     5.02396571023244
28 1     3.22416893554035     1.86147452461636     7.52859647807648
29 1    -3.22650760138524     11.1496121708782     10.0248790849497
30 1     3.22416866131163     1.86147436623567     12.5211623432663
31 1     1.61127372199862     2.79970193951198     15.0257924371202
32 1     1.65623903033473     4.69512789886934     2.50170161272088
33 1     1.61127430393173     2.79970267134829     5.02396572189519
34 1     1.60465975026741     4.64766450091385     7.52376474760911
35 1     1.60228377805941     2.78589804430463      10.024879084951
36 1     1.60465930117018     4.64766410169256     12.5259945875581
37 1 8.12083984847406e-07      5.5770820641193     15.0400750761771
38 1 1.28894146001682e-06     7.43662875682231     2.50170131401227
39 1 8.12099436089276e-07     5.57708250045375     5.00968458706239
40 1 1.31505551898722e-06     7.43662876162684     7.51174894657503
41 1 8.14391053532188e-07     5.58335038871898     10.0248798989497
42 1 1.31505176607633e-06     7.43662876157007     12.5380112928587
43 1     -1.6104134357815     8.36640206164728     15.0400750835207
44 1    -1.54608862301819     10.2417235024158     2.50170161271739
45 1    -1.61041305794335     8.36640184357038      5.0096845797163
46 1    -1.61298275697131     10.2207862083699     7.52376474441526
47 1    -1.60498490027692     8.36326789600126     10.0248798989495
48 1    -1.61298332721138     10.2207860189724     12.5259945907505
49 1      6.4403094837799  0.00702383092662254      15.018411639604
50 1     6.44031006041736     1.86854184262904     2.50170083965839
51 1     6.44030948379314  0.00702440978800281     5.03134744940403
52 1     6.44031004028366     1.86145950318554     7.52500669783809
53 1 1.71889945392434e-06     11.1542196324034     10.0248798361502
54 1     6.44031004027026     1.86145923287698      12.524752378476
55 1     4.83546611857567     2.79175735111202     15.0323552220031
56 1     4.83836042311285     4.64320068931747     2.50170083965803
57 1     4.83546652068373     2.79175758332098     5.01740323247189
58 1     4.83222692980945     4.64674184915175      7.5250066985015
59 1     4.83009884606337     2.78865855986979     10.0248795887603
60 1     4.83222669575213     4.64674198421723     12.5247523778151
61 1     3.22623844588219     5.57395960124999     15.0184116389086
62 1     3.20232979642303     7.37303492157898     2.50170161272192
63 1     3.22623894715467      5.5739593119042     5.03134745010513
64 1       3.217644739346     7.44143557385709     7.52376475073336
65 1     3.21952907475538     5.57783326490486     10.0248798361521
66 1      3.2176448604868     7.44143616230323     12.5259945844439
67 1     1.61041594867025     8.36640204539437     15.0400750620092
68 1      1.5460921495186     10.2417234222159     2.50170161272024
69 1     1.61041557084883     8.36640182730945     5.00968460123515
70 1     1.61298631355613      10.220786208831      7.5237647491559
71 1     1.60498743360455     8.36326789066907     10.0248798989534
72 1     1.61298688377957     10.2207860194409     12.5259945860193
73 1     3.21006152021555     11.1504956772524     15.0257924595727
74 1     9.64382018065219     1.86876697921725     2.50170109981078
75 1      3.2100605955186     11.1504958153702     5.02396569945642
76 1     9.65645113995054     1.86147451224769     7.52859645709209
77 1     3.22651104279411     11.1496121782423     10.0248790849538
78 1     9.65645141415069     1.86147435387877      12.521162364253
79 1     8.04515386786764      2.7917573310711     15.0323552362472
80 1     8.04226055233326     4.64320065615389     2.50170083965936
81 1     8.04515346578617      2.7917575632833      5.0174032182313
82 1     8.04839403274802     4.64674182977907     7.52500669655984
83 1     8.05052109965612     2.78865854934159     10.0248795887575
84 1      8.0483942667746     4.64674196484217     12.5247523797542
85 1     6.44031043271558     5.57142839289338     15.0323552313864
86 1      6.4403109122551     7.41740915594496     2.50170109981274
87 1     6.44031043273163     5.57142792865064     5.01740322309476
88 1     6.44031094257071     7.43199414803684     7.52859646425854
89 1     6.44031042211977     5.57762595652991     10.0248795887601
90 1     6.44031094256675     7.43199446460974     12.5211623570908
91 1     4.82133441022099     8.35968847852891     15.0257924442295
92 1     4.62357594396485     10.1060503717788     2.50170224297515
93 1      4.8213340674408     8.35968760873397     5.02396571480372
94 1     4.84820314178107     10.2357390361601     7.50413577655258
95 1     4.82879402087918     8.37437594725001     10.0248790849567
96 1     4.84820312476181     10.2357390262825     12.5456228848871
97 2     6.44031123150034     11.1549430789463     2.50170372896011
