15
Lattice="20.0 0.0 0.0 0.0 20.0 0.0 0.0 0.0 20.0" Properties=species:S:1:pos:R:3 energy=-358.47461570218485 ekin=0.014364039337764957 mol_id=9433 geo_id=0 tstep=5000.0 pbc="T T T"
C       -0.53822035       1.26834733       0.42299117
C       -0.45679386      -0.18696569       0.01120936
C        0.35140550      -0.48982722      -1.28498011
N        1.60124352      -1.12646469      -0.76864639
C        1.32846658      -1.43702186       0.52130496
N        0.24652749      -1.00706285       1.00884666
C       -1.80052504      -0.71799961      -0.21798467
N       -2.93028990      -0.93846868      -0.44933769
H        0.49514426       1.68358604       0.64613311
H       -1.04207371       1.86661625      -0.36335669
H       -1.16995823       1.33307647       1.31136544
H       -0.20893269      -1.18356103      -1.93663556
H        0.56454974       0.45364873      -1.82892684
H        2.19612364      -1.67793408      -1.38755139
H        1.99181772      -1.99972829       1.11791087
