108
 Atoms. Timestep: 0
1    1.9498426099999999    1.6123894800000000    2.2463115000000000
1    3.2310994800000001    7.2917578000000001   10.6101818899999998
1    5.0867491899999999    5.3743590899999996    2.2430686899999999
1    8.9265713699999996    5.1206595400000001    7.8247845199999997
1    0.2592721000000000    7.0133755899999999    5.3305418199999997
1   10.7365987599999997   10.8800927800000000   10.6153213300000004
1    7.1881782400000001    3.5480399000000000    5.1419050200000003
1    7.2680072800000000    7.1069656900000000    5.4505338700000001
1    1.6494264599999999    5.2833683000000002    2.6433772400000000
1   10.7283949100000005    3.2646578100000001    5.3122076399999996
1   10.8235741700000005    3.6351975099999998    0.1936622900000000
1    1.9354248400000000    5.1519876800000004    7.7933675300000003
1    8.9461627799999999    9.0473408899999992    8.0078490599999999
1    1.7098071600000000    1.6894044600000000    7.9303547200000004
1    7.3893707199999996    7.2870110099999996   10.4758578999999994
1    8.7307771299999999    9.0393448700000008    2.9513383800000002
1    5.0789946400000003    8.9861253300000001    2.4193840299999998
1    5.4426058800000003    9.3071524599999993    7.9839223300000004
1   10.9507573300000001   10.7516530699999997    5.3004673799999997
1    3.5276752199999999    3.4735595899999998    5.1816768299999998
1   10.9538038699999998    7.2940740100000001   10.3258917399999994
1    1.6456279000000000    9.0987234299999997    7.9318484199999997
1    7.2406413799999996    3.7825271200000001    0.0748470800000000
1    8.9499556299999998    5.4080370699999998    2.6872656600000000
1    3.8236803699999999    6.9904107199999999    4.8131646100000003
1    3.7737331799999998    0.0466739800000000    0.0220746300000000
1    7.1999626299999999    0.0728454600000000    5.2426781499999997
1    5.6696258100000003    1.6242438699999999    2.6256736900000002
1    5.3494679300000003    1.7250430200000000    7.5813982700000002
1    1.4256022800000001    8.9866387299999992    2.5796010100000002
1    3.3299887699999999   10.9341262399999994    5.2506655200000001
1    3.7357748000000002    3.6106027200000002   10.2165931000000008
1    7.1817182600000002   10.9535638199999994   10.5472857399999995
1    9.0363334999999996    1.7914524800000000    2.5222215200000000
1    5.4428051599999998    5.4758693899999997    7.8838400899999996
1    9.0497654500000007    1.7001676400000001    7.7713846300000000
2   10.5057749000000005    9.5845480799999994    1.6476423200000001
2    5.0698647899999996    7.1086391100000004    3.3652439699999999
2   10.8249983400000005    5.5721666000000001    4.0577155600000001
2   10.5201266100000002    1.7316611000000000    4.2294791399999996
2    1.7629813400000001   10.8695582599999998    3.8848047999999999
2    1.7024185500000000    0.0846790300000000    1.1687234900000001
2    2.1226030599999999    3.9810609000000001    0.6740873500000000
2    0.4495063800000000    1.9355864400000000    9.7257516200000005
2    1.7441040500000000   10.8285213500000008    8.9739178099999997
2    1.7574875700000001   10.4756398799999992    6.2722654799999997
2   10.9542293999999991    1.8100072300000001    6.7498245399999997
2    1.8843236500000000    3.3871044800000001    3.3237903400000000
2    1.4719650000000000    7.5332583900000003    0.9597057000000000
2    1.8063053099999999    7.1928590899999998    8.9430213199999997
2   10.7286291499999997    2.2867134199999999    1.6239633499999999
2    3.7478391100000001    5.1082562500000002    6.4553532999999996
2    3.5104206200000001    1.6528777100000001    6.7340960599999997
2    5.3909712299999999    3.5057395499999999    8.6978579099999997
2   10.8328709900000000    5.2844045199999998    1.4801322500000000
2    2.3622152700000001    7.5195828899999997    5.9504287099999997
2   10.8529835800000001    8.6150234799999996    6.8946615600000003
2    3.8762220599999999    1.6630748900000001    4.1044106700000000
2    5.8673867599999996   10.6716270499999997    3.3763120500000001
2    5.5116577099999997   10.6540145099999997    0.7522161400000000
2    3.9002888900000001    1.6740566400000001    1.6405635100000000
2    3.6148129999999998    1.6211643600000001    9.5406527899999993
2    5.7888704700000000    0.0107577000000000    8.8401978700000008
2   10.8968633500000003    9.1563911000000004    9.6441568300000000
2    3.4844188500000000    5.0834485799999998    3.7930377300000000
2    5.5925345699999998    3.3697822799999999    3.3712241600000001
2    5.3253816100000000    4.1550901700000002    0.5425526300000000
2    8.9840330700000006    7.0992439000000003    6.2406166699999996
2    3.5141731500000000    5.4887050000000004    9.1911944400000003
2    5.3005107200000001    3.7454195800000001    6.0235617599999998
2   10.9428808499999999    5.4587485600000001    9.1918897899999994
2    9.1598810299999993    0.0837115100000000    6.4382472000000002
2    1.7347139899999999    3.5966836700000000    6.2946254899999996
2    6.6201868800000003    1.9379128400000001    0.9569061200000000
2    9.0192770899999992    0.7570895100000000    0.8552598300000001
2    7.3258765400000003    8.7171040400000006    4.3839670799999997
2    7.5008020100000001    1.9078092600000001    3.9086825300000001
2    3.5114363499999999    9.5687969699999993    7.2567654399999997
2    8.9451281999999992    7.2605082200000002    9.0573037999999997
2    7.3484578400000000    1.7218183400000000    9.3133880799999993
2    7.7142563300000004    9.0940986899999992    9.6450297799999998
2    5.8448564000000003    7.2782907999999997    8.6964975100000004
2    9.0571913199999994    7.2096918800000003    3.6427283600000000
2    5.1491348400000003    7.4112087700000000    6.1715991800000003
2    7.3006592200000000    8.9426611299999994    1.4384127900000001
2    9.0891076799999997    7.3007725099999998    0.6677890300000000
2    7.6362253999999998    5.2474180500000003    9.4663071900000002
2    4.0345408599999999    8.9785132099999991    9.6397276099999996
2    9.3238728500000008   10.8999822999999996    9.0311523099999995
2    7.2296911899999996    5.1815925399999996    6.8325191099999998
2    5.4810941900000003    0.4163562700000000    5.9070828000000004
2    0.4158410100000000    5.6138053200000000    6.4924396900000003
2   10.8613636099999997    9.2070802399999998    4.0367162700000003
2    1.5810151100000001    7.3236430500000003    3.4513526899999998
2    3.9574907100000001    9.0638144399999998    4.2112619899999997
2    3.2360449099999999    5.9970761100000001    1.5488692500000001
2    5.2545450400000000    7.1741711099999996    0.8439352700000000
2    9.1459865199999992   10.8676504900000008    3.5999253800000002
2    9.1962395000000008    3.3834953600000000    9.0509243799999997
2    7.1961840099999996    5.9043847300000003    1.6130177100000000
2    8.7533348699999998    3.6848508700000000    1.3186781700000001
2    9.0494758799999993    3.5659999700000000    3.5588294199999999
2    7.1367621699999999    5.2613336000000004    4.5414043599999996
2    3.2418811700000001    9.3051311900000009    1.6329740900000000
2    9.1155543699999999    3.4867889600000002    6.2457008399999996
2    7.2934387799999998    1.7093592799999999    6.7606757899999996
2    2.1277929200000001    3.5278868900000000    8.7864617900000006
2    6.9259656700000001    9.2839186199999997    6.8249149100000004
108
 Atoms. Timestep: 50
1    1.8755919579939861    1.6602614310781731    2.3970139239841046
1    3.4948323677304307    7.2453385868113767   10.5291178727280919
1    5.0482921272966754    5.2604865400787624    2.3199709833924378
1    9.0862154212385793    5.3628077832224488    7.9453351968344554
1    0.1031302406311410    7.0704320363653146    5.4247285391210891
1   10.7190023816220190   10.9047398741621109    0.0513561311717376
1    7.2605451154995162    3.3842817035927415    5.0122251751483811
1    7.3521190243657788    7.1123106468526638    5.5005461598527710
1    1.6600609312198216    5.2558851612095765    2.7387889479546241
1   10.4990293682193094    3.4906054778304401    5.0596068574312500
1   10.8946485274200526    3.4534575325669916    0.1264885152229278
1    1.7995138323839721    5.2649948808770963    7.5398442964129524
1    9.0429801099843701    9.0483012788036312    8.2338059706034450
1    1.9280480473830623    1.8035596401419423    7.9851264295074103
1    7.1790564828738574    7.2474919143981813   10.5319111976343276
1    8.7146925553295258    8.8703956015680951    2.9358796205812943
1    5.2965069603108592    9.0059210224002406    2.5559635294974870
1    5.4690842027388484    9.1230052499743550    7.7602658261204258
1    0.0882723043581830   10.7171614657187746    5.0647531859396846
1    3.5866127430417332    3.5822405194586220    5.3015140785797072
1   10.6894407584993427    7.0137942838551357   10.2362565000906294
1    1.7703998238578051    9.0984854368680264    7.9252609163605516
1    7.3390632013911556    3.6466068756204200    0.0069660746740767
1    8.9795301240171757    5.4871733247324750    2.2544048312130718
1    3.7986718353972053    7.2585974591247346    4.8005961458320323
1    3.6937161311427866    0.0304317184100485   10.5767367461927311
1    7.2842629769474527   10.8116393565754549    5.1578917929571482
1    5.3986741839518713    1.5135921564646895    2.7527553989699305
1    5.4312173084696846    1.8870176838454975    7.8617551820993130
1    1.4670782556771151    9.1329635851950233    2.4200760869917564
1    3.5299434270316561   10.8000714846890880    5.1717930990207446
1    3.6346654650076111    3.7665497745900849   10.0514101451311948
1    7.2187087561572829   10.9288397305472511    0.1084319303205807
1    9.0604354357306800    1.8122122920487314    2.5246883058424094
1    5.3671858881508090    5.5630977870234455    7.8696879825268118
1    9.0956490551072768    1.7540948754946912    7.8719507874040593
2   10.4287056936080376    9.6831956115053082    1.8688088686755078
2    5.1503702512379297    7.2312519719183985    3.4382329714104087
2    0.2306341704621279    4.9820017158564633    4.2128569758264556
2   10.5761561265837578    1.5297868468797222    4.3891899776601546
2    1.7155771427573929   10.8427120400190233    3.6350455005472266
2    1.7204387300297608   10.8031033946581871    0.7283008132233785
2    1.8365294570477915    3.4889985531066001    0.9570804933972310
2    0.3193887439911287    1.7601577098440857    9.8696637816344541
2    1.8094366262458068   10.8718991328944234    8.9867503329252276
2    1.8260220916320784   11.0237727717890888    6.1432177947941620
2    0.0272746471765871    2.2933990505687172    7.3498728692694204
2    2.0337520786594592    3.3576158193607264    3.7053174044098962
2    1.3576393057464013    7.8355587156855027    0.6870188672293041
2    1.6486263288184348    7.0492467429975845    8.8707519575856786
2   10.7491645409444398    1.7166094742120908    1.7072900389546384
2    3.8906671741265715    5.3285135775689110    6.7520214589287635
2    3.6450749366701185    1.7506278131492261    6.7718247228781907
2    5.1612233102701000    3.7302361829118196    8.5195232476032619
2   11.0775892429603910    5.3388336073837444    1.5419955573086743
2    1.9532287862023150    7.0247093905309450    6.2844244780555325
2   10.7991737627017308    9.0964285083838945    7.0722294841220901
2    3.6916528994882043    1.5475303114407895    4.0368526828802738
2    5.5959681620416992   10.7349637552644221    3.8161892792310024
2    5.5256126559531733   11.0394305961267865    1.1888028726422266
2    3.5900021325565010    1.8754990921549084    1.3604516084822047
2    3.6145683442883860    1.8353988087083741    9.2839821341968936
2    5.4971738137671888    0.2132841965181360    9.4218806503211567
2   10.3703910769151442    9.0749283082181353    9.7740168135674779
2    3.4901151908690968    5.3491493843433116    4.2763584463065829
2    5.3352169288053108    3.4664771352363477    3.4884805339883118
2    5.1874702962084500    3.9449351432743693    0.7718962516919432
2    9.2025795935980597    6.8718914429319256    6.3525437690299551
2    3.7598606268895480    5.6802228947968638    9.2891132176229672
2    5.3193617561880373    3.1692943503977600    5.9619538807293466
2   10.8337418142057249    5.1959513319649648    9.5391809512257915
2    9.3803101584969237    0.1895108315390212    6.0395262125772096
2    1.7316655389807718    3.6377637249837314    6.2425063819486635
2    7.1998566816719931    2.0044903265561795    1.6524036920967953
2    8.9723944816200270    0.5124139665130061    1.0807462393079070
2    7.1371332266556911    8.7876886642836762    4.3999815441267280
2    7.0842288926206507    1.8032176550227732    3.9066200030706715
2    3.5052507783585787    8.8750375420117411    7.1511687025464497
2    9.0330151911591763    7.1964791536339998    9.0053587382471516
2    7.1422777611887236    2.4327161504254220    9.0097179519769597
2    7.0412374142033078    9.2850908872844773    9.4331300539385019
2    5.8333173583386619    7.4130595290541761    8.7648945723960665
2    8.8320073261197916    7.0019525285461146    3.6180810544232704
2    5.5113723950828204    7.4220119702723606    6.2383583098735587
2    7.2284795383507987    9.3227427059205557    1.5419791518370378
2    8.8115923717542533    7.2082199999292795    0.9649543412546936
2    7.1901518368453115    5.2317344580507248    9.5370823448031530
2    3.8104900597631701    9.0771760696614141    9.7741166402174056
2    9.0254832072487918    0.0392331571476991    9.0852923834134707
2    7.0562448903736108    5.7544107577854247    6.9444497142753692
2    5.3467928843916992   10.5363422772179689    6.4584220404757904
2   10.6327301226514503    4.8752688576318022    6.8944900368664124
2   10.6870988017260018    8.7607765556454105    4.5783902026164585
2    2.0300128207789556    7.3123712416432705    3.5509954740421672
2    3.5223256255735844    9.1263965440899213    4.2321438658464121
2    3.1122742782179493    5.5871202423805935    1.3089777626039336
2    5.4816440636427215    7.5808510188696268    0.7748303905975997
2    8.6772221573684476   10.7713812459048626    3.2911456757933428
2    9.4456409952785414    3.3976288166554869    8.9043128425288369
2    7.2419852754558791    5.2407833736530831    1.3204462354059896
2    9.1451951978111623    3.4377769984031086    1.2365329174560304
2    8.7051012254126903    3.9433586458523506    3.7855375729100995
2    6.9036804626328863    5.7297750178972651    4.2182712257641093
2    3.3652902583161399    9.3947069570510156    1.8909145262285090
2    8.5890766814118962    3.6078267123809562    6.3625426533339873
2    7.4260926469728341    1.5815159999015855    6.6500808133108595
2    1.8083150673203292    3.9341136974505022    9.0519391664863829
2    7.5789037225512619    9.4014751365327296    6.7966919489432556
108
 Atoms. Timestep: 100
1    1.9181208064483413    1.7921176584894678    2.5341864441038280
1    3.5755290940203697    7.3957858066939997   10.5400042011926836
1    5.2168703778120102    5.1637831238309877    2.5212562912233500
1    9.1519898302149283    5.3621811148293412    8.0556045392079021
1   10.7270101408654810    7.2009109550015031    5.3570491059989394
1   10.7688772354336599   10.8990076092223180    0.1596954773595897
1    7.0761082615766666    3.4703137828442112    5.0018848280624919
1    7.4985872484754568    6.9651486749636318    5.3426282703346439
1    1.7751034721312824    5.2549561456646501    2.7568235261909306
1   10.5777437990871555    3.6939210873171633    5.1948612722925835
1    0.1107434571216340    3.3546847797547796   10.5139290953616111
1    1.6978590323537412    5.5260181632705700    7.4655332304169582
1    9.1826692947216575    9.2697087847787571    8.3024270046744135
1    1.8852945013142093    1.8458289011380413    7.9486553036730312
1    6.8961881411485457    7.1907892751613582   10.4865317621553942
1    8.9759749639065056    8.7590921429011726    2.7156271720583267
1    5.5207956067852617    9.1303453839497202    2.6110314507752039
1    5.4727617363506775    8.9442117349902208    7.6424255718166156
1   -0.0025901828842678   10.7649157512826168    5.0099416268821289
1    3.6081817934245235    3.5311033142437593    5.2231488776622772
1   10.7184806248645543    6.9645174896939936   10.4504308919612310
1    1.8775431198345085    9.0223891945941990    7.9328963104875276
1    7.3188949518497033    3.4526100259367118   10.5559829094082449
1    9.0102983505867389    5.5180567490986254    2.1043889007841421
1    3.5807913023452289    7.3868286685126288    5.1043139150211951
1    3.5546959906312781   10.8824358577597700   10.4565140202154065
1    7.4554693482402179   10.6103846807409514    5.2698231443218946
1    5.0570115061415386    1.5031236718350700    2.7506377260385046
1    5.5551529967860400    1.8746574436325849    8.0166122467653516
1    1.6079160413157183    9.1197454308796875    2.1912943443786190
1    3.7748778409311030   10.8543770421081582    5.2847381380843892
1    3.4473965590886331    3.8595815358082168   10.2359386599048197
1    7.1026072227194899   10.8940602155867587    0.1743045899769058
1    8.9471023699632273    1.6626811418511345    2.6463533924397478
1    5.3864701298567006    5.6998004327761311    7.8030881172895752
1    9.0463151178244736    1.8504788688616340    7.8529644505569767
2   10.5930813677521591    9.3947218657208449    1.5026612190323252
2    5.0743459626156495    7.3262005548887021    3.5939522299550668
2    0.2152408745440102    5.0855660311403872    4.1271113340040104
2   10.6555677667093018    1.6774159987911152    4.0640637405839168
2    1.2095871887041578   11.0574889859839622    3.3635835430324774
2    1.8978641065491741   10.8560164601026781    0.8398018761453531
2    1.7959283224481788    3.5613160327626940    1.0206841381648433
2    0.1759507035739079    1.6065797447851533    9.5638608602398598
2    1.9944179385064091   10.9306261537065392    8.9054775660935608
2    1.5393376167201565   -0.0924011252120898    6.2921439350582755
2   10.7444036117433139    1.9439511758798280    6.7002690317452105
2    1.7033007326913365    3.3280115605511895    3.9558866771374688
2    1.6271197409871085    7.6139963070322709    0.6071039892349948
2    1.2069834298512507    7.1478567326315465    8.6544010010562431
2   -0.2443283808308865    1.8839772651904312    1.4938638929844339
2    3.6296326164740784    5.5656360774621332    6.6141236629556683
2    3.8805245159808970    1.6998532552783336    6.8178726770272169
2    4.7900994339706449    3.7525200140891917    8.5827926804767376
2   11.0961905505040406    5.6358894397599419    1.1962719226960263
2    1.8337834670220536    7.2136665869891177    6.1220927209581966
2   10.7756862431115721    9.0025484061471062    7.0538314419293684
2    3.4366205447260354    1.6962215360385513    4.3008390129558469
2    5.4038731561025966   10.7973103144940659    3.7480298447737992
2    5.4599753562143363   10.7596544804576375    1.1204978287716945
2    3.5723524528927149    1.6357822829223596    1.5718214284239802
2    3.2890741864931039    1.8067107951319796    9.8223726362925969
2    5.2314124376468012   -0.2556622385675762    8.7383212229047729
2   10.7019033803456782    9.1776676588495842    9.6082840215834686
2    3.5470969644500610    5.2604588229549361    3.9757623808371703
2    5.1972759143944183    3.2805457478370390    3.5227793194310326
2    5.2969435725732756    3.8223140831936848    0.4357270137110090
2    9.1460648540382774    7.1771413750577837    6.4869729695146710
2    3.7452103514714912    5.7656523576185847    9.2028140280873014
2    5.5163618991535524    3.5035388777055898    6.5062695444489407
2   10.6715136461671438    4.9799558669357333    9.5304070685278450
2    9.0845897695333999   -0.1181310943850561    6.2668622181393845
2    1.6141772316514085    3.0202608513708240    6.0762634883145425
2    7.0681755013875707    1.7555368381480074    1.5865284597985903
2    8.9240829763507747    0.4577685228077705    0.9077498780175982
2    7.0936328029395073    8.6740116716752809    4.2495868823719034
2    7.2188089943381692    1.6993380744109832    4.1154853225484915
2    3.5298309139389796    9.0499607625872436    6.5752186980181770
2    9.2220018869552476    7.0581845956471136    8.8097053297718997
2    6.9834676410149408    1.5021318595794273    9.8304320332806459
2    7.7529405578070030    9.2446522744469917    9.8892392490847509
2    5.4850576592776799    7.6946620549199789    9.0830520301642590
2    8.9974540077361631    6.8298880116022227    3.7385408413598209
2    5.5760678504737937    7.1096053241210484    6.1934764913757787
2    7.2925495284112083    9.1666501688023683    1.6033437092556051
2    9.1435120957341116    7.5390501223286694    1.0643374049149910
2    7.0315041405513918    5.4159455430607082    9.7320865186798962
2    3.6490509392719526    9.0193337615746678    9.2151786792200738
2    9.1484119321798882    0.0792807407387750    8.6364367889563827
2    7.0760197615698281    5.5977916330262447    7.0395814418083100
2    5.4611296637373314   10.5302005503393126    6.3209669447729295
2   10.7872746144647458    5.3380148647108125    6.7716869435668468
2   10.6876787753513884    8.8086982990120894    4.2345358668054738
2    1.7362272726536412    7.2735732653076344    3.1410945059904156
2    3.3607442364639053    9.3435620748385464    4.0321395789509431
2    3.4833542840403418    5.5258022382242276    1.2340013318410199
2    5.3807213864575480    7.1406632543704793    0.7448422581954494
2    8.9005433604101984   10.6215496041534418    3.6818944587725722
2    8.5715144483021763    3.4744984600189204    8.7013027247359620
2    7.1540635430998334    5.5486811867815371    1.8795927722460655
2    9.1916226287150398    3.7281219731261928    0.6801565812727793
2    9.2140296977113270    3.8712771573438878    3.4385240797697456
2    6.7145187202369421    5.4722766299401240    4.4922374563766052
2    3.6575134258280135    8.9849049537456427    1.0373868394194585
2    8.6011443930603999    3.5576038177144258    6.2768119389644923
2    7.3093305198329883    1.4211160246395151    7.1683341646534560
2    1.7234230785921372    3.7493656218664198    8.5962381964196979
2    7.5280280180937567    8.5546608577367316    7.1508965035574521
108
 Atoms. Timestep: 150
1    1.6804895064156686    1.7875184841229290    2.6246717192059559
1    3.5589294073185145    7.4135731646539913   10.6393655430436453
1    5.3348873946281330    5.3233753387307976    2.6208467433666112
1    9.0573464868770195    5.3506920204298902    7.9961948552516846
1   10.5985236466189132    7.4100820312596944    5.1704860889143731
1   10.7261020299572838   10.9270153949756583    0.1211604641578492
1    6.9937106888015679    3.5763558062955023    5.0632405897282800
1    7.3683749114092905    6.8599786505275064    5.2139904677346109
1    1.8465964132615389    5.4549406685936921    2.6626723816390845
1   10.8146951178950772    3.6345613605665670    5.2891765015570771
1    0.2521256301338023    3.4025226849870123   10.3876466161973440
1    1.7820221259649860    5.6438664327058214    7.6088465736837492
1    9.3051152871432965    9.2476924438040005    8.2153114792994444
1    1.7711568405432798    1.7827030276581926    7.7709810059307012
1    7.0077685405984393    7.1787931506602156   10.5376578650003019
1    9.3381497655101171    8.7237055142320958    2.5411115815791048
1    5.4741833289798318    9.0123391878627590    2.7114000972554186
1    5.4199177103724656    8.9911265089626511    7.5218184017260699
1   10.8358216390620736   10.8672828004066471    5.1039304465749114
1    3.5469425009541684    3.4448150725996580    5.1388910265044725
1   10.9274578433987735    7.1749848096529902   10.5388880422818509
1    1.7401643008527450    9.0438092061747160    7.7797481180762516
1    7.0819901853857079    3.4348086821597072   10.5869951561412297
1    9.1517356504582672    5.3196946020070950    2.2526477737812893
1    3.4303288159752419    7.3384595578431622    5.2078413767349581
1    3.4324372732938890   10.7496738873774511   10.2228730947756876
1    7.6109587072292220   10.6008390065567024    5.3744914018543382
1    5.1069162582272920    1.5156342082206036    2.5690657656810290
1    5.4513716170724225    1.7647125410663476    8.0444774349520110
1    1.9291513450468183    9.0325518082482681    2.1803369805917070
1    3.8113135193465180   10.8479775517817636    5.4820717612477505
1    3.4987500318330316    4.0170413687383215   10.5378150399708570
1    7.0697033501774227   10.7868509765459759    0.1674936511093243
1    8.8619380973254938    1.4893736666469546    2.7822926159285943
1    5.3107501809021906    5.5209608833925872    7.7711354497005418
1    8.9919682562966639    1.8951135641781134    7.6485146942956348
2   10.8846382645309934    8.8953677960258730    1.2588931721508985
2    4.7089511327543558    7.4494334877934296    3.7075110627988157
2    0.0305592564072415    5.6929887655682592    4.2272573262864572
2   10.4119016477906072    1.9934509852115250    4.0271149927154388
2    0.9813299230530219   11.0797985366901877    3.1519999396330936
2    1.6741332503899622   10.6295917081306559    0.5383579021703893
2    1.9068699582320818    3.2602477691792426    0.7660040595738868
2    0.0221832910376052    1.9374472525689528    9.0822741668823461
2    2.1048898206523408   10.9134939383714258    8.4205868072142245
2    1.5395525764466265   10.8982532121102746    5.7655910896507558
2   11.0266071153146612    1.7852103307565990    6.5721057703847201
2    1.9169372448229451    3.7601378841160722    3.5692883017095447
2    1.6705128166230665    7.7428662148286707    0.7117746085630412
2    1.2273300609850530    7.1937005585991471    8.7585195880218940
2   10.8216603245153014    1.7658350254622381    1.5079503557590497
2    3.5718941920427127    5.5249325557583413    6.7645719826481212
2    3.7047100857225947    1.3217777361280927    6.8869878586877347
2    5.3988312869554411    3.8333847008750519    8.8954202361016605
2   -0.0022342468342913    5.5147118460688205    1.4179487083433280
2    1.6173119388798456    7.1393408802406526    5.7436509827840689
2    0.0271217728038654    8.8376838262617508    6.8311090377548931
2    3.3418834811591953    1.5798294761906937    4.2404314758753232
2    5.5960258583648459   10.7712538162713418    3.5213369572417896
2    5.4475620260664428   10.7834159240264764    0.9540452896020591
2    3.3873455389519309    1.3349539117428382    1.6093861260895994
2    3.3930726152863699    1.8988479737871005    9.3034627176985722
2    5.1606757034812203   10.9093413445574434    9.0172183081144173
2    0.0886302194675394    9.3711588894425777    9.5518756057220138
2    3.5134493951978811    5.3708986895893327    4.1734308336547432
2    5.1878570036110245    3.2452897925495590    3.4778960694992840
2    5.1531247625356551    3.6893276412559528    1.1675375778713297
2    9.0996209433998203    6.9822679245199009    6.5532548257627257
2    2.9925751613110805    5.7159665181195631    9.5748528386421157
2    5.2202441667005877    3.5381888478307748    6.4051261974828755
2   10.5656462320171034    5.2465436912030796    9.5987673652529697
2    9.3857803923649481   10.5090105326553918    6.3558080980836262
2    2.0530655471897914    3.6950661233083690    6.4557878905017443
2    7.0297162310108492    1.9152676254129286    1.5957800444933579
2    8.8564663276510842    0.0648391718784916    1.1500769287314194
2    7.4347277118853388    8.7803498103876993    4.7121713071020643
2    7.9012382670564048    1.6870566209691487    4.7097867029851512
2    3.3526562318687683    8.9441098881463503    6.5996134479635158
2    9.0477822232061698    7.4208145078181120    8.9138649435122819
2    6.7478446413499222    1.5680466881934585    9.8640241046537120
2    7.3728542869626175    9.0543206309778235    9.9814251359338719
2    5.4320733005757074    7.3294104506513893    8.9515876991192354
2    8.9047211011379392    7.0857969947518251    3.8240117712592059
2    5.4433248408200630    7.3438257110370406    6.4041069003263509
2    7.2995342217768959    8.9550454849196175    1.8139211909504260
2    9.0492772932743133    6.9793389306374527    0.7994138665584801
2    7.3030396908950737    5.4843906703076302    9.4978115051645631
2    3.5042408473583508    8.8364954349980884    9.2229469433682922
2    9.1112641553254967    0.1334311211034085    9.3256293532303687
2    6.8379508578685497    5.5385249574137312    6.8213495161572002
2    5.4677762417454723   10.3838558869599709    6.1730736078153159
2   11.0649588487138466    5.2558249354738251    6.8457224028661248
2   10.6041886153617835    9.0229201844171403    4.0797953798922704
2    2.0871120998165114    7.3639551569753925    3.1669211428069426
2    3.3777402455733103    9.6061141056786585    3.9160142054092990
2    3.5140336889055610    5.4716468846109949    1.4956629236197845
2    5.2641572878140552    7.4665450833973654    0.9889619622810789
2    9.0190719471114065   10.6259093999726879    3.5568124843135753
2    8.6588382724491133    3.3018955329903421    8.7627081961831106
2    7.0605511037790807    5.6972122505251610    1.6299835506515878
2    8.9587484347998174    3.7176898595559584    0.9158212056844305
2    8.5338454782953779    3.8039330859369582    3.6875104264354781
2    6.6227833983607267    5.4102199662301160    4.3441029469815229
2    3.7515346310704545    9.1297371693336729    1.1246708045696348
2    9.0496549552652237    3.6455290596903640    6.4148793784387346
2    7.1728259607631077    1.4750767833241534    6.8880727494301599
2    1.7512600830147749    3.7849733706859530    9.1032198512319464
2    7.4401697306898127    9.2849284655643824    7.4136458027841048
108
 Atoms. Timestep: 200
1    1.3934748597067674    1.7642628261453945    2.5720019099977685
1    3.7664791020116670    7.3509249990058985    0.0146202706253757
1    5.3350173722058214    5.4976447509275133    2.6188532466949410
1    8.9716308167605217    5.4101464073030607    7.9986835612436868
1   10.6476959208709125    7.3046611514747406    5.1803230566306144
1   10.5294371254200509   10.9689202218712598   -0.0420566435937792
1    7.1230014171359146    3.5159208744553609    5.1436731567829135