ITEM: TIMESTEP
0
ITEM: NUMBER OF ATOMS
108
ITEM: BOX BOUNDS pp pp pp
0.0000000000000000e+00 1.0956000000000000e+01
0.0000000000000000e+00 1.0956000000000000e+01
0.0000000000000000e+00 1.0629000000000000e+01
ITEM: ATOMS id type x y z fx fy fz
   1 1    1.9498426099999999    1.6123894800000000    2.2463115000000000    0.2628846757785639    2.3388213753790348    4.0230021187827329
   2 1    3.2310994800000001    7.2917578000000001   10.6101818899999998    2.3689865064409008    0.2616244923849584   -1.3623857058310460
   3 1    5.0867491899999999    5.3743590899999996    2.2430686899999999    0.8922486989107113    1.1139319641272416    0.1988027373519114
   4 1    8.9265713699999996    5.1206595400000001    7.8247845199999997    2.3100654959732010    1.5536100289223194    2.7977024859750546
   5 1    0.2592721000000000    7.0133755899999999    5.3305418199999997   -0.1469146507992394    5.0565074020083927   -1.9806875045187713
   6 1   10.7365987599999997   10.8800927800000000   10.6153213300000004    0.5796876950408478    1.6473822214785252    0.7088123705742845
   7 1    7.1881782400000001    3.5480399000000000    5.1419050200000003   -0.9463800687983734   -2.2875614718731292    0.2330520579631181
   8 1    7.2680072800000000    7.1069656900000000    5.4505338700000001   -1.5967375983730385   -0.2383993399526078   -0.6120448395813192
   9 1    1.6494264599999999    5.2833683000000002    2.6433772400000000   -0.8223652322812425   -0.1666378080437920   -0.8037404208524702
  10 1   10.7283949100000005    3.2646578100000001    5.3122076399999996    3.6539265591356043    2.5085875392552883   -3.0875851629028528
  11 1   10.8235741700000005    3.6351975099999998    0.1936622900000000    0.0577283047614547    0.4079173826578242   -2.5827512927966980
  12 1    1.9354248400000000    5.1519876800000004    7.7933675300000003    0.2547020156744371    1.9760210257216935   -0.8546575151848990
  13 1    8.9461627799999999    9.0473408899999992    8.0078490599999999    0.4932084358605881   -0.5046225820952700    0.2611021014974203
  14 1    1.7098071600000000    1.6894044600000000    7.9303547200000004    0.5037638430130940    0.5629559637197772    2.4586510055827557
  15 1    7.3893707199999996    7.2870110099999996   10.4758578999999994   -2.2515377464603517   -0.4606987780226647    1.1212964221213526
  16 1    8.7307771299999999    9.0393448700000008    2.9513383800000002    1.3012344433140446   -0.7233747508978269   -2.8081026215558165
  17 1    5.0789946400000003    8.9861253300000001    2.4193840299999998    1.7277067474735821    0.0475188929217154    0.6210584274548767
  18 1    5.4426058800000003    9.3071524599999993    7.9839223300000004   -4.8367450337438900   -4.5726864156486950    0.5526358990273252
  19 1   10.9507573300000001   10.7516530699999997    5.3004673799999997   -1.4086682570711959    0.6604687283144990   -2.7896320224178250
  20 1    3.5276752199999999    3.4735595899999998    5.1816768299999998   -0.8413706225104898   -0.3793476040494855   -1.2066443204820356
  21 1   10.9538038699999998    7.2940740100000001   10.3258917399999994   -3.7070763864299465   -2.6855782802586581   -0.7327279723559957
  22 1    1.6456279000000000    9.0987234299999997    7.9318484199999997    2.0234580814441681   -0.6223340401083581   -0.6911171148927764
  23 1    7.2406413799999996    3.7825271200000001    0.0748470800000000    0.6527319451833604   -3.0786431984730909   -1.6446376599770047
  24 1    8.9499556299999998    5.4080370699999998    2.6872656600000000    1.1782169283144353    0.8137865466406640   -0.7669105813165625
  25 1    3.8236803699999999    6.9904107199999999    4.8131646100000003   -1.9707534725920297    0.0658074458806076    2.7028622621336544
  26 1    3.7737331799999998    0.0466739800000000    0.0220746300000000   -2.9687177474224336   -2.3088330648165756   -0.4416544572094916
  27 1    7.1999626299999999    0.0728454600000000    5.2426781499999997    2.2782802246880913   -1.8408100527081137   -1.7792570298546666
  28 1    5.6696258100000003    1.6242438699999999    2.6256736900000002   -1.5858639305145448   -1.8214075588675522    1.2682856314722308
  29 1    5.3494679300000003    1.7250430200000000    7.5813982700000002    1.6918446845771822    0.6530419253742576    2.0282131156055057
  30 1    1.4256022800000001    8.9866387299999992    2.5796010100000002   -1.8635441395119154    3.3569622704918665   -0.7879680796701727
  31 1    3.3299887699999999   10.9341262399999994    5.2506655200000001    3.5415328443811784   -1.4918882032367000   -1.1665418778361440
  32 1    3.7357748000000002    3.6106027200000002   10.2165931000000008   -2.4035708304463035   -1.0791901470548322   -2.1802974241458184
  33 1    7.1817182600000002   10.9535638199999994   10.5472857399999995    3.5428598812200285    1.9476682208900464   -2.0614360057805081
  34 1    9.0363334999999996    1.7914524800000000    2.5222215200000000    0.9294006713875731   -0.3390186766593425    2.3516838870994832
  35 1    5.4428051599999998    5.4758693899999997    7.8838400899999996   -1.8530839886511949   -0.2094879178023572   -1.1463898688195167
  36 1    9.0497654500000007    1.7001676400000001    7.7713846300000000   -1.2888893289071139   -0.2230662735415468    3.1899731743083524
  37 2   10.5057749000000005    9.5845480799999994    1.6476423200000001    0.9801715114206169   -0.2509891308041275   -1.0316200847491319
  38 2    5.0698647899999996    7.1086391100000004    3.3652439699999999    2.9500705166386374   -0.1997826553196060   -2.4579500184513767
  39 2   10.8249983400000005    5.5721666000000001    4.0577155600000001    0.4630492931934246   -2.9408250217980578   -0.9285807546518723
  40 2   10.5201266100000002    1.7316611000000000    4.2294791399999996    1.1154538898290298   -1.9729742270350137   -0.0330230870428004
  41 2    1.7629813400000001   10.8695582599999998    3.8848047999999999    0.0294660628536754    1.3224532228585564   -1.7419555905090454
  42 2    1.7024185500000000    0.0846790300000000    1.1687234900000001   -0.6647662060965591   -1.0969856558686477   -2.9318519143778774
  43 2    2.1226030599999999    3.9810609000000001    0.6740873500000000   -1.9417398777037758   -1.0723942251392111    1.5526768293852902
  44 2    0.4495063800000000    1.9355864400000000    9.7257516200000005   -0.4461186171497228   -0.8936744090307481   -0.2465063054571959
  45 2    1.7441040500000000   10.8285213500000008    8.9739178099999997   -0.2397566172909204    0.3666822726272131   -0.3336828349972584
  46 2    1.7574875700000001   10.4756398799999992    6.2722654799999997   -4.1024262446911193    1.4522774788281576    1.1208308095605282
  47 2   10.9542293999999991    1.8100072300000001    6.7498245399999997    0.7693826197387503   -1.1337930391563420    1.6517281771052539
  48 2    1.8843236500000000    3.3871044800000001    3.3237903400000000   -1.1768506078417116   -0.0700150997263140    0.9615225227842743
  49 2    1.4719650000000000    7.5332583900000003    0.9597057000000000   -0.4823589307126956    0.9363070782223775   -0.2106635194069840
  50 2    1.8063053099999999    7.1928590899999998    8.9430213199999997   -0.2800441213708432    1.6002247240265064    0.0742354120875604
  51 2   10.7286291499999997    2.2867134199999999    1.6239633499999999    4.2061042379519886   -0.4174338309948921    0.3761170624188852
  52 2    3.7478391100000001    5.1082562500000002    6.4553532999999996   -1.7916371300116309    2.7942556345294696    2.1939761577021684
  53 2    3.5104206200000001    1.6528777100000001    6.7340960599999997   -1.4729632002022113    0.0724109859910700    0.5350847045307890
  54 2    5.3909712299999999    3.5057395499999999    8.6978579099999997   -0.4302960745700157    0.9249338236158308   -0.4248539465644212
  55 2   10.8328709900000000    5.2844045199999998    1.4801322500000000    0.0319814348515720    0.0395568344462294    0.1922678916822464
  56 2    2.3622152700000001    7.5195828899999997    5.9504287099999997   -3.9332242066715852    0.1727443144127901    1.4929929379053961
  57 2   10.8529835800000001    8.6150234799999996    6.8946615600000003   -0.0576008762344352    1.5842301706503534    0.5579473893817681
  58 2    3.8762220599999999    1.6630748900000001    4.1044106700000000   -1.0696914146066350   -0.5668669518341248    0.8728901371891059
  59 2    5.8673867599999996   10.6716270499999997    3.3763120500000001    0.7390104716919461    0.4551103420989442    0.2486573157067918
  60 2    5.5116577099999997   10.6540145099999997    0.7522161400000000   -1.6535785165549841   -1.2131164247721733    2.2418184766814653
  61 2    3.9002888900000001    1.6740566400000001    1.6405635100000000   -1.9192336919444029   -0.6481900600047299   -2.3903927443951907
  62 2    3.6148129999999998    1.6211643600000001    9.5406527899999993    0.6313947659512856    1.0186368304876436   -0.8653318272403582
  63 2    5.7888704700000000    0.0107577000000000    8.8401978700000008   -0.8442640476454746    1.8401455819063863    0.2259792535155993
  64 2   10.8968633500000003    9.1563911000000004    9.6441568300000000    0.3922158759085038   -1.5228874090305100   -1.4455192272416149
  65 2    3.4844188500000000    5.0834485799999998    3.7930377300000000    0.8287796045088529    0.8857238937543420    0.9170195016854578
  66 2    5.5925345699999998    3.3697822799999999    3.3712241600000001    0.0523905122103985    4.0327801449102569   -0.1300739281854090
  67 2    5.3253816100000000    4.1550901700000002    0.5425526300000000    0.5431294944045566    1.5254733226552974    2.2671854949116073
  68 2    8.9840330700000006    7.0992439000000003    6.2406166699999996    1.3172502901667817   -0.4337026414919333    1.7411362987119741
  69 2    3.5141731500000000    5.4887050000000004    9.1911944400000003    2.3669772587082036    0.6453928292089036    1.2270283041630987
  70 2    5.3005107200000001    3.7454195800000001    6.0235617599999998    3.1238535174752293   -3.3931498439194776   -0.0688406583997085
  71 2   10.9428808499999999    5.4587485600000001    9.1918897899999994   -0.1048056146714578   -0.5465325252493367    0.7164975305844136
  72 2    9.1598810299999993    0.0837115100000000    6.4382472000000002   -0.4049908625928126   -2.3279769912985824   -1.2134394090421270
  73 2    1.7347139899999999    3.5966836700000000    6.2946254899999996   -0.2948342188525132   -1.3410292627915523   -1.2695062268237787
  74 2    6.6201868800000003    1.9379128400000001    0.9569061200000000    1.1484567433027775   -0.1656447559251830    0.7828087568651518
  75 2    9.0192770899999992    0.7570895100000000    0.8552598300000001   -1.4783039787560028   -2.2003605140820914   -1.5842528653099781
  76 2    7.3258765400000003    8.7171040400000006    4.3839670799999997   -0.4895121240298517    2.8746742952434783   -0.4000652187617517
  77 2    7.5008020100000001    1.9078092600000001    3.9086825300000001   -2.0715922999669205   -2.6337977875213148    1.5836946456446177
  78 2    3.5114363499999999    9.5687969699999993    7.2567654399999997    2.7738499201317288    0.0420955560096530   -0.2537406239412610
  79 2    8.9451281999999992    7.2605082200000002    9.0573037999999997    1.5951596943583264   -0.3520059895308365   -4.3887030196053090
  80 2    7.3484578400000000    1.7218183400000000    9.3133880799999993    0.6250926458358474    0.3935669701419572   -0.2027984192781818
  81 2    7.7142563300000004    9.0940986899999992    9.6450297799999998   -1.6048274597259222    2.8376047071921926   -1.0340909585240587
  82 2    5.8448564000000003    7.2782907999999997    8.6964975100000004    0.5146436323701180   -0.4947934772034209    0.0462586550590261
  83 2    9.0571913199999994    7.2096918800000003    3.6427283600000000   -0.1298184708910023   -1.1267847605639740   -0.2762572527496790
  84 2    5.1491348400000003    7.4112087700000000    6.1715991800000003    2.7085874747902192   -1.4126793859653375    0.6582854959318104
  85 2    7.3006592200000000    8.9426611299999994    1.4384127900000001   -0.5897970473020383    0.7963869393854390    1.4954953978838561
  86 2    9.0891076799999997    7.3007725099999998    0.6677890300000000    3.9996169189271233   -0.7794187163533627    2.7125485345630711
  87 2    7.6362253999999998    5.2474180500000003    9.4663071900000002   -1.4545833124820837    1.1086341842622240   -0.6736011988527832
  88 2    4.0345408599999999    8.9785132099999991    9.6397276099999996   -1.2712320336872529    0.8149386889221590    1.7265977987951859
  89 2    9.3238728500000008   10.8999822999999996    9.0311523099999995    0.0349342896578287    0.5217827030793132   -1.3757876388001415
  90 2    7.2296911899999996    5.1815925399999996    6.8325191099999998   -0.8371858181140688    0.2693371494920741    1.6280174379091430
  91 2    5.4810941900000003    0.4163562700000000    5.9070828000000004   -2.4835603893880496   -0.5906876657536428    0.7509639220496933
  92 2    0.4158410100000000    5.6138053200000000    6.4924396900000003   -1.1540433530696916   -2.4682074929007278    3.1787092102144392
  93 2   10.8613636099999997    9.2070802399999998    4.0367162700000003   -0.0096681870794482   -1.3825487968476970    2.1647902422120993
  94 2    1.5810151100000001    7.3236430500000003    3.4513526899999998    1.1652576323021617   -3.2420757036021803    1.5566899145951170
  95 2    3.9574907100000001    9.0638144399999998    4.2112619899999997   -0.9667757498982059    1.2512498067190894    0.0115914241965164
  96 2    3.2360449099999999    5.9970761100000001    1.5488692500000001    1.1254793820746956   -0.6688042496063993    0.0384702594870370
  97 2    5.2545450400000000    7.1741711099999996    0.8439352700000000   -0.9009555564471733    0.6829704753638519   -0.3946250242549884
  98 2    9.1459865199999992   10.8676504900000008    3.5999253800000002   -2.2970086156975036    0.3832284264475465    0.7897210664918236
  99 2    9.1962395000000008    3.3834953600000000    9.0509243799999997    0.8473245490365813    1.0125925095888766   -0.8109064901501201
 100 2    7.1961840099999996    5.9043847300000003    1.6130177100000000   -0.3980344264262652   -2.3801956085427354    0.6758937100492185
 101 2    8.7533348699999998    3.6848508700000000    1.3186781700000001   -0.1154867784497235    0.0413399080273971   -2.1923413783096617
 102 2    9.0494758799999993    3.5659999700000000    3.5588294199999999    0.4475144757428379    2.8287006770447913    2.3374368185566001
 103 2    7.1367621699999999    5.2613336000000004    4.5414043599999996    0.5408090401204234    4.2379094825733681   -3.5686212681571270
 104 2    3.2418811700000001    9.3051311900000009    1.6329740900000000    2.0039515077277827   -0.5543827662102281   -0.5926532679900612
 105 2    9.1155543699999999    3.4867889600000002    6.2457008399999996   -2.5876103110340001    1.2475098123667641    2.5020917252056818
 106 2    7.2934387799999998    1.7093592799999999    6.7606757899999996   -0.4317964489035147    0.8088457615640441   -1.4214233251961332
 107 2    2.1277929200000001    3.5278868900000000    8.7864617900000006   -0.3050317034569228   -1.6445269407859406   -0.7112472850118576
 108 2    6.9259656700000001    9.2839186199999997    6.8249149100000004    5.0643962302795007    0.3774992159477854   -1.2327141299421887
ITEM: TIMESTEP
50
ITEM: NUMBER OF ATOMS
108
ITEM: BOX BOUNDS pp pp pp
0.0000000000000000e+00 1.0956000000000000e+01
0.0000000000000000e+00 1.0956000000000000e+01
0.0000000000000000e+00 1.0629000000000000e+01
ITEM: ATOMS id type x y z fx fy fz
   1 1    1.8755919579939861    1.6602614310781731    2.3970139239841046    1.1967408091613736    1.9241368355827031   -0.1242688488614220
   2 1    3.4948323677304307    7.2453385868113767   10.5291178727280919   -2.0195974103975027    1.1176787337192118   -0.2083750437080598
   3 1    5.0482921272966754    5.2604865400787624    2.3199709833924378    1.4837938398971180   -1.8570605879937869    2.3944580031408260
   4 1    9.0862154212385793    5.3628077832224488    7.9453351968344554   -2.0546177926750078   -2.5201198795784854   -0.3711260730569905
   5 1    0.1031302406311410    7.0704320363653146    5.4247285391210891   -0.7923312722645472   -0.5720302003403012   -0.0526952780647110
   6 1   10.7190023816220190   10.9047398741621109    0.0513561311717376   -0.2769724955010866    0.4062609565827953    1.0367216269044002
   7 1    7.2605451154995162    3.3842817035927415    5.0122251751483811   -4.7763565689129113    2.0369686549552384    0.8274622384151008
   8 1    7.3521190243657788    7.1123106468526638    5.5005461598527710    0.4230040180411645   -1.0281968219496704   -1.3565738900771027
   9 1    1.6600609312198216    5.2558851612095765    2.7387889479546241    2.3247016926753106   -1.0060341504271575    0.8810189543013157
  10 1   10.4990293682193094    3.4906054778304401    5.0596068574312500   -0.1227875780576646   -2.3879658529349923    5.4204502595880362
  11 1   10.8946485274200526    3.4534575325669916    0.1264885152229278    1.5310898643430106    0.5193503457220243   -1.5557451534154798
  12 1    1.7995138323839721    5.2649948808770963    7.5398442964129524    0.1208058337421558    0.1662526537835032    0.5783929323807016
  13 1    9.0429801099843701    9.0483012788036312    8.2338059706034450   -0.7638634598253276    2.7491329421975026   -2.5274503976362555
  14 1    1.9280480473830623    1.8035596401419423    7.9851264295074103   -2.3731396470671271    0.0199350369539811   -0.5965994223866704
  15 1    7.1790564828738574    7.2474919143981813   10.5319111976343276   -1.1766105489525875    0.1647543316184027   -3.3953735841141683
  16 1    8.7146925553295258    8.8703956015680951    2.9358796205812943    1.2339181860662276    0.3250389791221250   -2.4806436994176995
  17 1    5.2965069603108592    9.0059210224002406    2.5559635294974870   -0.0996347161617845    1.9088188148046743   -0.6699742056777306
  18 1    5.4690842027388484    9.1230052499743550    7.7602658261204258    0.6531641540197517   -1.4014527844044218    2.1655327586326423
  19 1    0.0882723043581830   10.7171614657187746    5.0647531859396846   -0.4543298528980313   -0.4295588584688423    2.2790178688138605
  20 1    3.5866127430417332    3.5822405194586220    5.3015140785797072   -1.5556828089560257   -1.0487952509028715   -1.7772297729330340
  21 1   10.6894407584993427    7.0137942838551357   10.2362565000906294    3.1467155827048154    0.9986275495438488    2.5825904191507463
  22 1    1.7703998238578051    9.0984854368680264    7.9252609163605516   -0.4936863123024265   -0.3516017297144739    0.9812607294385255
  23 1    7.3390632013911556    3.6466068756204200    0.0069660746740767   -0.4117177065270319   -2.4531659429111632    0.6124571420864882
  24 1    8.9795301240171757    5.4871733247324750    2.2544048312130718    0.0520929442028600    0.0052638030887338    2.0003753850741459
  25 1    3.7986718353972053    7.2585974591247346    4.8005961458320323   -1.5102301300398384   -0.7890251922556373    4.5441853331030861
  26 1    3.6937161311427866    0.0304317184100485   10.5767367461927311   -0.0887963424459650    0.1420277764164618    0.1468384911491150
  27 1    7.2842629769474527   10.8116393565754549    5.1578917929571482    1.3550644239541585    0.1173669880659907    1.9152228771672082
  28 1    5.3986741839518713    1.5135921564646895    2.7527553989699305   -0.4886310591450282    1.4395372993540181   -0.7722072834136047
  29 1    5.4312173084696846    1.8870176838454975    7.8617551820993130    1.3321188161877615   -1.0977770833954932   -0.7070281513080495
  30 1    1.4670782556771151    9.1329635851950233    2.4200760869917564   -0.1302404572778773   -1.3934662996767506   -1.1639160818651519
  31 1    3.5299434270316561   10.8000714846890880    5.1717930990207446    1.4743569993665910    2.1364910939905162    0.8071095918056566
  32 1    3.6346654650076111    3.7665497745900849   10.0514101451311948   -1.1314436313095757   -0.5802032775263819    2.4055225555365207
  33 1    7.2187087561572829   10.9288397305472511    0.1084319303205807   -0.0449289434730229   -0.5540284211160289   -0.4408662524777077
  34 1    9.0604354357306800    1.8122122920487314    2.5246883058424094   -3.5029589681799074   -1.1871420851200221    3.0942850745473982
  35 1    5.3671858881508090    5.5630977870234455    7.8696879825268118    2.1428074180743306    2.9242555371759549    0.9621169102100336
  36 1    9.0956490551072768    1.7540948754946912    7.8719507874040593   -0.4919100527515334    0.1386585863394811   -1.2812189100349130
  37 2   10.4287056936080376    9.6831956115053082    1.8688088686755078    1.7736482733328887   -1.3811986635997129    0.3045756387545947
  38 2    5.1503702512379297    7.2312519719183985    3.4382329714104087    0.0818706977972129   -0.4434234036199812   -2.7714820170578300
  39 2    0.2306341704621279    4.9820017158564633    4.2128569758264556   -0.3822435069983249    4.5966916121458752   -0.4692984363961541
  40 2   10.5761561265837578    1.5297868468797222    4.3891899776601546   -0.2352713843785814    3.5992667651153316   -2.0741520548141978
  41 2    1.7155771427573929   10.8427120400190233    3.6350455005472266   -0.8786990811488792    0.4538896298984033   -1.0820664439278764
  42 2    1.7204387300297608   10.8031033946581871    0.7283008132233785   -0.6416175701175648    0.8044293306528765    2.3016587428615805
  43 2    1.8365294570477915    3.4889985531066001    0.9570804933972310   -1.1558881079712457   -0.5120676349049418    0.4563278104142187
  44 2    0.3193887439911287    1.7601577098440857    9.8696637816344541    0.1970660882386815   -0.7940959441620317   -0.5718159930074551
  45 2    1.8094366262458068   10.8718991328944234    8.9867503329252276    0.3803896116633454   -0.6582928814973225   -2.1523724539915792
  46 2    1.8260220916320784   11.0237727717890888    6.1432177947941620   -1.5512068181279637   -0.6468092835916366    1.4128231291274143
  47 2    0.0272746471765871    2.2933990505687172    7.3498728692694204    0.1300640140904268   -2.0801916567367944   -1.3173828183578387
  48 2    2.0337520786594592    3.3576158193607264    3.7053174044098962   -0.9955859383938727   -0.6579551150976560   -2.2483928778723499
  49 2    1.3576393057464013    7.8355587156855027    0.6870188672293041    0.7489780318740158   -0.4023731656222296    0.6707388369869277
  50 2    1.6486263288184348    7.0492467429975845    8.8707519575856786   -0.8288855150945957    1.5831135550184847    0.0605773767434223
  51 2   10.7491645409444398    1.7166094742120908    1.7072900389546384    6.0176000683945183    0.5145499131126203   -0.1093290509911120
  52 2    3.8906671741265715    5.3285135775689110    6.7520214589287635   -3.6868570195586110   -1.1305053860107099   -1.9706961258841378
  53 2    3.6450749366701185    1.7506278131492261    6.7718247228781907   -1.2288763157516407   -0.4647080569548637    0.3883688963568213
  54 2    5.1612233102701000    3.7302361829118196    8.5195232476032619   -1.3818972303615986   -1.0052446579811058    1.4482166122710813
  55 2   11.0775892429603910    5.3388336073837444    1.5419955573086743   -3.3074397194174603    0.9531282146446542   -0.4516540675080774
  56 2    1.9532287862023150    7.0247093905309450    6.2844244780555325   -2.2179262777831679   -0.3415564539738377   -0.9218338638126786
  57 2   10.7991737627017308    9.0964285083838945    7.0722294841220901    1.1982034166042201   -0.7848073321619788    0.7565554551289244
  58 2    3.6916528994882043    1.5475303114407895    4.0368526828802738   -0.2161400305746624   -0.9149564254716791    0.2797710795580026
  59 2    5.5959681620416992   10.7349637552644221    3.8161892792310024   -0.2980723757106825   -0.6784665713675859   -0.1161805376532095
  60 2    5.5256126559531733   11.0394305961267865    1.1888028726422266   -1.8849395962852911   -0.6961086969568310    0.6563501170686199
  61 2    3.5900021325565010    1.8754990921549084    1.3604516084822047    0.5688755334022018   -2.1897626243019017    0.3803571578236767
  62 2    3.6145683442883860    1.8353988087083741    9.2839821341968936   -0.3158782149097114    0.3410533509591472    0.7526148428245049
  63 2    5.4971738137671888    0.2132841965181360    9.4218806503211567   -0.0212112199143191    1.0032918096673922   -2.3505023166141261
  64 2   10.3703910769151442    9.0749283082181353    9.7740168135674779    1.3615435223764258   -0.2148988907910328    0.4604065015561523
  65 2    3.4901151908690968    5.3491493843433116    4.2763584463065829    0.4446668105192400   -0.2753653721095113   -2.4626389390200507
  66 2    5.3352169288053108    3.4664771352363477    3.4884805339883118   -0.6733318907370713    2.4536604534362079   -1.6772148102706221
  67 2    5.1874702962084500    3.9449351432743693    0.7718962516919432    0.4262108754336895    0.2686500191844358   -0.7802787545440434
  68 2    9.2025795935980597    6.8718914429319256    6.3525437690299551    1.4884670864546341    0.5203777772519528    0.2170125986369995
  69 2    3.7598606268895480    5.6802228947968638    9.2891132176229672    0.2556704985312949    0.5052896886578455    1.0819917911273746
  70 2    5.3193617561880373    3.1692943503977600    5.9619538807293466    3.8685355089324767   -0.1304591706491022    1.3624973092208266
  71 2   10.8337418142057249    5.1959513319649648    9.5391809512257915   -1.8381584686254109    1.6610009339004015    0.0322719194494944
  72 2    9.3803101584969237    0.1895108315390212    6.0395262125772096   -1.0666345851387200   -0.1257740804777103    0.5577084075822625
  73 2    1.7316655389807718    3.6377637249837314    6.2425063819486635    1.0792619599093336    0.4598156804269088    0.4565773310564846
  74 2    7.1998566816719931    2.0044903265561795    1.6524036920967953   -2.0505696938812865    0.6192682099846674   -2.8274565078215357
  75 2    8.9723944816200270    0.5124139665130061    1.0807462393079070   -1.0266603906644822   -1.1376627923980838   -4.4527431631464536
  76 2    7.1371332266556911    8.7876886642836762    4.3999815441267280    0.4527077843709104    2.3511600829094554   -1.8262984741016433
  77 2    7.0842288926206507    1.8032176550227732    3.9066200030706715    1.6902683373647323   -2.2087279893115257    2.2881563789815340
  78 2    3.5052507783585787    8.8750375420117411    7.1511687025464497    0.3526813951826479    0.7131760510991775   -0.6838481147537266
  79 2    9.0330151911591763    7.1964791536339998    9.0053587382471516   -1.0742921871769051   -1.1420129318426959   -0.4941409581048793
  80 2    7.1422777611887236    2.4327161504254220    9.0097179519769597    0.2311086088354224   -1.6663990521120648    1.2784966296359572
  81 2    7.0412374142033078    9.2850908872844773    9.4331300539385019    2.5695532232396063   -0.6813109993395778    1.2685362950372583
  82 2    5.8333173583386619    7.4130595290541761    8.7648945723960665   -0.3582058028453944   -2.5338705918083311    0.7529541697559264
  83 2    8.8320073261197916    7.0019525285461146    3.6180810544232704    1.9509311269354135   -1.0393903638677262    0.0526172653262592
  84 2    5.5113723950828204    7.4220119702723606    6.2383583098735587   -2.0261050830007341    1.3128567829231665   -0.3983271231137830
  85 2    7.2284795383507987    9.3227427059205557    1.5419791518370378   -0.0235916482662337   -1.1562272918571623    0.3658291649894603
  86 2    8.8115923717542533    7.2082199999292795    0.9649543412546936    3.0005763948019299   -0.4294146272566803    0.9673260881250643
  87 2    7.1901518368453115    5.2317344580507248    9.5370823448031530    0.6925069566230848    1.9682521211098654   -1.0577609642990202
  88 2    3.8104900597631701    9.0771760696614141    9.7741166402174056   -0.4386996233117351    0.2423129939029323   -0.3127316147757110
  89 2    9.0254832072487918    0.0392331571476991    9.0852923834134707   -0.0119724526358130    0.7450314518475383   -0.1551045406574827
  90 2    7.0562448903736108    5.7544107577854247    6.9444497142753692    2.5595484652789664   -2.0728873108874311    0.9939205180993622
  91 2    5.3467928843916992   10.5363422772179689    6.4584220404757904   -0.1532461998630247    3.1487890361880142   -2.8430864845534276
  92 2   10.6327301226514503    4.8752688576318022    6.8944900368664124    3.0183524649563602    1.8023136750451718   -1.3803573712595059
  93 2   10.6870988017260018    8.7607765556454105    4.5783902026164585    0.0191923921556490    0.5678939699036538   -2.1822209318241610
  94 2    2.0300128207789556    7.3123712416432705    3.5509954740421672   -2.3082903595743227   -0.8291788864966598   -0.9835409324176827
  95 2    3.5223256255735844    9.1263965440899213    4.2321438658464121    1.1152665234190462   -0.1073862160855510    0.5780662166547932
  96 2    3.1122742782179493    5.5871202423805935    1.3089777626039336    2.8302196433281566    1.3098302915715505    0.3679592307728639
  97 2    5.4816440636427215    7.5808510188696268    0.7748303905975997   -2.7694041727519583   -1.2094001631052271    1.7447843968086891
  98 2    8.6772221573684476   10.7713812459048626    3.2911456757933428   -0.9449997179154390    1.1810278931608753    3.6906386444787560
  99 2    9.4456409952785414    3.3976288166554869    8.9043128425288369   -1.3787438239721794    1.7149655369167540    2.2710161418111516
 100 2    7.2419852754558791    5.2407833736530831    1.3204462354059896   -0.9869111895481697    1.5606848125820627    2.0222098022853938
 101 2    9.1451951978111623    3.4377769984031086    1.2365329174560304   -0.3310502619555717    2.6229248412353163   -1.7900730861299317
 102 2    8.7051012254126903    3.9433586458523506    3.7855375729100995    3.2495486634251356   -0.8092481349390355   -1.6414830429883787
 103 2    6.9036804626328863    5.7297750178972651    4.2182712257641093   -0.9582909878559907   -2.6099236292906149   -0.1192611754461429
 104 2    3.3652902583161399    9.3947069570510156    1.8909145262285090    2.8988865115483340   -0.3359140499356319   -1.5246126503065940