LAMMPS (27 Jun 2024)
OMP_NUM_THREADS environment is not set. Defaulting to 1 thread. (src/comm.cpp:98)
  using 1 OpenMP thread(s) per MPI task
Reading data file ...
  orthogonal box = (0 0 0) to (67.266653 66.57672 40.643788)
  5 by 2 by 2 MPI processor grid
  reading atoms ...
  8064 atoms
  read_data CPU = 0.045 seconds
**************** Begin of POD Potentials ****************
species: Hf 
periodic boundary conditions: 1 1 1
number of environment clusters: 8
number of principal compoments: 2
inner cut-off radius: 1
outer cut-off radius: 5
cut-off function type: 1
gaussian_exponents: 
polynomial_degrees: 
bessel polynomial degree: 4
inverse polynomial degree: 10
one-body potential: 1
two-body radial basis functions: 8
three-body radial basis functions: 8
three-body angular degree: 6
four-body radial basis functions: 7
four-body angular degree: 5
five-body radial basis functions: 0
five-body angular degree: 0
six-body radial basis functions: 0
six-body angular degree: 0
seven-body radial basis functions: 0
seven-body angular degree: 0
number of local descriptors per element for one-body potential: 1
number of local descriptors per element for two-body potential: 8
number of local descriptors per element for three-body potential: 56
number of local descriptors per element for four-body potential: 112
number of local descriptors per element for five-body potential: 0
number of local descriptors per element for six-body potential: 0
number of local descriptors per element for seven-body potential: 0
number of local descriptors per element for all potentials: 177
number of global descriptors: 1409
**************** End of POD Potentials ****************

**************** Begin of Model Coefficients ****************
total number of coefficients for POD potential: 1409
total number of elements for PCA projection matrix: 352
total number of elements for PCA centroids: 16
**************** End of Model Coefficients ****************


CITE-CITE-CITE-CITE-CITE-CITE-CITE-CITE-CITE-CITE-CITE-CITE-CITE

Your simulation uses code contributions which should be cited:
- Type Label Framework: https://doi.org/10.1021/acs.jpcb.3c08419
The log file lists these citations in BibTeX format.

CITE-CITE-CITE-CITE-CITE-CITE-CITE-CITE-CITE-CITE-CITE-CITE-CITE

Neighbor list info ...
  update: every = 1 steps, delay = 0 steps, check = no
  max neighbors/atom: 2000, page size: 100000
  master list distance cutoff = 7
  ghost atom cutoff = 7
  binsize = 3.5, bins = 20 20 12
  1 neighbor lists, perpetual/occasional/extra = 1 0 0
  (1) pair pod, perpetual
      attributes: full, newton on
      pair build: full/bin/atomonly
      stencil: full/bin/3d
      bin: standard
Setting up Verlet run ...
  Unit style    : metal
  Current step  : 0
  Time step     : 0.001
Per MPI rank memory allocation (min/avg/max) = 2.639 | 2.639 | 2.64 Mbytes
   Step          Temp          TotEng         PotEng         KinEng         Press          Volume    
         0   300           -58717.63      -59030.297      312.66736      3272.0584      182018.86    
       100   106.12297     -58707.977     -58818.581      110.60397      4068.4682      182018.86    
       200   155.83207     -58674.088     -58836.5        162.41201      4615.8803      182018.86    
       300   192.68304     -58634.602     -58835.421      200.81899      4567.1135      182018.86    
       400   245.99956     -58593.245     -58849.632      256.38678      4333.5401      182018.86    
       500   264.57847     -58549.041     -58824.791      275.75017      5076.2392      182018.86    
       600   245.58335     -58506.181     -58762.134      255.953        6115.2327      182018.86    
       700   267.47758     -58466.23      -58745.001      278.7717       6788.8328      182018.86    
       800   289.9273      -58433.547     -58735.716      302.16935      6853.2483      182018.86    
       900   321.5161      -58406.94      -58742.032      335.09198      6870.56        182018.86    
      1000   318.63835     -58404.366     -58736.459      332.09271      6985.641       182018.86    
      1100   300.80693     -58419.962     -58733.471      313.50837      7009.9673      182018.86    
      1200   290.37312     -58437.952     -58740.586      302.634        6835.2892      182018.86    
      1300   285.39838     -58446.565     -58744.014      297.4492       6703.7859      182018.86    
      1400   298.54222     -58437.357     -58748.505      311.14803      6739.0492      182018.86    
      1500   308.35456     -58423.388     -58744.762      321.37469      6772.6812      182018.86    
      1600   310.77072     -58413.491     -58737.384      323.89287      6980.7245      182018.86    
      1700   300.50381     -58416.236     -58729.429      313.19245      7144.4032      182018.86    
      1800   287.60774     -58429.28      -58729.031      299.75185      7043.9621      182018.86    
      1900   303.19909     -58436.468     -58752.469      316.00153      6708.2878      182018.86    
      2000   301.06579     -58439.966     -58753.744      313.77815      6538.2207      182018.86    
      2100   296.6452      -58432.704     -58741.875      309.17091      6808.3351      182018.86    
      2200   304.19942     -58421.335     -58738.379      317.0441       6938.2271      182018.86    
      2300   295.46109     -58418.01      -58725.946      307.9368       7181.0138      182018.86    
      2400   306.69189     -58420.776     -58740.418      319.64182      6915.3111      182018.86    
      2500   300.85435     -58431.06      -58744.617      313.55779      6729.1953      182018.86    
      2600   301.88862     -58433.958     -58748.594      314.63573      6691.7785      182018.86    
      2700   290.42045     -58435.946     -58738.629      302.68332      6875.486       182018.86    
      2800   298.28324     -58429.413     -58740.291      310.87811      6880.2384      182018.86    
      2900   301.30156     -58423.514     -58737.538      314.02388      6932.3157      182018.86    
      3000   304.60574     -58419.933     -58737.401      317.46758      6892.5828      182018.86    
      3100   311.8606      -58419.385     -58744.414      325.02878      6856.2399      182018.86    
      3200   293.30617     -58429.444     -58735.135      305.6909       6886.1335      182018.86    
      3300   298.01679     -58434.309     -58744.91       310.60041      6921.3537      182018.86    
      3400   292.27142     -58437.978     -58742.59       304.61245      6796.6925      182018.86    
      3500   302.00195     -58430.068     -58744.822      314.75385      6850.2277      182018.86    
      3600   307.9617      -58420.262     -58741.227      320.96525      6881.3703      182018.86    
      3700   299.87039     -58419.526     -58732.058      312.53228      7011.6487      182018.86    
      3800   298.33681     -58424.072     -58735.006      310.93394      6992.5487      182018.86    
      3900   301.55092     -58432.474     -58746.757      314.28377      6809.1823      182018.86    
      4000   293.20487     -58437.711     -58743.296      305.58532      6837.0396      182018.86    
      4100   299.25987     -58432.952     -58744.848      311.89598      6784.1465      182018.86    
      4200   303.62502     -58425.861     -58742.307      316.44545      6858.7404      182018.86    
      4300   301.24742     -58421.546     -58735.513      313.96745      7012.9475      182018.86    
      4400   299.58983     -58423.207     -58735.447      312.23988      6999.5545      182018.86    
      4500   302.71468     -58426.654     -58742.151      315.49667      6960.4124      182018.86    
      4600   296.251       -58431.391     -58740.151      308.76006      6907.2305      182018.86    
      4700   298.86542     -58431.054     -58742.539      311.48488      6888.761       182018.86    
      4800   301.19031     -58429.549     -58743.457      313.90794      6896.493       182018.86    
      4900   297.47635     -58429.204     -58739.241      310.03716      6866.2357      182018.86    
      5000   302.26011     -58426.043     -58741.066      315.02291      6917.9765      182018.86    
      5100   299.74314     -58424.999     -58737.398      312.39966      6943.8612      182018.86    
      5200   304.59845     -58424.106     -58741.566      317.45998      6960.5046      182018.86    
      5300   299.15915     -58427.131     -58738.922      311.79102      6960.4313      182018.86    
      5400   296.48201     -58431.106     -58740.107      309.00083      6884.7375      182018.86    
      5500   302.01531     -58431.712     -58746.48       314.76777      6823.188       182018.86    
      5600   295.41572     -58431.315     -58739.205      307.88951      6901.8785      182018.86    
      5700   301.03685     -58426.731     -58740.479      313.74799      6906.4079      182018.86    
      5800   304.10067     -58423.88      -58740.821      316.94118      6898.7415      182018.86    
      5900   298.55748     -58426.884     -58738.048      311.16393      6906.2744      182018.86    
      6000   299.28517     -58428.655     -58740.578      311.92235      6942.1019      182018.86    
      6100   301.56133     -58429.383     -58743.677      314.29462      6859.3233      182018.86    
      6200   301.24254     -58430.082     -58744.045      313.96237      6845.2233      182018.86    
      6300   294.99823     -58428.953     -58736.407      307.45439      6933.7066      182018.86    
      6400   304.56861     -58425.252     -58742.681      317.42889      6893.3089      182018.86    
      6500   298.92562     -58426.208     -58737.755      311.54762      6930.2395      182018.86    
      6600   299.53309     -58426.875     -58739.056      312.18074      6926.8903      182018.86    
      6700   298.34431     -58429.607     -58740.548      310.94177      6912.4772      182018.86    
      6800   300.10519     -58429.795     -58742.572      312.777        6883.5546      182018.86    
      6900   298.64972     -58428.902     -58740.162      311.26006      6910.365       182018.86    
      7000   300.51767     -58427.011     -58740.218      313.20689      6889.1222      182018.86    
      7100   299.53488     -58425.24      -58737.422      312.1826       6964.7518      182018.86    
      7200   299.09189     -58426.548     -58738.269      311.72091      6949.05        182018.86    
      7300   302.68341     -58428.192     -58743.656      315.46408      6867.9465      182018.86    
      7400   298.85084     -58429.664     -58741.133      311.46968      6891.7514      182018.86    
      7500   296.80906     -58429.163     -58738.505      309.34168      6962.5154      182018.86    
      7600   300.55202     -58427.356     -58740.599      313.24269      6974.3286      182018.86    
      7700   302.3727      -58427.682     -58742.822      315.14026      6875.1498      182018.86    
      7800   299.68072     -58428.703     -58741.038      312.3346       6840.5029      182018.86    
      7900   299.81062     -58427.466     -58739.936      312.46999      6884.345       182018.86    
      8000   299.41187     -58426.57      -58738.624      312.0544       6968.455       182018.86    
      8100   297.28538     -58428.024     -58737.862      309.83813      6995.7712      182018.86    
      8200   301.27227     -58430.364     -58744.357      313.99336      6875.1391      182018.86    
      8300   299.08401     -58431.491     -58743.203      311.71269      6895.3984      182018.86    
      8400   297.42468     -58428.824     -58738.807      309.98331      6943.4381      182018.86    
      8500   297.56893     -58425.342     -58735.475      310.13365      7032.678       182018.86    
      8600   303.87543     -58422.999     -58739.706      316.70643      6933.8112      182018.86    
      8700   300.20637     -58427.203     -58740.085      312.88245      6933.6805      182018.86    
      8800   300.03431     -58428.853     -58741.556      312.70313      6868.0539      182018.86    
      8900   298.61491     -58428.968     -58740.191      311.22379      6928.3724      182018.86    
      9000   302.58723     -58427.839     -58743.203      315.36384      6896.6487      182018.86    
      9100   296.28497     -58429.301     -58738.097      308.79547      7003.0127      182018.86    
      9200   300.91501     -58428.548     -58742.169      313.62101      6950.1141      182018.86    
      9300   301.54366     -58427.014     -58741.29       314.27621      6974.7389      182018.86    
      9400   299.09474     -58425.595     -58737.319      311.72388      6973.9646      182018.86    
      9500   300.54762     -58425.644     -58738.882      313.2381       6917.0083      182018.86    
      9600   297.52357     -58430.258     -58740.344      310.08637      6947.3248      182018.86    
      9700   298.36837     -58431.912     -58742.879      310.96684      6882.1272      182018.86    
      9800   299.25636     -58430.578     -58742.47       311.89232      6896.9438      182018.86    
      9900   302.80594     -58424.228     -58739.82       315.59178      6974.8106      182018.86    
     10000   303.27253     -58421.214     -58737.292      316.07807      7035.7419      182018.86    
     10100   298.25809     -58424.244     -58735.096      310.8519       7014.1417      182018.86    
     10200   300.69252     -58429.738     -58743.128      313.38912      6910.6685      182018.86    
     10300   301.24562     -58432.906     -58746.872      313.96558      6821.0559      182018.86    
     10400   295.60355     -58432.331     -58740.417      308.08528      6930.7209      182018.86    
     10500   300.03748     -58427.564     -58740.271      312.70642      7020.8568      182018.86    
     10600   302.16433     -58425.544     -58740.467      314.92308      6962.6133      182018.86    
     10700   302.48275     -58425.111     -58740.365      315.25495      6952.155       182018.86    
     10800   300.41193     -58426.731     -58739.828      313.09669      6957.2009      182018.86    
     10900   296.30597     -58432.752     -58741.569      308.81736      6857.6095      182018.86    
     11000   300.20389     -58432.232     -58745.112      312.87986      6911.4765      182018.86    
     11100   300.21251     -58427.622     -58740.511      312.88884      6893.4908      182018.86    
     11200   301.20002     -58424.335     -58738.253      313.91805      6988.4428      182018.86    
     11300   300.53309     -58424.825     -58738.048      313.22296      6944.5423      182018.86    
     11400   301.26941     -58427.057     -58741.048      313.99038      6927.1676      182018.86    
     11500   300.03991     -58430.872     -58743.581      312.70897      6905.9644      182018.86    
     11600   292.86067     -58438.903     -58744.13       305.22658      6802.722       182018.86    
     11700   294.54744     -58441.644     -58748.629      306.98457      6731.9964      182018.86    
     11800   297.32746     -58435.015     -58744.897      309.88198      6837.9154      182018.86    
     11900   299.18034     -58429.434     -58741.247      311.81309      6930.9375      182018.86    
     12000   298.57736     -58426.087     -58737.271      311.18466      7047.4495      182018.86    
     12100   302.73787     -58424.255     -58739.776      315.52084      6976.8377      182018.86    
     12200   301.42077     -58426.445     -58740.594      314.14813      6977.7657      182018.86    
     12300   296.82292     -58432.859     -58742.215      309.35614      6916.5087      182018.86    
     12400   297.20769     -58434.671     -58744.428      309.75715      6877.0452      182018.86    
     12500   298.79232     -58430.157     -58741.566      311.40869      6917.7107      182018.86    
     12600   302.79482     -58427.255     -58742.836      315.58019      6920.7346      182018.86    
     12700   296.28471     -58428.723     -58737.518      308.7952       6910.1748      182018.86    
     12800   303.39854     -58427.524     -58743.734      316.2094       6901.0231      182018.86    
     12900   301.16437     -58428.039     -58741.92       313.8809       6862.6444      182018.86    
     13000   297.36807     -58426.572     -58736.496      309.9243       7023.3846      182018.86    
     13100   300.44502     -58423.22      -58736.352      313.13117      7043.0831      182018.86    
     13200   302.53864     -58424.362     -58739.675      315.3132       6977.9272      182018.86    
     13300   300.51577     -58430.218     -58743.423      313.20491      6941.4546      182018.86    
     13400   298.54749     -58431.051     -58742.204      311.15353      6899.5317      182018.86    
     13500   298.81027     -58429.702     -58741.13       311.4274       6952.8832      182018.86    
     13600   299.14329     -58428.534     -58740.309      311.77448      6935.4915      182018.86    
     13700   305.97848     -58420.151     -58739.049      318.89828      6955.8425      182018.86    
     13800   301.73253     -58420.426     -58734.9        314.47305      7060.7129      182018.86    
     13900   300.87858     -58425.728     -58739.311      313.58304      7002.903       182018.86    
     14000   299.2017      -58430.26      -58742.095      311.83536      6930.8471      182018.86    
     14100   296.04186     -58432.468     -58741.01       308.54209      6956.2629      182018.86    
     14200   298.93388     -58428.541     -58740.098      311.55623      6898.7781      182018.86    
     14300   302.49304     -58424.48      -58739.746      315.26567      7015.6756      182018.86    
     14400   299.99191     -58424.777     -58737.436      312.65893      6999.7649      182018.86    
     14500   301.39345     -58426.843     -58740.962      314.11966      6949.7371      182018.86    
     14600   298.00672     -58431.359     -58741.949      310.58992      6908.3985      182018.86    
     14700   296.73449     -58432.42      -58741.684      309.26397      6938.3371      182018.86    
     14800   303.52244     -58426.065     -58742.403      316.33854      6935.6836      182018.86    
     14900   302.52931     -58421.585     -58736.889      315.30347      7035.9897      182018.86    
     15000   302.89121     -58422.702     -58738.383      315.68066      6960.0712      182018.86    
     15100   298.90169     -58428.248     -58739.771      311.52268      6978.9925      182018.86    
     15200   301.58738     -58430.04      -58744.362      314.32177      6849.5059      182018.86    
     15300   301.01716     -58430.386     -58744.113      313.72747      6928.1288      182018.86    
     15400   298.97157     -58429.134     -58740.73       311.59551      6900.2699      182018.86    
     15500   302.35609     -58421.147     -58736.27       315.12294      7024.9911      182018.86    
     15600   301.09316     -58420.533     -58734.34       313.80669      7056.4147      182018.86    
     15700   302.46223     -58423.472     -58738.706      315.23357      6990.7948      182018.86    
     15800   303.83109     -58426.123     -58742.783      316.66022      6922.869       182018.86    
     15900   299.95248     -58429.572     -58742.19       312.61784      6932.3095      182018.86    
     16000   297.1439      -58430.283     -58739.973      309.69067      6963.2793      182018.86    
     16100   297.62458     -58428.645     -58738.837      310.19164      7014.5427      182018.86    
     16200   305.39769     -58425.825     -58744.118      318.29297      6958.4         182018.86    
     16300   298.33507     -58428.156     -58739.088      310.93213      6940.3379      182018.86    
     16400   295.18943     -58435.758     -58743.411      307.65367      6896.0357      182018.86    
     16500   296.5624      -58437.679     -58746.764      309.08462      6782.1581      182018.86    
     16600   298.59952     -58431.247     -58742.454      311.20775      6887.6643      182018.86    
     16700   300.47265     -58427.566     -58740.726      313.15997      6998.1307      182018.86    
     16800   301.86848     -58425.717     -58740.332      314.61474      6949.5938      182018.86    
     16900   300.78429     -58426.475     -58739.959      313.48477      7016.5229      182018.86    
     17000   294.34333     -58430.799     -58737.57       306.77185      6962.3853      182018.86    
     17100   297.82545     -58432.766     -58743.167      310.401        6912.9901      182018.86    
     17200   300.0897      -58434.654     -58747.415      312.76086      6801.8745      182018.86    
     17300   300.17237     -58429.951     -58742.798      312.84702      6930.2392      182018.86    
     17400   298.72573     -58424.876     -58736.215      311.33929      7020.2869      182018.86    
     17500   304.99507     -58423.168     -58741.042      317.87335      6964.4282      182018.86    
     17600   296.21737     -58427.162     -58735.888      308.72502      6988.3015      182018.86    
     17700   298.8163      -58428.919     -58740.352      311.43369      6945.7093      182018.86    
     17800   298.23865     -58433.14      -58743.972      310.83165      6920.0182      182018.86    
     17900   293.47419     -58439.191     -58745.057      305.866        6827.6102      182018.86    
     18000   296.61945     -58435.034     -58744.178      309.14407      6864.7876      182018.86    
     18100   298.34021     -58428.62      -58739.557      310.93749      6940.8248      182018.86    
     18200   299.26526     -58425.875     -58737.777      311.9016       6998.2418      182018.86    
     18300   303.4544      -58424.6       -58740.867      316.26762      6958.2048      182018.86    
     18400   297.78171     -58428.512     -58738.868      310.35541      7021.2332      182018.86    
     18500   296.16749     -58433.859     -58742.532      308.67303      6886.1346      182018.86    
     18600   296.83291     -58435.909     -58745.276      309.36654      6838.6607      182018.86    
     18700   300.62182     -58430.322     -58743.638      313.31544      6933.9921      182018.86    
     18800   297.20116     -58425.401     -58735.151      309.75034      7002.5304      182018.86    
     18900   304.91944     -58421.599     -58739.394      317.79452      7008.8616      182018.86    
     19000   301.77036     -58423.962     -58738.474      314.51248      6974.8077      182018.86    
     19100   299.12966     -58429.991     -58741.752      311.76027      6903.5601      182018.86    
     19200   296.79203     -58432.696     -58742.02       309.32394      6920.178       182018.86    
     19300   299.01121     -58430.631     -58742.268      311.63682      6908.133       182018.86    
     19400   300.76718     -58427.304     -58740.771      313.46693      6970.5215      182018.86    
     19500   300.20443     -58425.25      -58738.131      312.88042      7011.6103      182018.86    
     19600   302.93194     -58424.514     -58740.237      315.72311      7034.7059      182018.86    
     19700   297.05129     -58431.036     -58740.63       309.59415      6918.9351      182018.86    
     19800   298.19401     -58434.44      -58745.225      310.78512      6887.1109      182018.86    
     19900   297.13847     -58432.069     -58741.754      309.68501      6873.0768      182018.86    
     20000   299.97618     -58427.178     -58739.821      312.64254      7031.4315      182018.86    
     20100   302.0299      -58424.481     -58739.264      314.78297      6929.2217      182018.86    
     20200   299.60475     -58424.794     -58737.049      312.25542      6974.1217      182018.86    
     20300   298.89458     -58426.971     -58738.486      311.51527      6989.8659      182018.86    
     20400   300.99343     -58428.899     -58742.601      313.70274      6917.1327      182018.86    
     20500   297.06497     -58430.125     -58739.733      309.60841      6881.8282      182018.86    
     20600   303.20483     -58428.653     -58744.661      316.00751      6853.1081      182018.86    
     20700   300.76157     -58428.603     -58742.064      313.46109      6911.6506      182018.86    
     20800   298.05555     -58426.979     -58737.619      310.64081      7015.3022      182018.86    
     20900   302.16981     -58423.051     -58737.98       314.92879      6963.8927      182018.86    
     21000   300.88769     -58423.912     -58737.504      313.59254      6951.1994      182018.86    
     21100   300.66439     -58429.672     -58743.032      313.3598       6933.1114      182018.86    
     21200   297.50409     -58433.908     -58743.974      310.06607      6864.0284      182018.86    
     21300   294.10518     -58433.691     -58740.214      306.52364      6965.3189      182018.86    
     21400   301.16541     -58426.555     -58740.437      313.88198      6928.5356      182018.86    
     21500   302.44551     -58424.95      -58740.166      315.21613      6966.6638      182018.86    
     21600   295.80328     -58426.319     -58734.613      308.29344      7035.0429      182018.86    
     21700   300.63753     -58426.892     -58740.224      313.33182      6961.1199      182018.86    
     21800   301.32564     -58432.043     -58746.092      314.04897      6815.5234      182018.86    
     21900   296.83173     -58435.301     -58744.666      309.36531      6850.5149      182018.86    
     22000   293.99833     -58432.756     -58739.168      306.41228      6969.1156      182018.86    
     22100   302.45419     -58425.883     -58741.108      315.22518      6882.3542      182018.86    
     22200   300.7368      -58426.862     -58740.297      313.43528      7007.1804      182018.86    
     22300   297.75665     -58428.939     -58739.269      310.32929      6942.6084      182018.86    
     22400   298.67862     -58429.491     -58740.781      311.29019      6880.5692      182018.86    
     22500   301.3492      -58428.939     -58743.012      314.07354      6922.2841      182018.86    
     22600   299.44597     -58426.799     -58738.889      312.08995      6973.6225      182018.86    
     22700   302.19694     -58422.923     -58737.88       314.95707      7008.1158      182018.86    
     22800   300.39766     -58422.157     -58735.239      313.08181      7008.7726      182018.86    
     22900   302.81327     -58426.311     -58741.91       315.59942      6927.666       182018.86    
     23000   298.18774     -58431.644     -58742.423      310.77858      6859.156       182018.86    
     23100   299.77296     -58430.543     -58742.974      312.43074      6900.4605      182018.86    
     23200   300.16707     -58426.748     -58739.59       312.84149      6937.4196      182018.86    
     23300   301.60906     -58422.057     -58736.402      314.34437      6993.048       182018.86    
     23400   300.76354     -58423.263     -58736.726      313.46314      6976.0177      182018.86    
     23500   302.55272     -58430.537     -58745.865      315.32787      6814.5185      182018.86    
     23600   295.38032     -58432.673     -58740.526      307.85262      6899.2842      182018.86    
     23700   299.38482     -58429.61      -58741.636      312.02621      6909.372       182018.86    
     23800   300.23096     -58427.086     -58739.994      312.90808      6928.5818      182018.86    
     23900   300.67727     -58425.156     -58738.529      313.37323      6998.7885      182018.86    
     24000   304.08977     -58421.359     -58738.288      316.92982      6975.0515      182018.86    
     24100   303.72347     -58419.522     -58736.07       316.54806      7070.772       182018.86    
     24200   299.44793     -58423.834     -58735.926      312.09198      6993.3516      182018.86    
     24300   301.31278     -58429.219     -58743.254      314.03557      6931.7783      182018.86    
     24400   298.29696     -58431.795     -58742.687      310.89241      6920.9221      182018.86    
     24500   298.58149     -58431.625     -58742.814      311.18895      6940.8876      182018.86    
     24600   301.58805     -58427.269     -58741.591      314.32247      6951.2222      182018.86    
     24700   306.45703     -58419.943     -58739.34       319.39704      7043.8319      182018.86    
     24800   299.43548     -58422.716     -58734.795      312.079        7071.4147      182018.86    
     24900   299.70292     -58426.924     -58739.282      312.35774      6983.1987      182018.86    
     25000   299.72964     -58430.565     -58742.951      312.38559      6842.9561      182018.86    
     25100   299.07373     -58431.777     -58743.479      311.70198      6870.8904      182018.86    
     25200   296.96491     -58429.747     -58739.251      309.50412      6928.4341      182018.86    
     25300   299.42899     -58427.013     -58739.085      312.07224      6991.7802      182018.86    
     25400   303.09971     -58426.742     -58742.64       315.89796      6897.7048      182018.86    
     25500   300.71193     -58428.791     -58742.2        313.40936      6921.1813      182018.86    
     25600   296.25014     -58430.715     -58739.474      308.75917      6973.5921      182018.86    
     25700   298.78817     -58429.1       -58740.504      311.40436      6947.7471      182018.86    
     25800   303.58597     -58423.956     -58740.361      316.40475      7003.3304      182018.86    
     25900   303.35571     -58421.958     -58738.123      316.16477      7062.0998      182018.86    
     26000   299.12215     -58426.375     -58738.127      311.75245      7015.9237      182018.86    
     26100   300.116       -58432.407     -58745.195      312.78826      6924.1247      182018.86    
     26200   295.91066     -58433.055     -58741.46       308.40536      6959.3857      182018.86    
     26300   300.00615     -58429.68      -58742.354      312.67377      6905.6533      182018.86    
     26400   301.72889     -58426.495     -58740.964      314.46926      6960.7193      182018.86    
     26500   295.033       -58426.741     -58734.232      307.49063      7071.3251      182018.86    
     26600   307.09138     -58423.452     -58743.51       320.05818      6953.5158      182018.86    
     26700   303.92677     -58420.024     -58736.784      316.75994      7082.5219      182018.86    
     26800   298.74041     -58422.22      -58733.575      311.35459      7141.0046      182018.86    
     26900   298.54712     -58428.325     -58739.478      311.15314      6944.2409      182018.86    
     27000   300.97781     -58430.196     -58743.883      313.68647      6934.3703      182018.86    
     27100   297.27993     -58430.723     -58740.555      309.83244      6919.2986      182018.86    
     27200   303.88617     -58424.765     -58741.483      316.71762      6965.1148      182018.86    
     27300   299.66297     -58422.025     -58734.341      312.3161       7044.8349      182018.86    
     27400   305.39473     -58422.674     -58740.963      318.28989      6990.3963      182018.86    
     27500   300.0732      -58426.91      -58739.654      312.74366      6954.3927      182018.86    
     27600   300.52276     -58427.401     -58740.613      313.21219      6949.7312      182018.86    
     27700   300.21549     -58428.253     -58741.145      312.89195      6960.0668      182018.86    
     27800   296.44519     -58432.025     -58740.987      308.96246      6938.3987      182018.86    
     27900   298.00272     -58435.315     -58745.901      310.58575      6885.0977      182018.86    
     28000   298.17067     -58436.117     -58746.878      310.76079      6773.6223      182018.86    
     28100   299.55907     -58430.025     -58742.232      312.20782      6987.2689      182018.86    
     28200   298.81139     -58426.8       -58738.229      311.42857      6971.5223      182018.86    
     28300   300.8743      -58425.714     -58739.292      313.57858      6974.032       182018.86    
     28400   298.24421     -58425.5       -58736.337      310.83744      7014.1219      182018.86    
     28500   302.32587     -58425.679     -58740.771      315.09144      6974.7738      182018.86    
     28600   300.58136     -58430.462     -58743.735      313.27327      6902.6954      182018.86    
     28700   296.38984     -58433.7       -58742.604      308.90477      6926.141       182018.86    
     28800   297.62938     -58432.225     -58742.421      310.19664      6888.8817      182018.86    
     28900   303.38411     -58423.62      -58739.815      316.19436      7011.6537      182018.86    
     29000   299.4056      -58423.845     -58735.893      312.04787      7075.1096      182018.86    
     29100   299.35709     -58426.782     -58738.78       311.99731      6999.2351      182018.86    
     29200   301.66068     -58431.104     -58745.503      314.39817      6844.5521      182018.86    
     29300   296.13655     -58434.079     -58742.72       308.64078      6890.1198      182018.86    
     29400   299.99404     -58429.269     -58741.93       312.66115      6933.9581      182018.86    
     29500   303.93768     -58423.129     -58739.901      316.77131      7033.7432      182018.86    
     29600   301.30145     -58423.764     -58737.788      314.02377      7015.3753      182018.86    
     29700   300.72165     -58426.617     -58740.037      313.41949      6919.3233      182018.86    
     29800   301.1081      -58429.744     -58743.566      313.82225      6922.8037      182018.86    
     29900   293.03979     -58433.19      -58738.603      305.41326      6986.7335      182018.86    
     30000   301.11083     -58430.886     -58744.711      313.8251       6914.7071      182018.86    
     30100   304.23383     -58424.087     -58741.167      317.07996      6978.5688      182018.86    
     30200   299.91972     -58422.173     -58734.757      312.58369      7048.6935      182018.86    
     30300   301.43643     -58422.077     -58736.241      314.16445      7039.6349      182018.86    
     30400   296.92308     -58428         -58737.46       309.46052      6969.8754      182018.86    
     30500   300.44708     -58433.587     -58746.72       313.13333      6839.4358      182018.86    
     30600   301.21093     -58432.008     -58745.937      313.92942      6860.5376      182018.86    
     30700   296.01885     -58429.379     -58737.897      308.51811      7030.4912      182018.86    
     30800   299.63051     -58426.879     -58739.161      312.28228      6992.0458      182018.86    
     30900   305.61543     -58425.372     -58743.892      318.51991      6960.5021      182018.86    
     31000   294.22841     -58429.435     -58736.087      306.65208      6995.3615      182018.86    
     31100   297.97437     -58433.331     -58743.887      310.5562       6940.9728      182018.86    
     31200   299.77028     -58433.777     -58746.205      312.42794      6824.0039      182018.86    
     31300   301.50805     -58428.347     -58742.586      314.23909      6911.0951      182018.86    
     31400   298.39258     -58425.653     -58736.645      310.99207      6985.17        182018.86    
     31500   301.79814     -58425.294     -58739.835      314.54144      7005.7446      182018.86    
     31600   299.2798      -58427.544     -58739.461      311.91675      6958.03        182018.86    
     31700   298.12038     -58428.852     -58739.561      310.70838      6946.6734      182018.86    
     31800   298.94781     -58428.062     -58739.633      311.57074      6940.8033      182018.86    
     31900   301.23084     -58427.593     -58741.543      313.95018      6943.4384      182018.86    
     32000   299.86714     -58429.296     -58741.824      312.5289       6886.5817      182018.86    
     32100   297.35267     -58430.394     -58740.302      309.90825      6918.1517      182018.86    
     32200   303.03518     -58425.267     -58741.097      315.8307       6926.7767      182018.86    
     32300   304.80491     -58419.258     -58736.933      317.67516      6950.5776      182018.86    
     32400   303.76716     -58419.945     -58736.539      316.59359      7050.3385      182018.86    
     32500   300.39112     -58426.745     -58739.82       313.075        6967.776       182018.86    
     32600   295.00735     -58430.441     -58737.905      307.46391      6962.7957      182018.86    
     32700   302.06216     -58428.366     -58743.182      314.8166       6868.0533      182018.86    
     32800   300.64914     -58426.445     -58739.788      313.34391      6921.2759      182018.86    
     32900   300.79228     -58423.057     -58736.55       313.4931       6987.293       182018.86    
     33000   303.00097     -58420.111     -58735.906      315.79505      7063.1481      182018.86    
     33100   300.07013     -58426.679     -58739.419      312.74045      6985.022       182018.86    
     33200   297.15692     -58431.418     -58741.122      309.70424      6883.4133      182018.86    
     33300   299.4584      -58430.605     -58742.708      312.1029       6868.5007      182018.86    
     33400   302.29772     -58426.863     -58741.925      315.0621       6955.9824      182018.86    
     33500   299.04619     -58422.965     -58734.638      311.67328      7028.725       182018.86    
     33600   304.49387     -58420.048     -58737.399      317.35098      7030.4993      182018.86    
     33700   300.18964     -58428.45      -58741.315      312.86501      6920.6348      182018.86    
     33800   298.14949     -58431.75      -58742.489      310.73871      6885.6257      182018.86    
     33900   295.02777     -58432.031     -58739.516      307.48518      6935.5596      182018.86    
     34000   301.8983      -58427.013     -58741.659      314.64582      6993.1239      182018.86    
     34100   298.87369     -58423.617     -58735.111      311.49349      7051.7386      182018.86    
     34200   304.47118     -58422.599     -58739.927      317.32733      6990.9645      182018.86    
     34300   299.49328     -58431.527     -58743.667      312.13925      6938.0771      182018.86    
     34400   294.73743     -58435.643     -58742.826      307.18259      6875.649       182018.86    
     34500   297.5577      -58431.423     -58741.544      310.12193      6935.3017      182018.86    
     34600   303.74454     -58426.462     -58743.032      316.57001      6870.0068      182018.86    
     34700   302.03485     -58425.467     -58740.255      314.78814      6960.8369      182018.86    
     34800   300.61045     -58425.908     -58739.211      313.30359      6993.6906      182018.86    
     34900   296.97922     -58430.692     -58740.211      309.51903      6936.9525      182018.86    
     35000   295.56082     -58435.921     -58743.962      308.04074      6873.7813      182018.86    
     35100   299.80885     -58433.493     -58745.961      312.46814      6830.8909      182018.86    
     35200   301.52103     -58429.514     -58743.766      314.25262      6917.7861      182018.86    
     35300   299.71198     -58428.31      -58740.677      312.36718      6965.1549      182018.86    
     35400   299.05259     -58426.914     -58738.594      311.67995      6965.6947      182018.86    
     35500   299.52249     -58424.546     -58736.716      312.1697       7016.5126      182018.86    
     35600   304.45162     -58420.531     -58737.838      317.30695      7019.9289      182018.86    
     35700   302.11501     -58423.907     -58738.779      314.87169      7026.2145      182018.86    
     35800   299.98122     -58430.659     -58743.307      312.64779      6866.1747      182018.86    
     35900   298.23103     -58432.318     -58743.142      310.8237       6841.7276      182018.86    
     36000   296.86757     -58430.305     -58739.708      309.40267      6946.8912      182018.86    
     36100   300.99813     -58424.471     -58738.178      313.70764      6969.1621      182018.86    
     36200   303.88152     -58423.588     -58740.301      316.71278      6964.7984      182018.86    
     36300   300.46983     -58426.144     -58739.301      313.15703      6990.3346      182018.86    
     36400   302.81745     -58427.566     -58743.169      315.60378      6974.0064      182018.86    
     36500   297.89627     -58431.11      -58741.584      310.47481      6925.9877      182018.86    
     36600   294.80787     -58434.415     -58741.671      307.256        6847.9379      182018.86    
     36700   298.73948     -58432.694     -58744.048      311.35362      6835.5403      182018.86    
     36800   299.29964     -58427.127     -58739.064      311.93744      6920.3083      182018.86    
     36900   301.24502     -58422.702     -58736.667      313.96496      7002.3432      182018.86    
     37000   301.94639     -58422.872     -58737.568      314.69594      7008.5452      182018.86    
     37100   301.79764     -58426.975     -58741.516      314.54091      6909.0123      182018.86    
     37200   297.68055     -58433.762     -58744.012      310.24998      6899.9139      182018.86    
     37300   296.82963     -58432.427     -58741.79       309.36312      6915.5192      182018.86    
     37400   295.9911      -58428.815     -58737.304      308.48919      7050.7341      182018.86    
     37500   303.31332     -58424.346     -58740.467      316.12059      6947.4661      182018.86    
     37600   306.00113     -58423.522     -58742.444      318.92189      6907.3826      182018.86    
     37700   297.77309     -58429.798     -58740.144      310.34642      6975.7115      182018.86    
     37800   293.58236     -58432.813     -58738.792      305.97874      6958.2142      182018.86    
     37900   299.66369     -58430.207     -58742.524      312.31685      6924.2737      182018.86    
     38000   300.82163     -58428.546     -58742.07       313.52368      6914.7624      182018.86    
     38100   302.34645     -58426.575     -58741.688      315.11289      6941.2968      182018.86    
     38200   302.52322     -58420.932     -58736.229      315.29713      7062.3529      182018.86    
     38300   305.32872     -58417.637     -58735.858      318.22109      7111.1015      182018.86    
     38400   301.51401     -58422.444     -58736.69       314.2453       7029.3066      182018.86    
     38500   303.80385     -58425.774     -58742.406      316.63183      6940.1155      182018.86    
     38600   297.78188     -58429.671     -58740.026      310.35559      6923.0563      182018.86    
     38700   298.34946     -58429.765     -58740.713      310.94713      6961.4715      182018.86    
     38800   300.76581     -58427.971     -58741.437      313.46551      7035.9699      182018.86    
     38900   301.36989     -58425.346     -58739.441      314.09509      6983.5842      182018.86    
     39000   300.08551     -58421.866     -58734.622      312.75649      7038.5469      182018.86    
     39100   305.15411     -58419.825     -58737.864      318.03911      6981.7861      182018.86    
     39200   300.68656     -58425.61      -58738.993      313.38292      6974.1548      182018.86    
     39300   298.1468      -58430.328     -58741.064      310.73591      6957.3354      182018.86    
     39400   298.99043     -58431.376     -58742.991      311.61517      6924.0128      182018.86    
     39500   296.52779     -58430.512     -58739.56       309.04854      6878.3213      182018.86    
     39600   305.42045     -58422.881     -58741.198      318.31669      7001.0151      182018.86    
     39700   300.12791     -58423.035     -58735.836      312.80067      7062.994       182018.86    
     39800   300.43862     -58425.305     -58738.43       313.1245       6983.197       182018.86    
     39900   299.6678      -58428.727     -58741.048      312.32114      6948.3336      182018.86    
     40000   298.37539     -58431.367     -58742.342      310.97416      6907.7878      182018.86    
     40100   299.84531     -58431.696     -58744.203      312.50614      6901.8854      182018.86    
     40200   297.63898     -58427.066     -58737.273      310.20665      6992.2236      182018.86    
     40300   303.98691     -58421.833     -58738.656      316.82262      7021.8648      182018.86    
     40400   302.81078     -58423.683     -58739.28       315.59683      7010.2191      182018.86    
     40500   294.28417     -58429.272     -58735.982      306.71018      7010.9426      182018.86    
     40600   298.16764     -58430.194     -58740.951      310.75763      6925.8007      182018.86    
     40700   303.84714     -58429.624     -58746.301      316.67695      6896.6332      182018.86    
     40800   299.19851     -58428.644     -58740.476      311.83203      6920.2173      182018.86    
     40900   298.71692     -58425.141     -58736.471      311.33011      6998.6007      182018.86    
     41000   301.95338     -58421.744     -58736.447      314.70323      7020.5865      182018.86    
     41100   304.30077     -58422.891     -58740.041      317.14973      7014.6418      182018.86    
     41200   300.51036     -58430.296     -58743.496      313.19927      6910.0549      182018.86    
     41300   296.91135     -58430.422     -58739.871      309.4483       6885.9167      182018.86    
     41400   298.8691      -58428.478     -58739.967      311.48872      6942.7216      182018.86    
     41500   301.84479     -58425.737     -58740.327      314.59005      6941.5211      182018.86    
     41600   303.57553     -58420.535     -58736.929      316.39387      7046.8496      182018.86    
     41700   303.09645     -58419.664     -58735.559      315.89457      7043.4338      182018.86    
     41800   302.66517     -58427.399     -58742.844      315.44507      6880.8018      182018.86    
     41900   297.83669     -58431.653     -58742.065      310.41271      6933.342       182018.86    
     42000   299.34412     -58429.765     -58741.749      311.98379      6893.5032      182018.86    
     42100   301.60828     -58426.546     -58740.89       314.34355      6933.4558      182018.86    
     42200   299.69906     -58424.806     -58737.159      312.35371      6963.1219      182018.86    
     42300   307.78509     -58418.909     -58739.69       320.78118      7001.7942      182018.86    
     42400   299.20156     -58421.983     -58733.818      311.83521      7018.4361      182018.86    
     42500   299.655       -58428.533     -58740.84       312.30779      6896.9355      182018.86    
     42600   299.1607      -58431.477     -58743.269      311.79263      6887.1075      182018.86    
     42700   301.24031     -58429.372     -58743.332      313.96004      6902.9628      182018.86    
     42800   296.36439     -58428.036     -58736.914      308.87825      6967.4722      182018.86    
     42900   302.39809     -58423.724     -58738.891      315.16671      6957.7017      182018.86    
     43000   304.92355     -58419.375     -58737.174      317.79881      6992.3964      182018.86    
     43100   305.53637     -58422.855     -58741.293      318.43751      6942.7011      182018.86    
     43200   294.1888      -58431.202     -58737.813      306.61079      6980.8231      182018.86    
     43300   299.27114     -58431.016     -58742.923      311.90772      6918.3992      182018.86    
     43400   300.05878     -58430.715     -58743.444      312.72862      6856.2199      182018.86    
     43500   303.64794     -58426.276     -58742.745      316.46934      6949.481       182018.86    
     43600   300.89206     -58424.134     -58737.731      313.59709      7036.8088      182018.86    
     43700   297.53875     -58426.785     -58736.887      310.10219      6990.2087      182018.86    
     43800   296.04215     -58434.017     -58742.559      308.5424       6872.2746      182018.86    
     43900   298.3857      -58434.659     -58745.644      310.9849       6828.0788      182018.86    
     44000   299.95811     -58431.247     -58743.871      312.6237       6867.8826      182018.86    
     44100   296.90527     -58430.104     -58739.546      309.44197      6953.6294      182018.86    
     44200   303.05731     -58427.18      -58743.034      315.85377      6936.2583      182018.86    
     44300   298.73627     -58426.188     -58737.538      311.35028      6976.4718      182018.86    
     44400   303.03083     -58420.126     -58735.952      315.82617      7011.1492      182018.86    
     44500   307.86098     -58416.656     -58737.516      320.86027      7018.0879      182018.86    
     44600   301.8102      -58423.391     -58737.945      314.554        6944.623       182018.86    
     44700   300.25609     -58426.563     -58739.497      312.93426      6959.6289      182018.86    
     44800   299.30574     -58429.294     -58741.238      311.94379      6925.3643      182018.86    
     44900   297.87804     -58432.317     -58742.773      310.45581      6847.6664      182018.86    
     45000   297.75029     -58432.521     -58742.844      310.32266      6906.7369      182018.86    
     45100   299.22846     -58425.473     -58737.336      311.86325      6923.2837      182018.86    
     45200   301.78108     -58421.808     -58736.332      314.52365      6959.1532      182018.86    
     45300   304.11191     -58423.731     -58740.684      316.9529       6968.3318      182018.86    
     45400   299.38671     -58429.748     -58741.776      312.02818      6910.577       182018.86    
     45500   297.95494     -58429.997     -58740.533      310.53595      6929.4012      182018.86    
     45600   301.32036     -58428.056     -58742.1        314.04348      6925.0201      182018.86    
     45700   297.68587     -58427.753     -58738.008      310.25552      6943.4677      182018.86    
     45800   302.01866     -58423.529     -58738.3        314.77126      6997.364       182018.86    
     45900   305.54373     -58420.163     -58738.608      318.44518      7013.4359      182018.86    
     46000   297.5183      -58424.44      -58734.521      310.08087      7016.0529      182018.86    
     46100   302.033       -58429.417     -58744.204      314.7862       6885.3995      182018.86    
     46200   296.72724     -58432.431     -58741.688      309.25642      6915.7669      182018.86    
     46300   297.31316     -58430.976     -58740.843      309.86707      6884.1905      182018.86    
     46400   298.08449     -58427.608     -58738.279      310.67097      7011.4891      182018.86    
     46500   302.73283     -58425.031     -58740.547      315.51559      6915.8323      182018.86    
     46600   300.37021     -58426.261     -58739.315      313.0532       6936.4793      182018.86    
     46700   302.17547     -58426.819     -58741.753      314.93469      6940.0194      182018.86    
     46800   297.68127     -58427.927     -58738.178      310.25072      6983.7262      182018.86    
     46900   300.16057     -58428.075     -58740.91       312.83472      6912.9251      182018.86    
     47000   298.97106     -58430.879     -58742.474      311.59497      6897.9861      182018.86    
     47100   296.37397     -58434.049     -58742.937      308.88823      6825.014       182018.86    
     47200   300.88957     -58430.897     -58744.492      313.5945       6886.5752      182018.86    
     47300   298.09142     -58424.388     -58735.066      310.6782       6955.1981      182018.86    
     47400   304.62393     -58420.81      -58738.296      317.48653      6978.7472      182018.86    
     47500   301.9547      -58424.98      -58739.684      314.7046       6974.714       182018.86    
     47600   299.79247     -58429.12      -58741.571      312.45107      6896.185       182018.86    
     47700   300.10481     -58430.078     -58742.855      312.7766       6890.6329      182018.86    
     47800   298.51131     -58428.495     -58739.611      311.11582      6936.5384      182018.86    
     47900   303.79469     -58422.577     -58739.199      316.62229      7040.1753      182018.86    
     48000   305.72533     -58416.822     -58735.457      318.63444      7051.1073      182018.86    
     48100   306.14446     -58413.074     -58732.146      319.07127      7166.0958      182018.86    
     48200   304.7876      -58420.786     -58738.443      317.65712      7030.9873      182018.86    
     48300   300.61549     -58426.644     -58739.953      313.30884      6959.9166      182018.86    
     48400   295.86374     -58430.684     -58739.041      308.35646      6936.1697      182018.86    
     48500   300.57423     -58428.897     -58742.163      313.26584      6894.0908      182018.86    
     48600   301.74266     -58426.781     -58741.264      314.48361      6930.3175      182018.86    
     48700   298.96975     -58427.746     -58739.339      311.59361      6918.628       182018.86    
     48800   298.55992     -58427.94      -58739.107      311.16647      6980.7368      182018.86    
     48900   303.43449     -58426.777     -58743.024      316.24687      6916.0206      182018.86    
     49000   298.86654     -58429.223     -58740.709      311.48604      6906.2094      182018.86    
     49100   298.04106     -58432.475     -58743.101      310.62571      6941.5834      182018.86    
     49200   297.2068      -58433.56      -58743.317      309.75622      6871.1456      182018.86    
     49300   298.46428     -58427.751     -58738.818      311.0668       7003.2465      182018.86    
     49400   300.29394     -58423.128     -58736.102      312.97371      7006.4137      182018.86    
     49500   302.24127     -58423.765     -58738.768      315.00327      6971.8088      182018.86    
     49600   301.0924      -58428.373     -58742.179      313.80589      6922.0862      182018.86    
     49700   296.87593     -58431.761     -58741.172      309.41138      6907.8268      182018.86    
     49800   297.12265     -58431.539     -58741.207      309.66852      6924.946       182018.86    
     49900   303.61626     -58429.531     -58745.967      316.43632      6804.2269      182018.86    
     50000   302.58463     -58427.952     -58743.314      315.36113      6866.1709      182018.86    
     50100   294.6652      -58426.986     -58734.093      307.1073       7034.2116      182018.86    
     50200   302.74602     -58422.799     -58738.329      315.52934      6977.583       182018.86    
     50300   301.54921     -58423.874     -58738.156      314.28199      7002.9323      182018.86    
     50400   300.83629     -58430.883     -58744.422      313.53897      6857.1761      182018.86    
     50500   299.01024     -58433.484     -58745.12       311.63582      6907.7722      182018.86    
     50600   296.25855     -58431.477     -58740.245      308.76793      6884.7427      182018.86    
     50700   302.31941     -58425.295     -58740.379      315.08471      6975.5483      182018.86    
     50800   298.81213     -58425.802     -58737.232      311.42934      6992.0618      182018.86    
     50900   302.6428      -58426.267     -58741.689      315.42175      6924.4725      182018.86    
     51000   296.71907     -58430.604     -58739.852      309.2479       6961.8662      182018.86    
     51100   298.76107     -58433.044     -58744.42       311.37612      6809.0378      182018.86    
     51200   300.91834     -58432.712     -58746.336      313.62448      6883.1193      182018.86    
     51300   296.35051     -58428.194     -58737.058      308.86377      6983.8077      182018.86    
     51400   302.30483     -58422.554     -58737.624      315.06951      6997.8873      182018.86    
     51500   303.46959     -58424.446     -58740.729      316.28346      6931.2491      182018.86    
     51600   298.37411     -58429.347     -58740.32       310.97282      6889.3866      182018.86    
     51700   299.93647     -58429.868     -58742.469      312.60115      6889.986       182018.86    
     51800   299.26231     -58429.932     -58741.831      311.89853      6912.4473      182018.86    
     51900   301.59221     -58427.114     -58741.441      314.32681      6979.662       182018.86    
     52000   302.98177     -58421.86      -58737.635      315.77504      6999.5243      182018.86    
     52100   300.22968     -58421.155     -58734.062      312.90675      7078.8196      182018.86    
     52200   304.00502     -58427.048     -58743.889      316.8415       6965.2265      182018.86    
     52300   295.43851     -58430.403     -58738.316      307.91327      6971.2805      182018.86    
     52400   305.58577     -58427.01      -58745.499      318.48899      6892.5574      182018.86    
     52500   296.76574     -58429.322     -58738.618      309.29653      6928.3299      182018.86    
     52600   303.30041     -58427.694     -58743.801      316.10713      6879.6931      182018.86    
     52700   299.76795     -58425.887     -58738.313      312.42552      6967.5925      182018.86    
     52800   305.31109     -58421.84      -58740.043      318.20271      6983.148       182018.86    
     52900   299.50875     -58423.634     -58735.789      312.15537      7011.9921      182018.86    
     53000   299.25667     -58429.047     -58740.939      311.89265      7018.0401      182018.86    
     53100   297.2219      -58432.282     -58742.054      309.77196      6901.5125      182018.86    
     53200   300.56007     -58430.577     -58743.828      313.25108      6835.8994      182018.86    
     53300   298.4187      -58428.644     -58739.663      311.01929      6947.567       182018.86    
     53400   296.76172     -58427.846     -58737.138      309.29235      6997.0784      182018.86    
     53500   303.03462     -58425.787     -58741.617      315.83012      6959.7772      182018.86    
     53600   303.44808     -58424.132     -58740.393      316.26104      7008.5082      182018.86    
     53700   300.39856     -58424.465     -58737.548      313.08275      6993.879       182018.86    
     53800   296.77682     -58429.421     -58738.73       309.30808      7049.191       182018.86    
     53900   298.4226      -58432.048     -58743.071      311.02336      6916.3364      182018.86    
     54000   299.81371     -58430.464     -58742.938      312.47321      6880.6661      182018.86    
     54100   304.70295     -58423.817     -58741.386      317.5689       7052.2942      182018.86    
     54200   301.35933     -58422.843     -58736.927      314.0841       7018.4223      182018.86    
     54300   301.41467     -58424.785     -58738.926      314.14177      7036.2771      182018.86    
     54400   298.62549     -58426.337     -58737.572      311.23481      6962.5373      182018.86    
     54500   299.63275     -58427.084     -58739.368      312.28461      6993.0049      182018.86    
     54600   298.94317     -58430.703     -58742.269      311.56591      6893.878       182018.86    
     54700   299.29275     -58432.62      -58744.55       311.93025      6893.9075      182018.86    
     54800   298.84145     -58428.154     -58739.614      311.45989      6982.1578      182018.86    
     54900   299.98097     -58420.535     -58733.182      312.64754      7170.4291      182018.86    
     55000   303.58974     -58422.849     -58739.258      316.40868      6996.5062      182018.86    
     55100   301.51774     -58426.974     -58741.223      314.24919      6949.7937      182018.86    
     55200   300.77925     -58428.679     -58742.159      313.47952      6982.5548      182018.86    
     55300   294.60581     -58432.604     -58739.65       307.04541      6938.3137      182018.86    
     55400   296.18287     -58435.384     -58744.073      308.68906      6906.8755      182018.86    
     55500   299.68981     -58433.833     -58746.177      312.34408      6852.8962      182018.86    
     55600   301.72258     -58426.61      -58741.072      314.46268      6962.6092      182018.86    
     55700   298.71621     -58424.844     -58736.173      311.32937      7059.8228      182018.86    
     55800   300.86191     -58423.844     -58737.41       313.56567      7018.7733      182018.86    
     55900   299.29454     -58426.902     -58738.834      311.93212      6995.1864      182018.86    
     56000   300.2331      -58432.899     -58745.81       312.91031      6814.2684      182018.86    
     56100   300.37552     -58433.11      -58746.169      313.05874      6798.5294      182018.86    
     56200   296.94405     -58430.472     -58739.954      309.48237      6956.4422      182018.86    
     56300   297.7571      -58427.894     -58738.224      310.32976      6965.3604      182018.86    
     56400   301.56306     -58426.67      -58740.966      314.29642      6961.5534      182018.86    
     56500   298.78961     -58427.977     -58739.383      311.40587      6884.2401      182018.86    
     56600   301.77056     -58428.037     -58742.55       314.51268      6955.0316      182018.86    
     56700   299.07703     -58428.147     -58739.852      311.70542      6998.4812      182018.86    
     56800   300.89901     -58426.501     -58740.105      313.60434      6978.2902      182018.86    
     56900   299.52372     -58426.25      -58738.421      312.17097      6975.7768      182018.86    
     57000   299.22202     -58429.049     -58740.906      311.85654      6917.4272      182018.86    
     57100   297.62462     -58432.452     -58742.644      310.19168      6864.5878      182018.86    
     57200   299.64034     -58433.939     -58746.232      312.29251      6847.9928      182018.86    
     57300   296.92413     -58431.705     -58741.166      309.46162      6909.7706      182018.86    
     57400   301.22151     -58425.597     -58739.537      313.94045      7002.8087      182018.86    
     57500   300.33391     -58424.949     -58737.965      313.01537      6982.2019      182018.86    
     57600   306.58727     -58423.923     -58743.456      319.53278      6925.1245      182018.86    
     57700   296.51364     -58429.45      -58738.484      309.03379      6940.7962      182018.86    
     57800   298.73544     -58432.754     -58744.104      311.34941      6911.7088      182018.86    
     57900   296.06053     -58433.597     -58742.158      308.56156      6889.121       182018.86    
     58000   300.57361     -58426.068     -58739.333      313.26519      6954.9976      182018.86    
     58100   301.61335     -58423.687     -58738.035      314.34884      7025.116       182018.86    
     58200   301.05701     -58426.711     -58740.48       313.76901      6959.9826      182018.86    
     58300   296.31584     -58431.182     -58740.009      308.82765      6903.9442      182018.86    
     58400   297.60736     -58432.353     -58742.526      310.1737       6891.1068      182018.86    
     58500   301.7336      -58429.124     -58743.599      314.47416      6857.6235      182018.86    
     58600   302.70485     -58422.522     -58738.009      315.48642      7084.4944      182018.86    
     58700   301.9833      -58422.548     -58737.283      314.73441      7057.1178      182018.86    
     58800   297.59281     -58426.862     -58737.021      310.15853      6967.5245      182018.86    
     58900   300.00133     -58429.612     -58742.281      312.66875      6951.9954      182018.86    
     59000   299.32694     -58429.956     -58741.922      311.96589      6842.0026      182018.86    
     59100   299.85492     -58428.464     -58740.98       312.51615      6958.9911      182018.86    
     59200   300.14994     -58426.053     -58738.876      312.82364      6980.993       182018.86    
     59300   301.07164     -58421.567     -58735.352      313.78425      7054.0918      182018.86    
     59400   305.894       -58417.314     -58736.124      318.81024      7096.6548      182018.86    
     59500   301.02598     -58424.333     -58738.069      313.73667      7039.7712      182018.86    
     59600   302.45366     -58428.638     -58743.863      315.22463      6937.7849      182018.86    
     59700   299.13539     -58430.84      -58742.606      311.76625      6920.4317      182018.86    
     59800   297.44154     -58429.363     -58739.364      310.00088      6962.5779      182018.86    
     59900   300.06406     -58424.204     -58736.938      312.73413      7042.309       182018.86    
     60000   306.47785     -58420.803     -58740.222      319.41874      6993.7474      182018.86    
     60100   302.21494     -58424.674     -58739.65       314.97583      6980.5492      182018.86    
     60200   298.81041     -58432.774     -58744.202      311.42755      6890.8731      182018.86    
     60300   296.87123     -58433.24      -58742.647      309.40648      6884.9914      182018.86    
     60400   299.04752     -58429.424     -58741.099      311.67466      6991.3745      182018.86    
     60500   299.03318     -58425.178     -58736.838      311.65972      7059.284       182018.86    
     60600   306.20938     -58421.681     -58740.82       319.13894      6991.4508      182018.86    
     60700   300.2704      -58425.414     -58738.364      312.94918      7007.7888      182018.86    
     60800   296.21101     -58431.848     -58740.566      308.71839      6912.7114      182018.86    
     60900   298.89518     -58431.84      -58743.356      311.51589      6873.6849      182018.86    
     61000   298.20303     -58429.896     -58740.691      310.79452      6915.1899      182018.86    
     61100   303.53597     -58425.826     -58742.179      316.35264      6893.5517      182018.86    
     61200   302.11724     -58422.821     -58737.695      314.87401      7048.3696      182018.86    
     61300   301.34409     -58419.722     -58733.79       314.06821      7043.372       182018.86    
     61400   300.63497     -58426.047     -58739.376      313.32914      6979.6568      182018.86    
     61500   300.06079     -58431.19      -58743.92       312.73072      6868.879       182018.86    
     61600   298.1013      -58431.849     -58742.537      310.68849      6967.2127      182018.86    
     61700   300.98377     -58428.475     -58742.168      313.69268      6916.7123      182018.86    
     61800   304.20339     -58423.437     -58740.486      317.04824      6990.7737      182018.86    
     61900   302.75135     -58421.901     -58737.435      315.53489      7012.0386      182018.86    
     62000   294.70786     -58429.814     -58736.965      307.15176      6937.7641      182018.86    
     62100   299.45056     -58431.243     -58743.337      312.09472      6861.9982      182018.86    
     62200   299.48364     -58430.212     -58742.341      312.1292       6873.7749      182018.86    
     62300   302.56259     -58425.879     -58741.217      315.33816      6933.5244      182018.86    
     62400   300.45021     -58423.297     -58736.434      313.13658      7009.3561      182018.86    
     62500   300.82527     -58422.774     -58736.301      313.52749      6969.9177      182018.86    
     62600   296.65461     -58426.745     -58735.925      309.18071      7020.5337      182018.86    
     62700   301.52113     -58430.609     -58744.861      314.25272      6839.9676      182018.86    
     62800   301.66455     -58431.832     -58746.234      314.4022       6833.6647      182018.86    
     62900   299.31531     -58430.02      -58741.973      311.95377      6935.733       182018.86    
     63000   296.78686     -58424.125     -58733.444      309.31855      7116.7436      182018.86    
     63100   303.91051     -58421.638     -58738.381      316.74299      7000.0912      182018.86    
     63200   304.16577     -58423.244     -58740.253      317.00903      6989.2972      182018.86    
     63300   302.15356     -58426.878     -58741.79       314.91186      6913.8465      182018.86    
     63400   294.91333     -58429.871     -58737.237      307.36592      7013.9938      182018.86    
     63500   300.30583     -58428.269     -58741.255      312.9861       6997.1545      182018.86    
     63600   300.26116     -58428.163     -58741.103      312.93955      6911.8699      182018.86    
     63700   306.97224     -58425.025     -58744.959      319.93401      6917.1721      182018.86    
     63800   303.08864     -58420.646     -58736.532      315.88642      7044.3857      182018.86    
     63900   301.47986     -58420.881     -58735.091      314.20971      7048.6552      182018.86    
     64000   300.35888     -58427.697     -58740.739      313.0414       6993.9102      182018.86    
     64100   294.88999     -58431.908     -58739.25       307.34158      6915.9789      182018.86    
     64200   304.0386      -58429.627     -58746.504      316.87649      6826.1251      182018.86    
     64300   298.93049     -58428.485     -58740.037      311.5527       6899.3673      182018.86    
     64400   301.27308     -58422.258     -58736.252      313.9942       7040.9035      182018.86    
     64500   302.19504     -58421.143     -58736.098      314.95508      7033.8977      182018.86    
     64600   301.7995      -58424.793     -58739.336      314.54285      6968.4271      182018.86    
     64700   303.0143      -58426.241     -58742.05       315.80894      6933.7594      182018.86    
     64800   298.9705      -58427.954     -58739.548      311.59439      6912.7517      182018.86    
     64900   299.02272     -58428.827     -58740.476      311.64882      6984.8631      182018.86    
     65000   296.24878     -58432.645     -58741.403      308.75775      6876.2437      182018.86    
     65100   296.36056     -58435.536     -58744.41       308.87425      6844.9997      182018.86    
     65200   301.08468     -58431.527     -58745.325      313.79784      6843.8283      182018.86    
     65300   300.46733     -58424.74      -58737.894      313.15443      6951.5823      182018.86    
     65400   303.83631     -58424.099     -58740.764      316.66566      7055.9899      182018.86    
     65500   294.99431     -58428.641     -58736.092      307.45032      7008.081       182018.86    
     65600   298.51934     -58428.458     -58739.582      311.12419      6958.7304      182018.86    
     65700   301.6909      -58428         -58742.43       314.42966      6933.8097      182018.86    
     65800   297.51103     -58431.689     -58741.762      310.0733       6867.8708      182018.86    
     65900   299.41571     -58431.992     -58744.05       312.0584       6915.6932      182018.86    
     66000   296.37846     -58430.157     -58739.05       308.89291      6899.3204      182018.86    
     66100   302.66089     -58424.945     -58740.385      315.44061      6998.8701      182018.86    
     66200   303.44236     -58423.527     -58739.782      316.25508      6964.3691      182018.86    
     66300   299.37262     -58426.531     -58738.544      312.0135       7036.6809      182018.86    
     66400   300.16915     -58432.992     -58745.835      312.84366      6868.1539      182018.86    
     66500   294.62085     -58436.573     -58743.634      307.06109      6848.4241      182018.86    
     66600   297.8681      -58432.151     -58742.596      310.44545      6906.5982      182018.86    
     66700   302.06132     -58428.162     -58742.978      314.81572      6932.6302      182018.86    
     66800   298.81147     -58428.269     -58739.698      311.42865      6897.9106      182018.86    
     66900   299.17621     -58427.607     -58739.416      311.80879      6940.124       182018.86    
     67000   302.18878     -58424.317     -58739.265      314.94857      6999.242       182018.86    
     67100   301.36486     -58421.64      -58735.73       314.08986      7030.51        182018.86    
     67200   302.37004     -58424.146     -58739.283      315.13748      6929.9735      182018.86    
     67300   300.3074      -58430.51      -58743.498      312.98775      6899.4235      182018.86    
     67400   295.67936     -58433.112     -58741.277      308.16429      6912.4569      182018.86    
     67500   300.34707     -58430.227     -58743.256      313.02909      6891.5219      182018.86    
     67600   299.51985     -58426.724     -58738.891      312.16695      7005.837       182018.86    
     67700   299.14658     -58425.819     -58737.597      311.77791      7008.9665      182018.86    
     67800   301.31076     -58426.128     -58740.161      314.03347      6933.2869      182018.86    
     67900   304.0038      -58427.973     -58744.813      316.84022      6901.8653      182018.86    
     68000   292.03127     -58433.093     -58737.455      304.36216      6966.0934      182018.86    
     68100   297.95309     -58430.981     -58741.515      310.53402      6941.2567      182018.86    
     68200   299.17865     -58426.581     -58738.392      311.81134      6959.0624      182018.86    
     68300   304.62171     -58421.925     -58739.409      317.48423      6992.0563      182018.86    
     68400   303.48006     -58423.607     -58739.901      316.29437      6948.4335      182018.86    
     68500   299.88987     -58426.916     -58739.469      312.55259      6929.1739      182018.86    
     68600   295.32812     -58431.869     -58739.668      307.79822      6986.8305      182018.86    
     68700   299.12261     -58432.537     -58744.29       311.75292      6815.7973      182018.86    
     68800   300.06771     -58428.381     -58741.119      312.73793      6889.9545      182018.86    
     68900   304.43251     -58423.262     -58740.549      317.28704      6917.752       182018.86    
     69000   301.25797     -58424.664     -58738.642      313.97845      6960.7425      182018.86    
     69100   299.41867     -58426.707     -58738.768      312.06149      6958.0632      182018.86    
     69200   297.51466     -58429.752     -58739.829      310.07708      6971.086       182018.86    
     69300   299.60033     -58433.802     -58746.053      312.25082      6806.8338      182018.86    
     69400   296.34929     -58439.405     -58748.268      308.8625       6723.5216      182018.86    
     69500   299.40189     -58435.567     -58747.611      312.044        6831.7916      182018.86    
     69600   298.75295     -58429.747     -58741.115      311.36766      6896.8736      182018.86    
     69700   297.10468     -58427.934     -58737.584      309.6498       6934.8199      182018.86    
     69800   301.32634     -58425.16      -58739.209      314.04971      6970.7882      182018.86    
     69900   302.80443     -58424.501     -58740.092      315.59021      6961.0182      182018.86    
     70000   298.94981     -58429.477     -58741.05       311.57283      6920.9374      182018.86    
     70100   299.3895      -58433.07      -58745.102      312.03109      6881.8821      182018.86    
     70200   296.61237     -58433.261     -58742.398      309.13669      6892.2831      182018.86    
     70300   300.55582     -58425.602     -58738.849      313.24665      7048.8364      182018.86    
     70400   303.30535     -58423.197     -58739.31       316.11228      7005.8156      182018.86    
     70500   301.51287     -58425.868     -58740.112      314.24412      6977.0549      182018.86    
     70600   298.5317      -58430.29      -58741.427      311.13706      6896.4106      182018.86    
     70700   299.94633     -58431.933     -58744.544      312.61143      6874.6152      182018.86    
     70800   298.97867     -58427.401     -58739.004      311.60291      6924.527       182018.86    
     70900   303.16191     -58421.34      -58737.303      315.96279      7030.2204      182018.86    
     71000   303.86438     -58421.293     -58737.988      316.69492      7050.8146      182018.86    
     71100   300.49911     -58427.82      -58741.007      313.18755      6971.1101      182018.86    
     71200   301.04678     -58430.865     -58744.624      313.75834      6917.9972      182018.86    
     71300   299.32705     -58429.869     -58741.835      311.966        6986.7031      182018.86    
     71400   296.31647     -58427.555     -58736.384      308.8283       6995.7184      182018.86    
     71500   306.00073     -58421.796     -58740.718      318.92147      7022.1723      182018.86    
     71600   303.53598     -58419.836     -58736.189      316.35265      7022.2621      182018.86    
     71700   299.11716     -58428.518     -58740.265      311.74725      6981.5514      182018.86    
     71800   297.75233     -58431.289     -58741.614      310.32478      6944.8562      182018.86    
     71900   298.1051      -58429.073     -58739.766      310.69245      6936.9131      182018.86    
     72000   301.545       -58424.948     -58739.226      314.2776       6978.0963      182018.86    
     72100   304.21151     -58423.421     -58740.478      317.05671      6992.6475      182018.86    
     72200   294.22957     -58429.39      -58736.043      306.65328      6932.9416      182018.86    
     72300   300.15968     -58432.645     -58745.478      312.83379      6841.6575      182018.86    
     72400   295.36149     -58434.128     -58741.961      307.83299      6900.8174      182018.86    
     72500   304.22384     -58425.936     -58743.006      317.06955      6885.9587      182018.86    
     72600   299.25084     -58423.877     -58735.763      311.88657      6992.3695      182018.86    
     72700   299.85047     -58424.61      -58737.121      312.51152      6974.4436      182018.86    
     72800   300.8609      -58428.558     -58742.123      313.56462      6903.5879      182018.86    
     72900   298.62437     -58434.033     -58745.267      311.23365      6836.1427      182018.86    
     73000   297.22452     -58433.763     -58743.538      309.7747       6852.0506      182018.86    
     73100   294.83023     -58431.788     -58739.067      307.27931      6946.7898      182018.86    
     73200   301.34686     -58427.966     -58742.038      314.0711       6920.957       182018.86    
     73300   300.6949      -58426.39      -58739.781      313.3916       6943.3035      182018.86    
     73400   304.1158      -58423.789     -58740.746      316.95695      6970.8009      182018.86    
     73500   301.75752     -58422.554     -58737.053      314.49909      7006.4841      182018.86    
     73600   300.79663     -58425.807     -58739.305      313.49763      7023.1542      182018.86    
     73700   297.62221     -58431.855     -58742.044      310.18918      6896.4205      182018.86    
     73800   297.70616     -58432.979     -58743.255      310.27667      6853.3624      182018.86    
     73900   300.98187     -58428.8       -58742.491      313.69069      6890.2124      182018.86    
     74000   299.08315     -58426.377     -58738.089      311.7118       7000.6065      182018.86    
     74100   299.79519     -58425.074     -58737.527      312.45391      6954.4314      182018.86    
     74200   302.05284     -58426.345     -58741.152      314.80689      6923.3177      182018.86    
     74300   298.40571     -58428.139     -58739.145      311.00575      6956.2169      182018.86    
     74400   302.0378      -58427.372     -58742.163      314.79121      6909.5612      182018.86    
     74500   296.93707     -58429.426     -58738.901      309.4751       6902.3246      182018.86    
     74600   298.58445     -58433.215     -58744.407      311.19204      6905.3064      182018.86    
     74700   297.97613     -58435.137     -58745.695      310.55804      6800.2309      182018.86    
     74800   301.68773     -58429.765     -58744.191      314.42636      6881.4886      182018.86    
     74900   295.14858     -58425.479     -58733.09       307.61109      7063.9265      182018.86    
     75000   302.89238     -58423.228     -58738.909      315.68187      7007.4722      182018.86    
     75100   302.5436      -58426.258     -58741.577      315.31836      6929.2907      182018.86    
     75200   297.57202     -58430.243     -58740.38       310.13686      6909.4602      182018.86    
     75300   299.55766     -58429.857     -58742.063      312.20635      6902.7339      182018.86    
     75400   301.51446     -58428.595     -58742.841      314.24578      6885.5238      182018.86    
[...]
    181800   297.95935     -58430.481     -58741.021      310.54054      6933.6977      182018.86    
    181900   299.94003     -58432.023     -58744.628      312.60486      6817.0325      182018.86    
    182000   294.8367      -58435.925     -58743.211      307.28605      6865.33        182018.86    
    182100   299.06611     -58433.179     -58744.873      311.69404      6844.1178      182018.86    
    182200   299.13399     -58426.605     -58738.37       311.76479      7000.4711      182018.86    
    182300   302.69442     -58424.336     -58739.811      315.47556      6977.2562      182018.86    
    182400   299.81103     -58426.704     -58739.175      312.47042      6917.4694      182018.86    
    182500   299.73719     -58429.093     -58741.487      312.39346      6958.4535      182018.86    
    182600   298.72211     -58434.427     -58745.762      311.33551      6840.249       182018.86    
    182700   293.80072     -58438.876     -58745.083      306.20632      6819.1067      182018.86    
    182800   296.35625     -58433.239     -58742.109      308.86976      6914.9821      182018.86    
    182900   302.2268      -58429.79      -58744.778      314.98819      6895.6855      182018.86    
    183000   297.95109     -58429.285     -58739.817      310.53194      6944.1951      182018.86    
    183100   298.56649     -58426.347     -58737.521      311.17333      6989.1885      182018.86    
    183200   304.03383     -58422.553     -58739.425      316.87152      6950.2557      182018.86    
    183300   300.41357     -58423.8       -58736.898      313.09839      6992.1454      182018.86    
    183400   297.41593     -58430.383     -58740.358      309.97418      6920.6003      182018.86    
    183500   299.22795     -58433.741     -58745.604      311.86271      6847.0885      182018.86    
    183600   298.90509     -58432.383     -58743.909      311.52622      6904.0024      182018.86    
    183700   299.91014     -58426.906     -58739.48       312.57371      6907.0202      182018.86    
    183800   303.59961     -58424.461     -58740.88       316.41896      6919.0417      182018.86    
    183900   300.91278     -58425.259     -58738.878      313.61868      6985.2813      182018.86    
    184000   301.08187     -58427.712     -58741.507      313.79491      6933.2285      182018.86    
    184100   299.06634     -58430.798     -58742.493      311.69428      6858.4509      182018.86    
    184200   298.36564     -58429.959     -58740.923      310.96399      6952.0561      182018.86    
    184300   303.56054     -58422.837     -58739.215      316.37824      6988.2904      182018.86    
    184400   299.81814     -58420.661     -58733.139      312.47783      7042.5421      182018.86    
    184500   303.05734     -58422.411     -58738.265      315.8538       7022.5904      182018.86    
    184600   300.31185     -58429.127     -58742.119      312.99238      6875.6023      182018.86    
    184700   301.97089     -58429.687     -58744.408      314.72147      6894.9159      182018.86    
    184800   297.77391     -58429.187     -58739.534      310.34728      6959.7766      182018.86    
    184900   300.77946     -58424.832     -58738.312      313.47974      6989.9453      182018.86    
    185000   306.10011     -58420.812     -58739.837      319.02504      6962.4001      182018.86    
    185100   300.02596     -58423.946     -58736.64       312.69442      6964.5624      182018.86    
    185200   297.95928     -58430.276     -58740.816      310.54047      6928.544       182018.86    
    185300   299.34941     -58433.313     -58745.302      311.9893       6855.5525      182018.86    
    185400   297.34283     -58433.185     -58743.083      309.898        6823.268       182018.86    
    185500   300.01828     -58427.356     -58740.042      312.68642      6968.193       182018.86    
    185600   300.2682      -58427.1       -58740.047      312.94689      6942.097       182018.86    
    185700   302.84349     -58426.877     -58742.508      315.63092      6951.313       182018.86    
    185800   296.14134     -58428.853     -58737.499      308.64577      6982.9155      182018.86    
    185900   298.92176     -58430.707     -58742.25       311.5436       6892.4158      182018.86    
    186000   300.65793     -58431.833     -58745.186      313.35308      6831.5127      182018.86    
    186100   299.47105     -58429.721     -58741.838      312.11608      6907.591       182018.86    
    186200   301.29053     -58424.3       -58738.313      314.01239      6973.2576      182018.86    
    186300   301.19214     -58421.902     -58735.812      313.90984      7072.0901      182018.86    
    186400   299.91233     -58425.779     -58738.355      312.576        6998.5805      182018.86    
    186500   301.84114     -58430.187     -58744.773      314.58624      6886.3987      182018.86    
    186600   298.81902     -58430.717     -58742.154      311.43652      6864.3395      182018.86    
    186700   299.64761     -58428.566     -58740.866      312.30009      6885.3856      182018.86    
    186800   300.92517     -58425.086     -58738.717      313.6316       6969.1468      182018.86    
    186900   303.67672     -58422.549     -58739.049      316.49933      6978.964       182018.86    
    187000   300.61131     -58426.803     -58740.108      313.30448      6907.4081      182018.86    
    187100   300.01442     -58432.626     -58745.308      312.6824       6854.1603      182018.86    
    187200   296.52634     -58433.972     -58743.019      309.04704      6843.6692      182018.86    
    187300   297.49792     -58428.6       -58738.659      310.05963      6970.0649      182018.86    
    187400   303.8908      -58424.819     -58741.542      316.72245      6907.0366      182018.86    
    187500   299.1971      -58426.168     -58737.998      311.83056      6960.1945      182018.86    
    187600   303.04833     -58426.472     -58742.316      315.84441      6881.7571      182018.86    
    187700   299.28167     -58431.758     -58743.676      311.9187       6872.9968      182018.86    
    187800   295.23065     -58436.172     -58743.869      307.69663      6796.012       182018.86    
    187900   295.13749     -58433.701     -58741.301      307.59954      6880.187       182018.86    
    188000   300.57831     -58428.122     -58741.392      313.27009      6815.2785      182018.86    
    188100   303.85323     -58426.193     -58742.876      316.68329      6866.1465      182018.86    
    188200   301.00306     -58426.168     -58739.881      313.71277      6921.8047      182018.86    
    188300   297.08632     -58427.973     -58737.604      309.63066      6981.8924      182018.86    
    188400   300.04937     -58430.654     -58743.373      312.71882      6875.4758      182018.86    
    188500   295.55915     -58435.136     -58743.175      308.039        6835.298       182018.86    
    188600   301.22287     -58432.928     -58746.87       313.94187      6808.4337      182018.86    
    188700   301.03117     -58425.291     -58739.033      313.74207      6928.0352      182018.86    
    188800   302.51609     -58423.366     -58738.656      315.2897       7006.8138      182018.86    
    188900   298.53845     -58426.202     -58737.346      311.1441       6971.5581      182018.86    
    189000   299.39121     -58429.302     -58741.335      312.03287      6954.5925      182018.86    
    189100   299.39963     -58434.564     -58746.606      312.04165      6781.4967      182018.86    
    189200   294.45212     -58438.762     -58745.647      306.88522      6779.6153      182018.86    
    189300   296.71222     -58434.708     -58743.949      309.24076      6940.2068      182018.86    
    189400   295.10833     -58431.052     -58738.621      307.56915      6912.4013      182018.86    
    189500   301.32637     -58427.109     -58741.159      314.04974      6892.5033      182018.86    
    189600   304.76939     -58424.494     -58742.132      317.63814      6850.9941      182018.86    
    189700   305.70424     -58423.572     -58742.184      318.61246      6927.4637      182018.86    
    189800   294.76212     -58431.32      -58738.529      307.20832      6929.4156      182018.86    
    189900   296.85868     -58432.724     -58742.117      309.3934       6895.0256      182018.86    
    190000   298.79513     -58431.052     -58742.463      311.41162      6961.931       182018.86    
    190100   305.74858     -58425.208     -58743.866      318.65867      6860.1254      182018.86    
    190200   301.43451     -58423.267     -58737.43       314.16245      6991.1996      182018.86    
    190300   297.66889     -58425.426     -58735.664      310.23782      6977.6078      182018.86    
    190400   299.51347     -58427.459     -58739.619      312.16029      6968.9688      182018.86    
    190500   300.06477     -58428.817     -58741.552      312.73487      6905.113       182018.86    
    190600   298.3397      -58430.451     -58741.388      310.93695      6870.7313      182018.86    
    190700   297.03445     -58434.891     -58744.468      309.5766       6853.1554      182018.86    
    190800   302.23998     -58433.59      -58748.592      315.00193      6811.1951      182018.86    
    190900   296.32751     -58428.996     -58737.836      308.8398       6959.7667      182018.86    
    191000   300.7919      -58423.539     -58737.031      313.49271      6994.3324      182018.86    
    191100   300.99782     -58424.275     -58737.982      313.70732      6937.8262      182018.86    
    191200   300.55481     -58427.625     -58740.871      313.2456       6960.984       182018.86    
    191300   299.27486     -58432.127     -58744.038      311.9116       6902.1989      182018.86    
    191400   293.45098     -58434.946     -58740.788      305.84182      6887.9651      182018.86    
    191500   304.32442     -58426.081     -58743.256      317.17438      6917.4647      182018.86    
    191600   299.14169     -58424.385     -58736.158      311.77281      6997.5068      182018.86    
    191700   302.99484     -58422.259     -58738.048      315.78866      6992.7571      182018.86    
    191800   302.5942      -58425.263     -58740.634      315.3711       6973.1216      182018.86    
    191900   300.0705      -58431.433     -58744.174      312.74084      6828.6188      182018.86    
    192000   296.61545     -58432.191     -58741.331      309.1399       6914.4614      182018.86    
    192100   300.34832     -58428.424     -58741.455      313.03039      6877.3897      182018.86    
    192200   301.78733     -58424.173     -58738.703      314.53016      6972.7629      182018.86    
    192300   304.18491     -58422.357     -58739.386      317.02898      6952.5685      182018.86    
    192400   297.2493      -58430.547     -58740.348      309.80051      6960.0967      182018.86    
    192500   298.05313     -58435.852     -58746.49       310.63829      6824.6755      182018.86    
    192600   299.86349     -58433.806     -58746.331      312.52509      6862.6452      182018.86    
    192700   301.36911     -58427.71      -58741.804      314.09429      6919.5541      182018.86    
    192800   299.44198     -58425.268     -58737.354      312.08578      6999.7836      182018.86    
    192900   302.10462     -58422.984     -58737.845      314.86085      7002.6089      182018.86    
    193000   302.22423     -58424.924     -58739.909      314.98551      6949.6405      182018.86    
    193100   300.98473     -58432.268     -58745.962      313.69367      6803.5693      182018.86    
    193200   296.86691     -58432.519     -58741.921      309.40198      6849.9687      182018.86    
    193300   299.64249     -58427.816     -58740.111      312.29476      6925.2933      182018.86    
    193400   301.25812     -58425.434     -58739.413      313.97861      7019.8384      182018.86    
    193500   299.11597     -58427.143     -58738.889      311.74601      7027.6263      182018.86    
    193600   300.34457     -58428.036     -58741.062      313.02648      6899.5108      182018.86    
    193700   303.05801     -58428.049     -58743.904      315.8545       6904.9194      182018.86    
    193800   297.68817     -58429.069     -58739.327      310.25792      6963.786       182018.86    
    193900   297.78349     -58428.515     -58738.872      310.35726      6954.136       182018.86    
    194000   304.66662     -58424.696     -58742.227      317.53103      6897.7901      182018.86    
    194100   301.9108      -58420.157     -58734.816      314.65885      7017.7035      182018.86    
    194200   305.87822     -58418.852     -58737.646      318.79379      7069.6695      182018.86    
    194300   299.8051      -58427.741     -58740.205      312.46424      6935.912       182018.86    
    194400   300.77558     -58429.501     -58742.976      313.47569      6882.9497      182018.86    
    194500   295.73409     -58430.893     -58739.114      308.22133      6967.8001      182018.86    
    194600   303.57714     -58426.926     -58743.322      316.39555      6906.9078      182018.86    
    194700   299.46202     -58424.292     -58736.399      312.10667      7006.8004      182018.86    
    194800   302.62826     -58421.597     -58737.004      315.4066       6993.26        182018.86    
    194900   304.40972     -58422.268     -58739.531      317.26328      6944.7744      182018.86    
    195000   299.82316     -58429.08      -58741.563      312.48306      6838.5599      182018.86    
    195100   297.59478     -58431.823     -58741.983      310.16058      6935.8122      182018.86    
    195200   299.05849     -58430.442     -58742.128      311.6861       6869.5868      182018.86    
    195300   299.35511     -58425.45      -58737.446      311.99524      6959.8366      182018.86    
    195400   305.60411     -58420.34      -58738.848      318.50811      6996.5239      182018.86    
    195500   300.74958     -58422.729     -58736.178      313.4486       7014.8073      182018.86    
    195600   300.80771     -58426.439     -58739.948      313.50918      6924.0743      182018.86    
    195700   301.6632      -58429.6       -58744.001      314.40079      6906.3427      182018.86    
    195800   294.81106     -58430.857     -58738.116      307.25933      6920.3261      182018.86    
    195900   303.46426     -58428.163     -58744.441      316.2779       6876.0313      182018.86    
    196000   300.60118     -58427.803     -58741.097      313.29393      6938.0092      182018.86    
    196100   298.08233     -58427.036     -58737.704      310.66873      6982.5862      182018.86    
    196200   303.20452     -58425.611     -58741.619      316.0072       6907.6558      182018.86    
    196300   296.91031     -58431.472     -58740.919      309.44721      6895.3795      182018.86    
    196400   298.80548     -58433.491     -58744.913      311.42241      6831.78        182018.86    
    196500   298.43534     -58430.625     -58741.662      311.03664      6853.0383      182018.86    
    196600   301.03301     -58425.861     -58739.605      313.74399      7008.5672      182018.86    
    196700   301.31332     -58423.79      -58737.826      314.03614      6998.8724      182018.86    
    196800   302.55735     -58425.06      -58740.393      315.33269      6969.0827      182018.86    
    196900   298.55408     -58432.552     -58743.713      311.16039      6871.9351      182018.86    
    197000   294.24064     -58433.069     -58739.734      306.66482      6918.6027      182018.86    
    197100   301.64106     -58428.508     -58742.885      314.37772      6896.5379      182018.86    
    197200   300.43631     -58426.663     -58739.785      313.1221       6982.8308      182018.86    
    197300   301.61514     -58425.427     -58739.778      314.35071      6918.5899      182018.86    
    197400   302.32131     -58426.045     -58741.131      315.0867       6973.543       182018.86    
    197500   296.68278     -58428.113     -58737.323      309.21008      6949.1889      182018.86    
    197600   301.01577     -58427.918     -58741.644      313.72602      6947.3032      182018.86    
    197700   301.3174      -58427.986     -58742.026      314.0404       6881.2681      182018.86    
    197800   298.46096     -58427.524     -58738.587      311.06334      7032.9483      182018.86    
    197900   304.12554     -58424.497     -58741.464      316.9671       6899.7049      182018.86    
    198000   299.44001     -58425.574     -58737.658      312.08373      6918.0118      182018.86    
    198100   301.93139     -58428.716     -58743.397      314.68031      6841.9855      182018.86    
    198200   294.62377     -58434.67      -58741.735      307.06413      6884.9238      182018.86    
    198300   295.34616     -58434.493     -58742.31       307.81702      6865.1582      182018.86    
    198400   303.13368     -58429.168     -58745.101      315.93337      6846.8095      182018.86    
    198500   299.50367     -58427.913     -58740.063      312.15007      6956.7077      182018.86    
    198600   298.25688     -58425.999     -58736.85       310.85064      6958.9475      182018.86    
    198700   301.42159     -58424.384     -58738.533      314.14899      6978.7377      182018.86    
    198800   301.56358     -58428.22      -58742.517      314.29696      6907.5569      182018.86    
    198900   295.58571     -58433.611     -58741.677      308.06668      6819.5506      182018.86    
    199000   298.60342     -58431.635     -58742.847      311.21182      6875.6434      182018.86    
    199100   297.04985     -58428.758     -58738.35       309.59265      6927.407       182018.86    
    199200   304.70498     -58421.688     -58739.259      317.57101      6950.5258      182018.86    
    199300   304.19231     -58419.61      -58736.647      317.03669      7033.7703      182018.86    
    199400   301.92586     -58423.383     -58738.058      314.67454      7023.2156      182018.86    
    199500   299.37502     -58427.8       -58739.816      312.01599      6954.8002      182018.86    
    199600   298.33082     -58430.451     -58741.379      310.9277       6910.9518      182018.86    
    199700   302.00963     -58430.601     -58745.363      314.76185      6864.5424      182018.86    
    199800   296.10075     -58430.77      -58739.373      308.60347      6894.4419      182018.86    
    199900   301.39486     -58425.1       -58739.221      314.12112      6969.0944      182018.86    
    200000   302.65625     -58422.153     -58737.589      315.43578      7020.7397      182018.86    
Loop time of 26398.6 on 20 procs for 200000 steps with 8064 atoms

Performance: 0.655 ns/day, 36.665 hours/ns, 7.576 timesteps/s, 61.094 katom-step/s
100.0% CPU use with 20 MPI tasks x 1 OpenMP threads

MPI task timing breakdown:
Section |  min time  |  avg time  |  max time  |%varavg| %total
---------------------------------------------------------------
Pair    | 22909      | 24111      | 25940      | 697.3 | 91.34
Neigh   | 232.68     | 252.1      | 278.87     | 101.7 |  0.95
Comm    | 173.39     | 2028.3     | 3250.2     |2439.9 |  7.68
Output  | 0.50222    | 0.57386    | 0.66755    |   6.2 |  0.00
Modify  | 3.6882     | 4.5217     | 5.4441     |  24.7 |  0.02
Other   |            | 1.885      |            |       |  0.01

Nlocal:          403.2 ave         432 max         383 min
Histogram: 8 0 0 1 1 4 1 1 0 4
Nghost:        1634.25 ave        1691 max        1598 min
Histogram: 7 4 1 0 0 0 0 2 4 2
Neighs:              0 ave           0 max           0 min
Histogram: 20 0 0 0 0 0 0 0 0 0
FullNghs:        23039 ave       24765 max       21818 min
Histogram: 8 0 0 2 1 3 1 1 0 4

Total # of neighbors = 460780
Ave neighs/atom = 57.140377
Neighbor list builds = 200000
Dangerous builds not checked
Total wall time: 7:19:58
