LAMMPS (27 Jun 2024)
OMP_NUM_THREADS environment is not set. Defaulting to 1 thread. (src/comm.cpp:98)
  using 1 OpenMP thread(s) per MPI task
Reading data file ...
  orthogonal box = (0 0 0) to (22.422218 22.19224 20.321894)
  5 by 2 by 2 MPI processor grid
  reading atoms ...
  448 atoms
  read_data CPU = 0.004 seconds
**************** Begin of POD Potentials ****************
species: Hf 
periodic boundary conditions: 1 1 1
number of environment clusters: 8
number of principal compoments: 2
inner cut-off radius: 1
outer cut-off radius: 5
cut-off function type: 1
gaussian_exponents: 
polynomial_degrees: 
bessel polynomial degree: 4
inverse polynomial degree: 10
one-body potential: 1
two-body radial basis functions: 8
three-body radial basis functions: 8
three-body angular degree: 6
four-body radial basis functions: 7
four-body angular degree: 5
five-body radial basis functions: 0
five-body angular degree: 0
six-body radial basis functions: 0
six-body angular degree: 0
seven-body radial basis functions: 0
seven-body angular degree: 0
number of local descriptors per element for one-body potential: 1
number of local descriptors per element for two-body potential: 8
number of local descriptors per element for three-body potential: 56
number of local descriptors per element for four-body potential: 112
number of local descriptors per element for five-body potential: 0
number of local descriptors per element for six-body potential: 0
number of local descriptors per element for seven-body potential: 0
number of local descriptors per element for all potentials: 177
number of global descriptors: 1409
**************** End of POD Potentials ****************

**************** Begin of Model Coefficients ****************
total number of coefficients for POD potential: 1409
total number of elements for PCA projection matrix: 352
total number of elements for PCA centroids: 16
**************** End of Model Coefficients ****************


CITE-CITE-CITE-CITE-CITE-CITE-CITE-CITE-CITE-CITE-CITE-CITE-CITE

Your simulation uses code contributions which should be cited:
- Type Label Framework: https://doi.org/10.1021/acs.jpcb.3c08419
The log file lists these citations in BibTeX format.

CITE-CITE-CITE-CITE-CITE-CITE-CITE-CITE-CITE-CITE-CITE-CITE-CITE

Neighbor list info ...
  update: every = 1 steps, delay = 0 steps, check = no
  max neighbors/atom: 2000, page size: 100000
  master list distance cutoff = 7
  ghost atom cutoff = 7
  binsize = 3.5, bins = 7 7 6
  1 neighbor lists, perpetual/occasional/extra = 1 0 0
  (1) pair pod, perpetual
      attributes: full, newton on
      pair build: full/bin/atomonly
      stencil: full/bin/3d
      bin: standard
Setting up Verlet run ...
  Unit style    : metal
  Current step  : 0
  Time step     : 0.001
Per MPI rank memory allocation (min/avg/max) = 2.586 | 2.586 | 2.586 Mbytes
   Step          Temp          TotEng         PotEng         KinEng         Press          Volume    
         0   300           -3263.9145     -3281.2483      17.333785      1830.9177      10112.159    
       100   90.877114     -3263.0449     -3268.2957      5.2508146      3715.2931      10112.159    
       200   164.65654     -3259.767      -3269.2807      9.5137373      4510.2786      10112.159    
       300   211.23262     -3255.8474     -3268.0523      12.204869      4961.6319      10112.159    
       400   272.72251     -3251.7846     -3267.5423      15.757712      5153.2341      10112.159    
       500   317.63842     -3247.8466     -3266.1995      18.352921      5943.4878      10112.159    
       600   294.87096     -3245.1519     -3262.1894      17.037433      7175.9132      10112.159    
       700   305.40818     -3243.7284     -3261.3747      17.646266      7493.2159      10112.159    
       800   290.28334     -3245.4426     -3262.215       16.772364      7249.4048      10112.159    
       900   293.01304     -3247.0071     -3263.9372      16.930084      6680.1301      10112.159    
      1000   309.62142     -3247.9533     -3265.843       17.889704      6089.9286      10112.159    
      1100   290.30676     -3248.0278     -3264.8015      16.773717      6347.4571      10112.159    
      1200   297.96528     -3246.4842     -3263.7004      17.216221      6639.1487      10112.159    
      1300   295.01508     -3245.4413     -3262.4871      17.04576       7251.616       10112.159    
      1400   320.45982     -3244.948      -3263.464       18.515939      7047.4132      10112.159    
      1500   301.27601     -3246.0039     -3263.4115      17.407512      6565.4297      10112.159    
      1600   324.40976     -3246.762      -3265.5061      18.744164      6376.7372      10112.159    
      1700   275.40137     -3247.9131     -3263.8256      15.912494      6760.446       10112.159    
      1800   276.17712     -3247.5423     -3263.4997      15.957316      6449.2799      10112.159    
      1900   329.96468     -3245.9891     -3265.0542      19.065123      6722.9156      10112.159    
      2000   285.87773     -3245.9871     -3262.5049      16.517811      6808.1201      10112.159    
      2100   331.53924     -3245.2541     -3264.4102      19.1561        6941.8115      10112.159    
      2200   292.90393     -3246.0156     -3262.9393      16.92378       7034.3555      10112.159    
      2300   278.30743     -3247.0512     -3263.1316      16.080404      7004.2365      10112.159    
      2400   319.08052     -3247.2567     -3265.6929      18.436244      6123.3339      10112.159    
      2500   281.22426     -3247.6726     -3263.9215      16.248937      6606.902       10112.159    
      2600   312.59421     -3246.3076     -3264.3691      18.06147       6521.7416      10112.159    
      2700   284.8814      -3245.9452     -3262.4055      16.460243      7047.6798      10112.159    
      2800   303.7714      -3245.6247     -3263.1764      17.551694      6966.6295      10112.159    
      2900   314.1931      -3246.058      -3264.2119      18.153853      6589.5488      10112.159    
      3000   282.22546     -3247.7625     -3264.0693      16.306785      6409.0258      10112.159    
      3100   299.80453     -3247.8318     -3265.1543      17.322491      6512.1826      10112.159    
      3200   282.73013     -3246.9449     -3263.2808      16.335945      6764.9949      10112.159    
      3300   295.52733     -3245.9891     -3263.0645      17.075358      7113.3135      10112.159    
      3400   314.64058     -3245.627      -3263.8067      18.179708      6646.4259      10112.159    
      3500   306.18822     -3245.7624     -3263.4537      17.691337      7113.9222      10112.159    
      3600   274.89805     -3247.3308     -3263.2142      15.883412      6686.9308      10112.159    
      3700   322.13248     -3247.6302     -3266.2428      18.612584      5984.0047      10112.159    
      3800   273.81236     -3247.5932     -3263.4138      15.820682      6611.0356      10112.159    
      3900   298.8339      -3246.5955     -3263.8619      17.266409      6831.1544      10112.159    
      4000   290.78754     -3246.5217     -3263.3232      16.801496      6860.1698      10112.159    
      4100   295.60137     -3246.1657     -3263.2453      17.079635      6979.0639      10112.159    
      4200   333.47371     -3245.0396     -3264.3075      19.267873      6594.5988      10112.159    
      4300   282.93566     -3245.5013     -3261.8491      16.34782       7353.0354      10112.159    
      4400   305.61974     -3246.8049     -3264.4634      17.65849       6469.9486      10112.159    
      4500   287.14927     -3247.8871     -3264.4783      16.591279      6477.6309      10112.159    
      4600   285.92049     -3247.3006     -3263.8209      16.520282      6360.9649      10112.159    
      4700   311.7127      -3246.3638     -3264.3743      18.010537      6511.0903      10112.159    
      4800   297.05321     -3246.2049     -3263.3684      17.163522      6807.1817      10112.159    
      4900   281.09244     -3246.3685     -3262.6098      16.24132       6992.705       10112.159    
      5000   313.32184     -3246.0221     -3264.1256      18.103512      6610.3174      10112.159    
      5100   289.48154     -3246.8505     -3263.5766      16.726036      6774.3755      10112.159    
      5200   293.70791     -3248.3538     -3265.324       16.970233      6087.5613      10112.159    
      5300   297.26924     -3247.8254     -3265.0014      17.176004      6316.7113      10112.159    
      5400   270.11669     -3247.0363     -3262.6434      15.607149      6944.5662      10112.159    
      5500   316.12107     -3245.8207     -3264.086       18.265249      6677.045       10112.159    
      5600   318.61578     -3245.7359     -3264.1453      18.409392      6714.4048      10112.159    
      5700   273.20216     -3246.744      -3262.5294      15.785426      6712.9386      10112.159    
      5800   324.81804     -3246.2401     -3265.0078      18.767754      6326.302       10112.159    
      5900   275.87084     -3246.8676     -3262.8073      15.93962       6751.4332      10112.159    
      6000   293.03623     -3246.7193     -3263.6508      16.931424      6479.7629      10112.159    
      6100   312.75191     -3246.4958     -3264.5664      18.070582      6474.5295      10112.159    
      6200   303.44518     -3246.2778     -3263.8107      17.532845      6560.0716      10112.159    
      6300   285.05767     -3245.9751     -3262.4455      16.470429      6927.8756      10112.159    
      6400   322.15033     -3245.561      -3264.1747      18.613616      6687.2725      10112.159    
      6500   306.32119     -3245.9948     -3263.6938      17.69902       6619.5274      10112.159    
      6600   304.67531     -3246.9277     -3264.5316      17.603921      6485.1485      10112.159    
      6700   274.85651     -3247.6958     -3263.5768      15.881013      6611.5171      10112.159    
      6800   310.16444     -3246.777      -3264.698       17.921079      6633.4434      10112.159    
      6900   300.1725      -3246.3035     -3263.6473      17.343753      6587.4335      10112.159    
      7000   303.51389     -3246.0417     -3263.5785      17.536816      6951.3619      10112.159    
      7100   288.1118      -3246.4541     -3263.101       16.646894      6660.6304      10112.159    
      7200   298.46585     -3247.4505     -3264.6956      17.245143      6711.8829      10112.159    
      7300   278.54022     -3248.537      -3264.6309      16.093855      6007.3871      10112.159    
      7400   306.68845     -3247.5954     -3265.3156      17.720239      6469.116       10112.159    
      7500   288.45166     -3246.2364     -3262.9029      16.66653       6897.9963      10112.159    
      7600   303.33996     -3246.003      -3263.5298      17.526766      6710.5844      10112.159    
      7700   316.01159     -3245.9825     -3264.2414      18.258924      6667.3929      10112.159    
      7800   274.82875     -3246.7082     -3262.5876      15.879409      7023.4671      10112.159    
      7900   309.82241     -3246.6106     -3264.5119      17.901318      6630.0139      10112.159    
      8000   297.76905     -3246.6296     -3263.8344      17.204883      6821.9048      10112.159    
      8100   290.4433      -3246.929      -3263.7106      16.781606      6608.6023      10112.159    
      8200   300.93481     -3246.6117     -3263.9995      17.387798      6583.1168      10112.159    
      8300   307.18819     -3246.2626     -3264.0117      17.749114      6619.1833      10112.159    
      8400   310.3431      -3245.6952     -3263.6266      17.931402      7023.9416      10112.159    
      8500   316.04741     -3245.3465     -3263.6075      18.260993      7025.6537      10112.159    
      8600   296.72314     -3245.7457     -3262.8902      17.144451      7034.8598      10112.159    
      8700   288.10557     -3247.2186     -3263.8652      16.646534      6650.341       10112.159    
      8800   283.77701     -3247.6232     -3264.0197      16.396433      6679.2064      10112.159    
      8900   310.9943      -3246.8192     -3264.7882      17.969028      6403.6456      10112.159    
      9000   299.88106     -3246.103      -3263.4299      17.326913      6930.2623      10112.159    
      9100   306.22217     -3244.4656     -3262.1589      17.693298      7271.7026      10112.159    
      9200   319.45842     -3244.4056     -3262.8637      18.458079      7314.2167      10112.159    
      9300   313.32021     -3245.3063     -3263.4097      18.103418      6995.4231      10112.159    
      9400   302.90346     -3246.2837     -3263.7853      17.501545      6632.4637      10112.159    
      9500   291.89471     -3247.1282     -3263.9937      16.865468      6607.6337      10112.159    
      9600   285.68814     -3247.7456     -3264.2524      16.506857      6891.484       10112.159    
      9700   275.50936     -3247.6057     -3263.5244      15.918734      6464.8825      10112.159    
      9800   317.8648      -3245.7375     -3264.1035      18.366001      6841.0921      10112.159    
      9900   316.96653     -3245.402      -3263.716       18.3141        6822.1718      10112.159    
     10000   288.08969     -3245.9326     -3262.5782      16.645616      7152.4897      10112.159    
     10100   290.27794     -3247.2361     -3264.0082      16.772052      6801.2652      10112.159    
     10200   295.01146     -3247.8032     -3264.8488      17.045551      6405.5399      10112.159    
     10300   303.02314     -3247.0791     -3264.5876      17.50846       6329.4311      10112.159    
     10400   286.41958     -3246.6834     -3263.2325      16.549118      6877.0355      10112.159    
     10500   306.82093     -3246.0508     -3263.7787      17.727894      6843.2207      10112.159    
     10600   306.49364     -3246.201      -3263.91        17.708983      6941.3885      10112.159    
     10700   286.94686     -3246.5633     -3263.1428      16.579584      7002.8216      10112.159    
     10800   305.80317     -3246.3229     -3263.992       17.669088      6771.475       10112.159    
     10900   297.03861     -3246.64       -3263.8027      17.162679      6558.5341      10112.159    
     11000   296.9483      -3246.6972     -3263.8547      17.157461      6681.3589      10112.159    
     11100   304.7391      -3245.988      -3263.5956      17.607607      6804.5808      10112.159    
     11200   300.84632     -3244.8212     -3262.2038      17.382685      7432.067       10112.159    
     11300   328.45344     -3244.2395     -3263.2173      18.977805      7275.8385      10112.159    
     11400   298.75711     -3246.2071     -3263.4691      17.261972      6943.9187      10112.159    
     11500   295.80775     -3246.9527     -3264.0442      17.09156       6602.8857      10112.159    
     11600   298.62708     -3246.9341     -3264.1885      17.254459      6765.3383      10112.159    
     11700   308.64021     -3246.149      -3263.982       17.833011      6798.984       10112.159    
     11800   286.41131     -3245.5245     -3262.0731      16.548641      6996.5472      10112.159    
     11900   324.98058     -3244.2874     -3263.0645      18.777145      7142.7907      10112.159    
     12000   312.19886     -3244.8508     -3262.8895      18.038627      7151.4685      10112.159    
     12100   302.30666     -3246.4899     -3263.957       17.467063      6543.1179      10112.159    
     12200   299.41543     -3247.0522     -3264.3522      17.300009      6741.4072      10112.159    
     12300   286.95091     -3247.2151     -3263.7949      16.579819      6582.3006      10112.159    
     12400   321.51354     -3245.772      -3264.3488      18.576822      6939.8023      10112.159    
     12500   305.10515     -3245.4994     -3263.1282      17.628757      6841.4653      10112.159    
     12600   302.5956      -3245.7279     -3263.2117      17.483757      7060.0364      10112.159    
     12700   301.52105     -3246.1527     -3263.5744      17.421671      6820.9835      10112.159    
     12800   299.94596     -3246.5017     -3263.8323      17.330663      6765.9096      10112.159    
     12900   321.62107     -3246.2238     -3264.8069      18.583035      6578.6952      10112.159    
     13000   302.90068     -3246.2917     -3263.7931      17.501384      6969.5173      10112.159    
     13100   281.71885     -3246.8974     -3263.1749      16.277514      7096.1856      10112.159    
     13200   305.82875     -3247.434      -3265.1046      17.670566      6546.6731      10112.159    
     13300   299.59512     -3247.4607     -3264.7711      17.310392      6451.6505      10112.159    
     13400   290.74912     -3246.3906     -3263.1899      16.799276      6899.093       10112.159    
     13500   317.02348     -3245.1011     -3263.4185      18.31739       7161.1028      10112.159    
     13600   323.98267     -3245.2219     -3263.9414      18.719487      6903.0882      10112.159    
     13700   291.44357     -3246.0823     -3262.9217      16.839401      7227.0452      10112.159    
     13800   299.53744     -3246.4583     -3263.7653      17.307059      6808.3431      10112.159    
     13900   308.57116     -3246.5663     -3264.3954      17.829021      6791.0257      10112.159    
     14000   289.46046     -3247.0379     -3263.7628      16.724818      6964.3855      10112.159    
     14100   287.80911     -3248.3195     -3264.9489      16.629404      6402.6196      10112.159    
     14200   275.43397     -3248.8059     -3264.7203      15.914378      6394.9728      10112.159    
     14300   296.0535      -3247.2228     -3264.3286      17.105759      6521.1283      10112.159    
     14400   277.28528     -3246.4206     -3262.442       16.021345      7062.0723      10112.159    
     14500   324.02428     -3245.6842     -3264.4061      18.721891      6708.894       10112.159    
     14600   291.8038      -3246.4374     -3263.2976      16.860215      6968.8108      10112.159    
     14700   296.97662     -3246.849      -3264.0081      17.159097      6782.4091      10112.159    
     14800   283.55958     -3248.1518     -3264.5357      16.383869      6616.2239      10112.159    
     14900   287.59494     -3248.6698     -3265.2868      16.61703       6141.4822      10112.159    
     15000   279.83086     -3247.0963     -3263.2647      16.168427      7069.3831      10112.159    
     15100   313.82335     -3246.0739     -3264.2064      18.132489      6578.586       10112.159    
     15200   298.95168     -3246.4726     -3263.7458      17.273214      6807.7311      10112.159    
     15300   295.13634     -3246.9472     -3264           17.052767      6842.3185      10112.159    
     15400   297.16227     -3247.1364     -3264.3062      17.169824      6637.724       10112.159    
     15500   286.77812     -3246.6472     -3263.217       16.569835      6954.2097      10112.159    
     15600   309.28529     -3245.2218     -3263.0921      17.870283      7223.9954      10112.159    
     15700   328.78628     -3245.0155     -3264.0125      18.997036      7048.1032      10112.159    
     15800   294.82494     -3246.5533     -3263.5881      17.034774      6598.6552      10112.159    
     15900   299.68409     -3246.8736     -3264.1891      17.315532      6758.2621      10112.159    
     16000   282.01757     -3246.9963     -3263.2911      16.294773      6818.2101      10112.159    
     16100   304.20892     -3246.0022     -3263.5791      17.576974      6781.1564      10112.159    
     16200   319.92981     -3245.0343     -3263.5196      18.485315      7014.8182      10112.159    
     16300   297.60525     -3245.6701     -3262.8655      17.195419      7050.3497      10112.159    
     16400   306.44366     -3247.949      -3265.6551      17.706095      6551.523       10112.159    
     16500   274.88032     -3248.3232     -3264.2056      15.882388      6567.3261      10112.159    
     16600   292.88395     -3246.8482     -3263.7708      16.922625      6719.2344      10112.159    
     16700   303.98891     -3246.0163     -3263.5805      17.564262      6937.7811      10112.159    
     16800   307.43034     -3245.6268     -3263.3899      17.763105      6968.0185      10112.159    
     16900   303.54321     -3245.7189     -3263.2574      17.53851       7042.644       10112.159    
     17000   288.67582     -3247.2663     -3263.9458      16.679482      6775.1275      10112.159    
     17100   282.79046     -3248.0878     -3264.4272      16.33943       6436.6888      10112.159    
     17200   288.14688     -3247.5241     -3264.173       16.648921      6737.6557      10112.159    
     17300   296.74189     -3246.5174     -3263.663       17.145534      7107.744       10112.159    
     17400   291.49244     -3246.1726     -3263.0148      16.842225      6855.7775      10112.159    
     17500   320.42806     -3245.7592     -3264.2733      18.514104      6846.8936      10112.159    
     17600   284.50622     -3246.8704     -3263.309       16.438566      6797.7231      10112.159    
     17700   300.86109     -3247.2645     -3264.648       17.383539      6381.5044      10112.159    
     17800   281.99425     -3247.5189     -3263.8123      16.293426      6690.9225      10112.159    
     17900   306.34645     -3246.6211     -3264.3215      17.700479      6781.4516      10112.159    
     18000   313.43338     -3245.5674     -3263.6773      18.109957      7091.4496      10112.159    
     18100   300.09407     -3245.2366     -3262.5759      17.33922       7236.8506      10112.159    
     18200   295.50357     -3245.9969     -3263.0709      17.073985      7038.4975      10112.159    
     18300   306.58495     -3247.242      -3264.9563      17.714259      6448.7472      10112.159    
     18400   286.00153     -3247.5842     -3264.1092      16.524964      6339.9169      10112.159    
     18500   313.74576     -3246.991      -3265.119       18.128006      6341.1296      10112.159    
     18600   293.51889     -3246.5921     -3263.5515      16.959311      6890.1849      10112.159    
     18700   291.96762     -3246.2855     -3263.1552      16.86968       7079.5341      10112.159    
     18800   301.50769     -3246.2412     -3263.662       17.420899      6871.7046      10112.159    
     18900   305.16488     -3246.4717     -3264.1039      17.632208      6591.25        10112.159    
     19000   293.47394     -3247.5233     -3264.48        16.956714      6480.2773      10112.159    
     19100   270.66818     -3248.8287     -3264.4677      15.639014      6757.7443      10112.159    
     19200   289.16544     -3248.0283     -3264.7361      16.707772      6295.705       10112.159    
     19300   298.74998     -3246.7892     -3264.0507      17.26156       6833.8504      10112.159    
     19400   302.00914     -3246.0862     -3263.5361      17.449872      6941.7781      10112.159    
     19500   302.97596     -3245.7301     -3263.2358      17.505734      7108.0282      10112.159    
     19600   297.72042     -3246.3651     -3263.5672      17.202073      7205.56        10112.159    
     19700   286.5937      -3247.8642     -3264.4234      16.559179      6443.0108      10112.159    
     19800   293.2891      -3247.8841     -3264.8301      16.946034      6579.9967      10112.159    
     19900   299.43317     -3247.4429     -3264.7439      17.301034      6477.7157      10112.159    
     20000   293.25874     -3246.8458     -3263.7901      16.94428       6958.6262      10112.159    
     20100   300.30587     -3245.9393     -3263.2908      17.351459      6600.7563      10112.159    
     20200   307.42173     -3245.8084     -3263.571       17.762608      6900.0863      10112.159    
     20300   291.60483     -3246.814      -3263.6627      16.848718      6749.4394      10112.159    
     20400   286.44359     -3248.4414     -3264.9919      16.550506      6300.4022      10112.159    
     20500   289.34987     -3248.6728     -3265.3913      16.718429      6387.3344      10112.159    
     20600   264.55887     -3247.9087     -3263.1947      15.286023      7062.912       10112.159    
     20700   304.59405     -3246.9236     -3264.5228      17.599226      6981.734       10112.159    
     20800   296.5184      -3246.7236     -3263.8562      17.132621      6798.3833      10112.159    
     20900   313.96151     -3245.9515     -3264.092       18.140471      6779.8505      10112.159    
     21000   306.73015     -3245.5032     -3263.2259      17.722649      7134.0744      10112.159    
     21100   287.37262     -3246.3332     -3262.9374      16.604184      7091.0691      10112.159    
     21200   298.0734      -3247.8248     -3265.0472      17.222468      6526.6746      10112.159    
     21300   278.32885     -3248.4521     -3264.5338      16.081642      6243.5179      10112.159    
     21400   295.77653     -3247.5233     -3264.6131      17.089756      6726.0959      10112.159    
     21500   296.25231     -3246.9371     -3264.0544      17.117247      6839.726       10112.159    
     21600   297.24237     -3246.2262     -3263.4007      17.174452      7086.4105      10112.159    
     21700   318.81486     -3245.3591     -3263.78        18.420895      6869.1532      10112.159    
     21800   301.59167     -3245.9394     -3263.3652      17.425751      7197.8399      10112.159    
     21900   287.7667      -3247.9436     -3264.5705      16.626954      6454.9173      10112.159    
     22000   281.17901     -3248.1474     -3264.3937      16.246322      6573.4958      10112.159    
     22100   299.76662     -3247.071      -3264.3913      17.320301      6571.9754      10112.159    
     22200   304.34713     -3246.2548     -3263.8397      17.58496       6803.6874      10112.159    
     22300   300.02046     -3245.7741     -3263.1091      17.334967      7205.5179      10112.159    
     22400   305.86835     -3245.7973     -3263.4702      17.672854      7168.4871      10112.159    
     22500   282.52084     -3247.5771     -3263.901       16.323852      6752.7095      10112.159    
     22600   285.58896     -3248.2134     -3264.7145      16.501126      6493.6654      10112.159    
     22700   305.1894      -3247.3597     -3264.9933      17.633625      6280.1487      10112.159    
     22800   296.25671     -3246.4276     -3263.5451      17.117501      6822.5988      10112.159    
     22900   306.42755     -3245.7623     -3263.4675      17.705165      7147.6964      10112.159    
     23000   299.68485     -3245.8998     -3263.2154      17.315576      6972.5806      10112.159    
     23100   318.70557     -3246.5471     -3264.9617      18.41458       6763.3169      10112.159    
     23200   277.60396     -3248.1872     -3264.2269      16.039758      6457.2882      10112.159    
     23300   302.6495      -3247.3229     -3264.8098      17.486872      6820.1495      10112.159    
     23400   291.00967     -3246.3559     -3263.1702      16.814331      6806.2579      10112.159    
     23500   319.36287     -3245.5463     -3263.9989      18.452558      6953.0098      10112.159    
     23600   294.51148     -3246.0892     -3263.1058      17.016663      6945.0055      10112.159    
     23700   304.62197     -3246.3676     -3263.9685      17.600839      6763.0076      10112.159    
     23800   287.9261      -3247.1035     -3263.7396      16.636164      6835.7086      10112.159    
     23900   278.64327     -3249.1677     -3265.2675      16.099809      6200.3525      10112.159    
     24000   278.47136     -3248.9418     -3265.0317      16.089876      6526.5325      10112.159    
     24100   285.06327     -3247.6384     -3264.1092      16.470752      6621.3241      10112.159    
     24200   301.32179     -3246.3592     -3263.7693      17.410157      6890.8123      10112.159    
     24300   320.01172     -3245.965      -3264.455       18.490048      6767.1937      10112.159    
     24400   281.8128      -3246.5746     -3262.8576      16.282942      7034.9811      10112.159    
     24500   298.60034     -3246.4559     -3263.7088      17.252914      6917.4364      10112.159    
     24600   297.67816     -3247.1158     -3264.3154      17.199631      6662.6052      10112.159    
     24700   297.69454     -3247.6402     -3264.8408      17.200578      6294.1232      10112.159    
     24800   272.49691     -3247.911      -3263.6557      15.744676      6986.8381      10112.159    
     24900   290.68604     -3246.5447     -3263.3403      16.795631      7192.0708      10112.159    
     25000   316.60847     -3245.5835     -3263.8769      18.293411      6792.2711      10112.159    
     25100   313.30789     -3245.7973     -3263.9         18.102706      6989.7813      10112.159    
     25200   294.01467     -3246.4319     -3263.4199      16.987957      7047.0637      10112.159    
     25300   265.14231     -3248.0596     -3263.3793      15.319733      6693.1379      10112.159    
     25400   305.93402     -3248.1532     -3265.8298      17.676649      6369.1123      10112.159    
     25500   289.14294     -3247.5591     -3264.2656      16.706472      6472.9547      10112.159    
     25600   301.29348     -3246.4665     -3263.875       17.408522      6752.9905      10112.159    
     25700   297.06938     -3246.1877     -3263.3522      17.164456      6925.5251      10112.159    
     25800   297.58014     -3246.2476     -3263.4416      17.193967      7012.6252      10112.159    
     25900   307.40353     -3246.5686     -3264.3302      17.761556      6562.6311      10112.159    
     26000   296.11514     -3247.5749     -3264.6842      17.109321      6654.6617      10112.159    
     26100   275.77417     -3248.2885     -3264.2226      15.934034      6477.4237      10112.159    
     26200   300.30403     -3247.0532     -3264.4045      17.351352      6915.9202      10112.159    
     26300   295.15426     -3245.9842     -3263.038       17.053802      7153.4887      10112.159    
     26400   319.66195     -3245.7744     -3264.2443      18.469839      6684.3563      10112.159    
     26500   301.54922     -3246.3122     -3263.7355      17.423298      6853.7082      10112.159    
     26600   296.78959     -3246.7767     -3263.925       17.14829       7043.6728      10112.159    
     26700   286.90785     -3248.1263     -3264.7036      16.577331      6496.5853      10112.159    
     26800   272.82783     -3249.1256     -3264.8894      15.763797      6376.0128      10112.159    
     26900   294.95147     -3247.7624     -3264.8045      17.042085      6555.9689      10112.159    
     27000   298.6641      -3246.871      -3264.1276      17.256598      6838.8274      10112.159    
     27100   302.85299     -3246.2363     -3263.735       17.498629      6728.461       10112.159    
     27200   299.48601     -3245.7528     -3263.0569      17.304087      7129.8165      10112.159    
     27300   299.24946     -3245.6991     -3262.9895      17.29042       7021.5588      10112.159    
     27400   298.26958     -3246.8474     -3264.0813      17.233803      6804.336       10112.159    
     27500   291.36084     -3247.8449     -3264.6795      16.834621      6449.4425      10112.159    
     27600   282.66093     -3247.6541     -3263.986       16.331946      6796.6222      10112.159    
     27700   309.10879     -3245.8458     -3263.7059      17.860085      6861.2093      10112.159    
     27800   293.66844     -3245.4956     -3262.4636      16.967953      7135.9928      10112.159    
     27900   327.60388     -3245.2493     -3264.178       18.928718      6852.7456      10112.159    
     28000   288.52417     -3246.5716     -3263.2423      16.67072       6962.8283      10112.159    
     28100   296.59329     -3246.9621     -3264.0991      17.136948      6712.3705      10112.159    
     28200   293.36208     -3246.9868     -3263.9371      16.950251      6739.719       10112.159    
     28300   320.84379     -3246.1518     -3264.6899      18.538125      6589.0381      10112.159    
     28400   301.9865      -3244.9232     -3262.3717      17.448564      7082.3579      10112.159    
     28500   312.23879     -3243.6923     -3261.7332      18.040934      7384.022       10112.159    
     28600   316.38821     -3244.6974     -3262.9781      18.280684      7289.0219      10112.159    
     28700   309.41568     -3246.2864     -3264.1642      17.877817      6575.1884      10112.159    
     28800   301.9471      -3246.6526     -3264.0989      17.446288      6608.1998      10112.159    
     28900   299.38916     -3246.569      -3263.8675      17.298492      6603.368       10112.159    
     29000   291.63359     -3246.5249     -3263.3753      16.85038       6866.9206      10112.159    
     29100   313.50247     -3245.9171     -3264.031       18.113949      6642.6638      10112.159    
     29200   307.61543     -3245.5004     -3263.2742      17.7738        6823.1172      10112.159    
     29300   314.34967     -3245.4485     -3263.6114      18.162899      6846.2197      10112.159    
     29400   284.79829     -3246.7658     -3263.2213      16.455442      6916.3446      10112.159    
     29500   295.70889     -3247.4281     -3264.5139      17.085848      6493.8614      10112.159    
     29600   306.15423     -3247.2497     -3264.9391      17.689372      6399.9323      10112.159    
     29700   289.15156     -3245.7884     -3262.4953      16.70697       7187.6007      10112.159    
     29800   312.62169     -3244.8647     -3262.9277      18.063057      7109.3581      10112.159    
     29900   314.10937     -3245.8348     -3263.9838      18.149015      6796.7933      10112.159    
     30000   288.58151     -3246.8602     -3263.5343      16.674033      6794.3183      10112.159    
     30100   292.2213      -3246.9673     -3263.8516      16.884337      6803.9116      10112.159    
     30200   291.05288     -3246.7634     -3263.5803      16.816827      6529.0815      10112.159    
     30300   325.30349     -3245.2023     -3263.9981      18.795803      6754.2152      10112.159    
     30400   313.53908     -3244.9244     -3263.0404      18.116064      7128.4309      10112.159    
     30500   285.51357     -3246.1418     -3262.6386      16.49677       7033.436       10112.159    
     30600   304.38008     -3246.9412     -3264.528       17.586863      6644.1605      10112.159    
     30700   292.71342     -3247.221      -3264.1338      16.912772      6328.9842      10112.159    
     30800   304.27474     -3246.6639     -3264.2447      17.580777      6789.9936      10112.159    
     30900   287.68186     -3246.554      -3263.1761      16.622052      6766.6392      10112.159    
     31000   306.14316     -3246.1707     -3263.8594      17.688733      6914.1987      10112.159    
     31100   295.85402     -3246.2901     -3263.3843      17.094234      6895.9981      10112.159    
     31200   294.0505      -3246.4416     -3263.4316      16.990027      6903.849       10112.159    
     31300   305.13141     -3246.326      -3263.9563      17.630275      6653.592       10112.159    
     31400   296.68166     -3246.4643     -3263.6063      17.142054      6609.109       10112.159    
     31500   287.16381     -3247.0799     -3263.6721      16.59212       6861.2232      10112.159    
     31600   302.36669     -3247.4614     -3264.932       17.470531      6385.9106      10112.159    
     31700   288.43463     -3247.5973     -3264.2628      16.665547      6653.91        10112.159    
     31800   292.08821     -3246.2012     -3263.0778      16.876648      6963.0488      10112.159    
     31900   309.31028     -3245.4527     -3263.3244      17.871727      6975.5218      10112.159    
     32000   306.43353     -3246.0054     -3263.7109      17.70551       6718.8401      10112.159    
     32100   294.01943     -3246.913      -3263.9012      16.988232      6358.0144      10112.159    
     32200   298.76839     -3247.2908     -3264.5535      17.262624      6564.3755      10112.159    
     32300   278.25608     -3247.7795     -3263.8569      16.077437      6643.6186      10112.159    
     32400   299.7509      -3247.1327     -3264.4521      17.319393      6445.8601      10112.159    
     32500   310.43252     -3245.8759     -3263.8125      17.936569      6670.0466      10112.159    
     32600   311.55628     -3245.5102     -3263.5117      18.001499      6976.1387      10112.159    
     32700   281.1076      -3246.4495     -3262.6917      16.242196      6936.8093      10112.159    
     32800   292.24298     -3247.231      -3264.1166      16.88559       6583.6904      10112.159    
     32900   288.04675     -3248.3711     -3265.0142      16.643135      6366.2682      10112.159    
     33000   281.32846     -3248.9126     -3265.1676      16.254957      6157.9256      10112.159    
     33100   288.07568     -3247.6049     -3264.2497      16.644807      6563.7526      10112.159    
     33200   300.39455     -3246.1751     -3263.5317      17.356582      6876.184       10112.159    
     33300   301.52161     -3245.8344     -3263.2561      17.421703      6841.671       10112.159    
     33400   295.7113      -3246.1737     -3263.2597      17.085988      7012.9374      10112.159    
     33500   304.74512     -3246.6278     -3264.2358      17.607955      6766.1652      10112.159    
     33600   284.94346     -3247.8733     -3264.3372      16.463829      6227.6545      10112.159    
     33700   285.91978     -3248.119      -3264.6392      16.520241      6213.7059      10112.159    
     33800   299.23544     -3246.4661     -3263.7557      17.28961       6538.2741      10112.159    
     33900   301.83841     -3246.168      -3263.608       17.440007      6776.6523      10112.159    
     34000   291.81531     -3246.3091     -3263.1699      16.86088       6844.5388      10112.159    
     34100   310.12427     -3245.7549     -3263.6737      17.918758      6818.6297      10112.159    
     34200   308.80562     -3245.6668     -3263.5094      17.842568      6788.2235      10112.159    
     34300   285.41192     -3246.8324     -3263.3233      16.490897      6960.618       10112.159    
     34400   300.13825     -3247.5793     -3264.921       17.341774      6382.5365      10112.159    
     34500   284.33958     -3247.6794     -3264.1084      16.428937      6559.8485      10112.159    
     34600   289.61037     -3245.9639     -3262.6974      16.73348       6986.5867      10112.159    
     34700   316.44529     -3245.2697     -3263.5537      18.283982      6939.4404      10112.159    
     34800   308.23482     -3245.6565     -3263.4661      17.809588      6946.3899      10112.159    
     34900   301.57643     -3246.6843     -3264.1092      17.424871      6658.9352      10112.159    
     35000   300.01904     -3247.3705     -3264.7054      17.334886      6661.7831      10112.159    
     35100   288.37287     -3247.1953     -3263.8573      16.661978      6730.1359      10112.159    
     35200   284.46001     -3246.8402     -3263.2761      16.435896      6552.2194      10112.159    
     35300   316.3871      -3246.2039     -3264.4845      18.28062       6566.2451      10112.159    
     35400   294.52521     -3246.3716     -3263.389       17.017456      6785.3093      10112.159    
     35500   286.76143     -3246.7609     -3263.3298      16.568871      6846.6412      10112.159    
     35600   310.09289     -3246.902      -3264.8189      17.916945      6704.4545      10112.159    
     35700   291.23178     -3246.7925     -3263.6197      16.827164      6590.3578      10112.159    
     35800   306.44527     -3245.996      -3263.7022      17.706189      6824.5748      10112.159    
     35900   290.14373     -3245.7679     -3262.5322      16.764297      7036.3674      10112.159    
     36000   316.26448     -3245.3067     -3263.5802      18.273535      6853.3467      10112.159    
     36100   303.19931     -3246.2617     -3263.7804      17.518639      6797.2933      10112.159    
     36200   301.4238      -3247.5083     -3264.9243      17.416052      6198.49        10112.159    
     36300   274.45868     -3247.7923     -3263.6503      15.858026      6493.8838      10112.159    
     36400   295.77143     -3246.4591     -3263.5486      17.089462      7007.577       10112.159    
     36500   301.99112     -3246.3717     -3263.8205      17.448831      6752.1211      10112.159    
     36600   304.68002     -3246.6178     -3264.222       17.604194      6433.332       10112.159    
     36700   289.50503     -3246.8706     -3263.598       16.727394      6646.3573      10112.159    
     36800   294.04139     -3246.5242     -3263.5137      16.989501      6951.5504      10112.159    
     36900   304.47677     -3245.5843     -3263.1767      17.59245       7011.4838      10112.159    
     37000   301.06944     -3245.3132     -3262.7088      17.395577      7013.3344      10112.159    
     37100   322.28792     -3245.6663     -3264.2879      18.621566      6722.8424      10112.159    
     37200   303.01118     -3247.3788     -3264.8866      17.507769      6421.4802      10112.159    
     37300   284.06877     -3247.712      -3264.1253      16.41329       6484.1621      10112.159    
     37400   292.50194     -3246.8769     -3263.7775      16.900553      6705.0491      10112.159    
     37500   294.73229     -3246.0673     -3263.0967      17.029421      7032.0302      10112.159    
     37600   311.48627     -3245.5959     -3263.5934      17.997454      6942.0158      10112.159    
     37700   310.43659     -3245.8993     -3263.8361      17.936804      6790.0279      10112.159    
     37800   302.50178     -3246.2389     -3263.7172      17.478337      6701.8306      10112.159    
     37900   292.0354      -3246.6614     -3263.535       16.873596      6985.5602      10112.159    
     38000   279.80468     -3247.3375     -3263.5044      16.166915      6720.3868      10112.159    
     38100   299.26102     -3247.7362     -3265.0273      17.291088      6517.9112      10112.159    
     38200   291.09126     -3247.4705     -3264.2896      16.819045      6489.6885      10112.159    
     38300   297.01284     -3245.956      -3263.1172      17.161189      7129.9626      10112.159    
     38400   313.72023     -3245.272      -3263.3985      18.126531      7150.3671      10112.159    
     38500   296.64998     -3246.0538     -3263.194       17.140224      6818.7761      10112.159    
     38600   301.2061      -3247.0102     -3264.4137      17.403473      6632.7357      10112.159    
     38700   281.65435     -3247.3992     -3263.673       16.273787      6896.2284      10112.159    
     38800   296.27296     -3247.06       -3264.1784      17.11844       6696.6605      10112.159    
     38900   304.92802     -3246.7951     -3264.4137      17.618523      6532.2544      10112.159    
     39000   296.13826     -3246.4531     -3263.5638      17.110657      6890.9719      10112.159    
     39100   314.36772     -3245.2422     -3263.4062      18.163942      7185.2883      10112.159    
     39200   299.5925      -3245.0058     -3262.3161      17.31024       7351.5857      10112.159    
     39300   313.50413     -3246.5441     -3264.6582      18.114045      6788.9245      10112.159    
     39400   283.5344      -3247.8891     -3264.2715      16.382415      6323.2857      10112.159    
     39500   300.67843     -3247.124      -3264.497       17.372984      6633.1         10112.159    
     39600   296.42701     -3246.0468     -3263.1742      17.127341      6869.3714      10112.159    
     39700   310.10885     -3245.2951     -3263.2129      17.917867      6918.084       10112.159    
     39800   306.18138     -3245.6236     -3263.3145      17.690941      6960.9196      10112.159    
     39900   282.17242     -3247.579      -3263.8827      16.30372       6662.8963      10112.159    
     40000   297.78672     -3247.7646     -3264.9705      17.205904      6640.8954      10112.159    
     40100   299.12296     -3247.1592     -3264.4424      17.283111      6451.5452      10112.159    
     40200   304.00957     -3246.109      -3263.6745      17.565456      6728.3269      10112.159    
     40300   312.57329     -3245.2048     -3263.2651      18.060261      7043.5096      10112.159    
     40400   289.62448     -3245.6451     -3262.3794      16.734295      7368.6924      10112.159    
     40500   309.0208      -3246.0712     -3263.9262      17.855001      6836.5142      10112.159    
     40600   312.55145     -3246.4147     -3264.4737      18.058999      6602.6494      10112.159    
     40700   299.74063     -3246.8565     -3264.1753      17.318799      6649.3336      10112.159    
     40800   283.74142     -3248.0895     -3264.4839      16.394377      6509.206       10112.159    
     40900   275.80813     -3248.491      -3264.427       15.935997      6315.8358      10112.159    
     41000   301.30505     -3246.7923     -3264.2015      17.40919       6704.7869      10112.159    
     41100   314.76263     -3246.0064     -3264.1931      18.18676       6408.0776      10112.159    
     41200   302.83256     -3245.9945     -3263.492       17.497449      6695.7309      10112.159    
     41300   300.14715     -3246.3864     -3263.7287      17.342287      6507.7423      10112.159    
     41400   285.08029     -3247.6245     -3264.0963      16.471735      6508.5527      10112.159    
     41500   286.34972     -3248.3199     -3264.865       16.545082      6152.2865      10112.159    
     41600   299.53485     -3247.3414     -3264.6483      17.30691       6375.3642      10112.159    
     41700   312.29119     -3245.7016     -3263.7455      18.043962      6710.097       10112.159    
     41800   301.92772     -3245.6422     -3263.0874      17.445168      6896.1285      10112.159    
     41900   302.63974     -3246.1618     -3263.6482      17.486308      6613.1089      10112.159    
     42000   287.454       -3247.4912     -3264.1001      16.608886      6591.0912      10112.159    
     42100   301.75336     -3247.7837     -3265.2188      17.435093      6225.3557      10112.159    
     42200   296.7267      -3246.866      -3264.0107      17.144656      6528.3797      10112.159    
     42300   298.11953     -3245.4032     -3262.6283      17.225133      7327.3128      10112.159    
     42400   294.62591     -3245.8838     -3262.907       17.023274      7167.4438      10112.159    
     42500   296.59423     -3246.5757     -3263.7127      17.137002      6905.3173      10112.159    
     42600   308.0801      -3247.1931     -3264.9937      17.800648      6521.1388      10112.159    
     42700   282.05167     -3248.1104     -3264.4071      16.296744      6193.9169      10112.159    
     42800   295.12574     -3246.9768     -3264.0289      17.052154      6667.4961      10112.159    
     42900   304.08786     -3245.5075     -3263.0775      17.569979      6827.1595      10112.159    
     43000   313.48986     -3245.2923     -3263.4055      18.11322       7241.4031      10112.159    
     43100   296.70449     -3246.4351     -3263.5784      17.143373      6485.0075      10112.159    
     43200   301.64671     -3247.0416     -3264.4706      17.428931      6586.2324      10112.159    
     43300   297.34336     -3246.9061     -3264.0864      17.180287      6639.0595      10112.159    
     43400   286.10574     -3246.7892     -3263.3201      16.530985      6866.1518      10112.159    
     43500   318.9248      -3245.4311     -3263.8583      18.427247      6689.6857      10112.159    
     43600   309.70592     -3244.1867     -3262.0813      17.894586      7425.7382      10112.159    
     43700   315.76339     -3244.8142     -3263.0588      18.244583      6919.9426      10112.159    
     43800   322.94969     -3245.6139     -3264.2737      18.659802      6743.032       10112.159    
     43900   285.28468     -3246.8629     -3263.3464      16.483545      6571.2177      10112.159    
     44000   305.35052     -3246.6638     -3264.3068      17.642934      6599.6056      10112.159    
     44100   283.44145     -3246.8832     -3263.2602      16.377044      6694.3057      10112.159    
     44200   319.09165     -3245.891      -3264.3279      18.436888      6641.142       10112.159    
     44300   309.78085     -3245.1386     -3263.0375      17.898916      6887.1286      10112.159    
     44400   288.47434     -3245.6208     -3262.2887      16.667841      7074.9897      10112.159    
     44500   316.73844     -3246.4506     -3264.7515      18.30092       6752.1398      10112.159    
     44600   270.46437     -3247.9858     -3263.6131      15.627238      6322.3038      10112.159    
     44700   317.90819     -3246.8178     -3265.1863      18.368508      6353.0704      10112.159    
     44800   293.59629     -3246.3151     -3263.2788      16.963784      6857.8729      10112.159    
     44900   302.64751     -3245.4774     -3262.9641      17.486757      7009.0494      10112.159    
     45000   285.80938     -3245.5983     -3262.1121      16.513862      7364.0875      10112.159    
     45100   310.76479     -3246.9584     -3264.9142      17.955767      6384.517       10112.159    
     45200   302.42202     -3247.9295     -3265.4032      17.473728      6264.0194      10112.159    
     45300   284.87679     -3247.5578     -3264.0177      16.459977      6365.5426      10112.159    
     45400   294.62295     -3246.3454     -3263.3685      17.023103      6957.2812      10112.159    
     45500   292.04535     -3246.1295     -3263.0037      16.874171      6900.6064      10112.159    
     45600   302.4899      -3245.9235     -3263.4012      17.47765       7134.3556      10112.159    
     45700   310.05848     -3246.2467     -3264.1616      17.914957      6684.3086      10112.159    
     45800   292.07152     -3247.8115     -3264.6872      16.875684      6417.2754      10112.159    
     45900   274.1514      -3248.2455     -3264.0858      15.840272      6560.6973      10112.159    
     46000   288.67303     -3247.6691     -3264.3484      16.679321      6553.4108      10112.159    
     46100   303.87895     -3246.7573     -3264.3152      17.557908      6624.3723      10112.159    
     46200   289.97111     -3246.3123     -3263.0666      16.754323      7012.2813      10112.159    
     46300   314.33615     -3245.6396     -3263.8017      18.162118      6731.1807      10112.159    
     46400   315.44787     -3245.198      -3263.4244      18.226352      7039.6533      10112.159    
     46500   292.95154     -3246.2278     -3263.1544      16.926531      7021.3666      10112.159    
     46600   281.8501      -3247.6005     -3263.8856      16.285097      6578.9069      10112.159    
     46700   300.40403     -3247.3785     -3264.7356      17.35713       6456.4257      10112.159    
     46800   293.406       -3246.6871     -3263.6399      16.952789      6672.5424      10112.159    
     46900   327.58497     -3245.1612     -3264.0889      18.927625      6881.0641      10112.159    
     47000   287.96691     -3245.4098     -3262.0483      16.638522      7205.237       10112.159    
     47100   301.37212     -3245.7337     -3263.1468      17.413066      7074.3422      10112.159    
     47200   305.52042     -3246.8092     -3264.462       17.652751      6670.4462      10112.159    
     47300   290.58494     -3247.5249     -3264.3147      16.78979       6319.1554      10112.159    
     47400   297.90204     -3246.9841     -3264.1967      17.212567      6711.3944      10112.159    
     47500   304.47623     -3246.5465     -3264.1389      17.592419      6784.4192      10112.159    
     47600   282.73819     -3246.588      -3262.9244      16.33641       6852.8764      10112.159    
     47700   322.69519     -3246.0185     -3264.6636      18.645097      6469.6373      10112.159    
     47800   287.85827     -3246.8022     -3263.4344      16.632245      6931.0394      10112.159    
     47900   295.03166     -3248.0573     -3265.104       17.046718      6267.2914      10112.159    
     48000   274.01484     -3248.5777     -3264.4101      15.832381      6425.7642      10112.159    
     48100   290.63246     -3247.2329     -3264.0255      16.792536      6612.0649      10112.159    
     48200   305.57549     -3246.3512     -3264.0072      17.655933      6472.8153      10112.159    
     48300   298.6301      -3246.1761     -3263.4308      17.254634      6825.3983      10112.159    
     48400   301.86342     -3246.1179     -3263.5593      17.441453      6637.0381      10112.159    
     48500   293.64875     -3246.9723     -3263.9391      16.966815      6640.5694      10112.159    
     48600   284.82163     -3248.0204     -3264.4772      16.45679       6364.174       10112.159    
     48700   300.29061     -3247.3847     -3264.7352      17.350577      6326.5263      10112.159    
     48800   310.50457     -3245.7093     -3263.65        17.940732      6832.6441      10112.159    
     48900   296.37268     -3245.6658     -3262.79        17.124202      7331.3354      10112.159    
     49000   304.73971     -3245.9894     -3263.597       17.607643      6911.9737      10112.159    
     49100   304.45284     -3246.8296     -3264.4206      17.591068      6581.3282      10112.159    
     49200   278.58635     -3248.0844     -3264.1809      16.09652       6433.7195      10112.159    
     49300   302.50855     -3247.537      -3265.0157      17.478728      6235.3375      10112.159    
     49400   293.48518     -3245.9314     -3262.8888      16.957364      7130.6576      10112.159    
     49500   318.53196     -3245.6067     -3264.0112      18.404549      6735.5458      10112.159    
     49600   299.57308     -3246.5751     -3263.8843      17.309119      6913.2396      10112.159    
     49700   282.79717     -3247.2935     -3263.6333      16.339818      6654.5744      10112.159    
     49800   298.39105     -3246.9294     -3264.1702      17.240821      6559.662       10112.159    
     49900   317.49489     -3245.7365     -3264.0811      18.344627      6506.775       10112.159    
     50000   304.44838     -3245.0187     -3262.6095      17.59081       7177.1094      10112.159    
     50100   307.11702     -3245.2688     -3263.0138      17.745002      6980.9216      10112.159    
     50200   295.59196     -3247.3158     -3264.3948      17.079092      6602.943       10112.159    
     50300   296.34091     -3247.5152     -3264.6376      17.122366      6538.233       10112.159    
     50400   304.46554     -3246.8056     -3264.3974      17.591801      6360.2831      10112.159    
     50500   296.55826     -3245.5704     -3262.7053      17.134924      7039.0434      10112.159    
     50600   296.26681     -3245.1602     -3262.2782      17.118085      7292.246       10112.159    
     50700   313.55628     -3245.8553     -3263.9724      18.117058      6746.1848      10112.159    
     50800   317.54961     -3246.3817     -3264.7294      18.347789      6474.3484      10112.159    
     50900   285.46615     -3246.847      -3263.341       16.49403       6804.3861      10112.159    
     51000   294.8243      -3246.328      -3263.3627      17.034737      6782.0871      10112.159    
     51100   311.67202     -3245.0398     -3263.048       18.008186      6872.4993      10112.159    
     51200   323.23946     -3243.8702     -3262.5467      18.676545      7405.7936      10112.159    
     51300   305.65416     -3244.6454     -3262.3059      17.660479      7248.8695      10112.159    
     51400   308.82792     -3246.7965     -3264.6404      17.843857      6440.0914      10112.159    
     51500   292.2657      -3247.1742     -3264.0611      16.886903      6556.9922      10112.159    
     51600   312.79546     -3246.3711     -3264.4442      18.073098      6596.22        10112.159    
     51700   279.96781     -3245.9842     -3262.1605      16.17634       7070.6781      10112.159    
     51800   310.48118     -3244.9905     -3262.9299      17.93938       7120.994       10112.159    
     51900   330.90537     -3245.3165     -3264.436       19.119476      6489.2956      10112.159    
     52000   305.73397     -3247.2753     -3264.9404      17.66509       6476.527       10112.159    
     52100   262.53601     -3247.7699     -3262.939       15.169143      6655.3748      10112.159    
     52200   304.97596     -3246.5567     -3264.178       17.621293      6854.9942      10112.159    
     52300   303.47877     -3246.2604     -3263.7952      17.534787      6493.1425      10112.159    
     52400   318.79517     -3245.867      -3264.2867      18.419757      6541.0172      10112.159    
     52500   306.19594     -3245.3625     -3263.0543      17.691783      7366.4183      10112.159    
     52600   299.49261     -3245.0331     -3262.3375      17.304469      7122.8447      10112.159    
     52700   313.76134     -3245.7571     -3263.886       18.128906      6836.4953      10112.159    
     52800   300.8002      -3246.9539     -3264.3339      17.38002       6520.0552      10112.159    
     52900   300.28409     -3247.2715     -3264.6217      17.3502        6488.9079      10112.159    
     53000   282.23722     -3247.2786     -3263.5861      16.307464      6608.3141      10112.159    
     53100   302.99438     -3245.4862     -3262.993       17.506799      7002.506       10112.159    
     53200   325.38993     -3244.9666     -3263.7674      18.800798      6900.915       10112.159    
     53300   296.93246     -3245.7442     -3262.9007      17.156545      6720.0101      10112.159    
     53400   306.98302     -3246.3308     -3264.068       17.737259      6745.5881      10112.159    
     53500   290.25501     -3247.2244     -3263.9951      16.770727      6651.3046      10112.159    
     53600   294.30317     -3247.1341     -3264.1387      17.004627      6801.2334      10112.159    
     53700   305.38197     -3246.7803     -3264.425       17.644752      6470.8045      10112.159    
     53800   294.70557     -3246.1787     -3263.2066      17.027877      6891.6124      10112.159    
     53900   307.98916     -3245.2585     -3263.0539      17.795393      7149.5653      10112.159    
     54000   301.57758     -3245.8221     -3263.247       17.424937      6718.9104      10112.159    
     54100   299.30704     -3247.6133     -3264.907       17.293747      6307.5085      10112.159    
     54200   281.64206     -3248.3306     -3264.6037      16.273077      6467.0652      10112.159    
     54300   302.90344     -3247.3062     -3264.8077      17.501544      6453.8022      10112.159    
     54400   285.16092     -3246.4693     -3262.9457      16.476394      7239.1579      10112.159    
     54500   310.80019     -3245.3575     -3263.3153      17.957813      6986.4303      10112.159    
     54600   307.11217     -3245.6818     -3263.4265      17.744721      6788.7681      10112.159    
     54700   293.43867     -3246.6864     -3263.6411      16.954677      6757.8215      10112.159    
     54800   312.70951     -3246.8497     -3264.9178      18.068132      6572.7944      10112.159    
     54900   282.52461     -3246.9188     -3263.2429      16.32407       6722.5369      10112.159    
     55000   301.51121     -3246.2534     -3263.6745      17.421102      6854.4047      10112.159    
     55100   286.11998     -3246.1124     -3262.6442      16.531808      7036.0076      10112.159    
     55200   325.52848     -3244.9156     -3263.7244      18.808803      6833.7622      10112.159    
     55300   307.57649     -3244.9869     -3262.7584      17.771549      7107.27        10112.159    
     55400   301.42339     -3246.366      -3263.782       17.416028      6642.6665      10112.159    
     55500   296.77346     -3247.2844     -3264.4318      17.147358      6480.6167      10112.159    
     55600   290.97735     -3247.354      -3264.1664      16.812463      6591.798       10112.159    
     55700   291.34509     -3246.7632     -3263.5969      16.833711      6841.7421      10112.159    
     55800   317.93171     -3246.2734     -3264.6432      18.369867      6524.4274      10112.159    
     55900   294.82985     -3246.393      -3263.4281      17.035058      6963.1917      10112.159    
     56000   299.40248     -3246.3349     -3263.6341      17.299261      6908.6612      10112.159    
     56100   283.1959      -3247.4056     -3263.7685      16.362857      6705.9101      10112.159    
     56200   275.18271     -3248.6487     -3264.5486      15.89986       6389.9184      10112.159    
     56300   303.02724     -3247.8877     -3265.3964      17.508697      6243.2475      10112.159    
     56400   297.80107     -3246.4865     -3263.6932      17.206733      6849.6013      10112.159    
     56500   291.62214     -3245.9797     -3262.8295      16.849719      7164.0992      10112.159    
     56600   295.70626     -3246.3704     -3263.4561      17.085696      7174.0597      10112.159    
     56700   296.45329     -3246.6713     -3263.8002      17.128859      6732.2819      10112.159    
     56800   310.38499     -3246.3993     -3264.3331      17.933823      6554.6801      10112.159    
     56900   292.31087     -3247.1383     -3264.0278      16.889513      6713.1864      10112.159    
     57000   290.11157     -3247.5932     -3264.3556      16.762439      6515.523       10112.159    
     57100   290.30418     -3247.495      -3264.2685      16.773568      6527.7816      10112.159    
     57200   300.33204     -3246.1735     -3263.5265      17.35297       7154.0694      10112.159    
     57300   301.9318      -3245.3658     -3262.8112      17.445404      7232.049       10112.159    
     57400   312.63979     -3245.5209     -3263.585       18.064104      6795.9665      10112.159    
     57500   297.06615     -3246.8371     -3264.0014      17.164269      6881.025       10112.159    
     57600   281.28169     -3247.8899     -3264.1421      16.252255      6500.538       10112.159    
     57700   300.23116     -3247.5448     -3264.892       17.347142      6427.7158      10112.159    
     57800   289.06418     -3246.8979     -3263.5998      16.701922      6956.4757      10112.159    
     57900   316.12985     -3245.6444     -3263.9101      18.265757      6708.2415      10112.159    
     58000   295.68891     -3245.9418     -3263.0265      17.084694      7055.8856      10112.159    
     58100   306.64106     -3246.3359     -3264.0534      17.717501      6776.2845      10112.159    
     58200   276.98679     -3248.0399     -3264.044       16.004098      6740.1681      10112.159    
     58300   291.06383     -3248.3161     -3265.1336      16.81746       6311.8272      10112.159    
     58400   302.22501     -3247.3413     -3264.8036      17.462345      6518.3696      10112.159    
     58500   297.43635     -3246.5484     -3263.734       17.185659      6601.8315      10112.159    
     58600   298.81755     -3246.1448     -3263.4103      17.265464      6885.8782      10112.159    
     58700   312.85904     -3245.9695     -3264.0462      18.076771      6808.8924      10112.159    
     58800   283.79917     -3246.9828     -3263.3805      16.397713      6683.1576      10112.159    
     58900   290.10175     -3248.4543     -3265.2162      16.761872      6427.0052      10112.159    
     59000   287.10844     -3248.6901     -3265.279       16.58892       6369.8931      10112.159    
     59100   282.18108     -3247.5004     -3263.8047      16.304221      6900.3344      10112.159    
     59200   295.39239     -3246.9535     -3264.0211      17.067561      6783.7789      10112.159    
     59300   295.98958     -3246.3141     -3263.4161      17.102066      6829.624       10112.159    
     59400   314.66907     -3245.4335     -3263.6148      18.181354      6944.1354      10112.159    
     59500   310.4996      -3245.7933     -3263.7338      17.940445      6975.1771      10112.159    
     59600   293.57545     -3247.1727     -3264.1353      16.962579      6685.1423      10112.159    
     59700   280.28049     -3247.967      -3264.1614      16.194406      6462.316       10112.159    
     59800   295.84849     -3247.2938     -3264.3878      17.093914      6578.9577      10112.159    
     59900   319.80854     -3245.1558     -3263.6341      18.478309      7068.9553      10112.159    
     60000   307.27742     -3245.1159     -3262.8702      17.75427       7061.2165      10112.159    
     60100   309.27521     -3245.8616     -3263.7313      17.869701      6902.5781      10112.159    
     60200   278.26155     -3247.3045     -3263.3823      16.077754      6946.8156      10112.159    
     60300   308.54682     -3247.0646     -3264.8922      17.827615      6403.3086      10112.159    
     60400   306.59897     -3246.5413     -3264.2563      17.715069      6847.5291      10112.159    
     60500   299.86429     -3245.3961     -3262.722       17.325944      7062.9739      10112.159    
     60600   323.50415     -3243.786      -3262.4778      18.691839      7511.1344      10112.159    
     60700   304.66773     -3244.792      -3262.3955      17.603484      7250.2947      10112.159    
     60800   319.32175     -3245.9876     -3264.4377      18.450182      6695.0559      10112.159    
     60900   297.22095     -3246.7502     -3263.9234      17.173214      6794.6692      10112.159    
     61000   298.04746     -3246.81       -3264.0309      17.220969      6835.4199      10112.159    
     61100   295.32514     -3246.7223     -3263.786       17.063675      6815.7144      10112.159    
     61200   291.39198     -3246.6962     -3263.5326      16.83642       6959.5049      10112.159    
     61300   308.64179     -3245.6475     -3263.4806      17.833102      7063.0445      10112.159    
     61400   308.68043     -3245.0591     -3262.8944      17.835334      7061.7777      10112.159    
     61500   305.59129     -3245.3107     -3262.9676      17.656846      7053.0158      10112.159    
     61600   301.74728     -3246.8219     -3264.2566      17.434742      6754.2954      10112.159    
     61700   278.39398     -3247.8207     -3263.9061      16.085405      6664.8386      10112.159    
     61800   298.63708     -3247.2359     -3264.4909      17.255037      6463.4856      10112.159    
     61900   289.48578     -3246.6752     -3263.4015      16.726281      6811.7849      10112.159    
     62000   306.1755      -3246.2311     -3263.9217      17.690601      6823.2471      10112.159    
     62100   312.44864     -3246.0719     -3264.125       18.053059      6668.6392      10112.159    
     62200   302.38297     -3246.2119     -3263.6834      17.471472      6907.9174      10112.159    
     62300   286.49737     -3246.6154     -3263.169       16.553613      6800.1171      10112.159    
     62400   305.66598     -3246.5993     -3264.2605      17.661162      6809.9934      10112.159    
     62500   306.1625      -3246.6419     -3264.3318      17.68985       6534.7886      10112.159    
     62600   285.69147     -3246.8794     -3263.3864      16.507049      6771.8172      10112.159    
     62700   299.56218     -3246.1059     -3263.4144      17.308489      6951.1747      10112.159    
     62800   315.59425     -3245.4538     -3263.6886      18.23481       6882.6212      10112.159    
     62900   311.18714     -3245.6193     -3263.5995      17.98017       7013.9643      10112.159    
     63000   280.33043     -3247.0464     -3263.2436      16.197292      6799.7519      10112.159    
     63100   292.54263     -3247.6929     -3264.5958      16.902904      6553.3214      10112.159    
     63200   296.60295     -3247.3741     -3264.5116      17.137507      6261.8816      10112.159    
     63300   311.11574     -3245.6162     -3263.5923      17.976045      6905.8631      10112.159    
     63400   300.97534     -3245.4194     -3262.8095      17.39014       7023.7016      10112.159    
     63500   314.07549     -3245.6806     -3263.8276      18.147057      6762.9932      10112.159    
     63600   286.43202     -3246.9012     -3263.4511      16.549837      6903.7053      10112.159    
     63700   312.16874     -3247.0591     -3265.096       18.036886      6484.0191      10112.159    
     63800   284.98537     -3247.1613     -3263.6276      16.466251      6840.3661      10112.159    
     63900   296.47611     -3246.6977     -3263.8278      17.130178      6764.9898      10112.159    
     64000   296.09115     -3246.4948     -3263.6027      17.107935      6821.3889      10112.159    
     64100   308.30503     -3246.0277     -3263.8414      17.813644      6661.4425      10112.159    
     64200   314.69758     -3245.8361     -3264.0191      18.183001      6724.9975      10112.159    
     64300   301.0063      -3246.5297     -3263.9217      17.391929      6825.4528      10112.159    
     64400   273.21046     -3247.8919     -3263.6778      15.785905      6697.1287      10112.159    
     64500   296.58886     -3247.6819     -3264.8186      17.136692      6465.4671      10112.159    
     64600   306.24219     -3246.2981     -3263.9926      17.694455      6749.6293      10112.159    
     64700   297.04099     -3245.6077     -3262.7705      17.162816      7113.1917      10112.159    
     64800   308.48756     -3245.6647     -3263.4889      17.824191      6906.1505      10112.159    
     64900   293.55536     -3246.7602     -3263.7216      16.961419      7056.5709      10112.159    
     65000   296.65393     -3247.0985     -3264.2389      17.140452      6689.0136      10112.159    
     65100   305.26363     -3246.7085     -3264.3464      17.637914      6646.7842      10112.159    
     65200   296.84402     -3246.3588     -3263.5102      17.151435      7065.5225      10112.159    
     65300   318.49722     -3244.2217     -3262.6242      18.402541      7353.8281      10112.159    
     65400   310.58873     -3244.1646     -3262.1102      17.945594      7312.3502      10112.159    
     65500   308.01453     -3245.6084     -3263.4052      17.796859      6943.0238      10112.159    
     65600   311.07336     -3246.6505     -3264.6241      17.973596      6637.8287      10112.159    
     65700   289.0704      -3247.0531     -3263.7554      16.702281      6757.7589      10112.159    
     65800   288.70957     -3246.7049     -3263.3863      16.681432      7045.833       10112.159    
     65900   313.28093     -3245.5549     -3263.6561      18.101148      6821.1888      10112.159    
     66000   324.15215     -3244.1679     -3262.8971      18.729279      7052.283       10112.159    
     66100   312.41604     -3244.9542     -3263.0054      18.051175      7063.2818      10112.159    
     66200   303.18837     -3245.6208     -3263.1388      17.518007      7198.6753      10112.159    
     66300   285.93714     -3246.4758     -3262.9971      16.521243      6917.9887      10112.159    
     66400   299.41171     -3247.2299     -3264.5297      17.299794      6671.55        10112.159    
     66500   298.8153      -3247.4449     -3264.7103      17.265334      6435.5828      10112.159    
     66600   298.83945     -3246.2648     -3263.5315      17.26673       6839.3078      10112.159    
     66700   308.20636     -3244.9575     -3262.7655      17.807943      6985.7183      10112.159    
     66800   316.31434     -3245.3274     -3263.6038      18.276417      6888.377       10112.159    
     66900   292.0923      -3246.4375     -3263.3144      16.876884      6997.4203      10112.159    
     67000   296.51004     -3246.7527     -3263.8848      17.132138      6521.5167      10112.159    
     67100   291.05442     -3246.7146     -3263.5315      16.816916      7049.6352      10112.159    
     67200   307.37923     -3245.7137     -3263.4739      17.760152      6873.04        10112.159    
     67300   320.75348     -3244.0613     -3262.5942      18.532907      7301.8362      10112.159    
     67400   304.94854     -3244.5397     -3262.1594      17.619709      7321.6698      10112.159    
     67500   307.84589     -3246.2201     -3264.0072      17.787116      6804.2246      10112.159    
     67600   294.18868     -3246.9956     -3263.9936      16.998012      6862.0002      10112.159    
     67700   295.37548     -3246.846      -3263.9126      17.066584      6860.5891      10112.159    
     67800   308.05089     -3246.0286     -3263.8276      17.79896       6799.9702      10112.159    
     67900   309.97234     -3245.5473     -3263.4573      17.90998       6921.533       10112.159    
     68000   304.25797     -3245.9733     -3263.5531      17.579808      7146.7629      10112.159    
     68100   288.99781     -3247.4678     -3264.1659      16.698087      6630.1185      10112.159    
     68200   284.18297     -3247.7946     -3264.2145      16.419889      6730.136       10112.159    
     68300   302.41887     -3246.8147     -3264.2882      17.473546      6614.8216      10112.159    
     68400   307.32265     -3245.8477     -3263.6045      17.756883      7087.0272      10112.159    
     68500   297.95396     -3245.5556     -3262.7711      17.215567      7438.9246      10112.159    
     68600   314.16698     -3246.0019     -3264.1542      18.152343      6722.1         10112.159    
     68700   296.79541     -3248.0587     -3265.2073      17.148627      6413.0653      10112.159    
     68800   281.99754     -3248.0259     -3264.3196      16.293616      6627.0149      10112.159    
     68900   290.3374      -3246.7118     -3263.4873      16.775487      6996.418       10112.159    
     69000   312.91432     -3245.643      -3263.723       18.079965      6898.2838      10112.159    
     69100   294.26645     -3245.8972     -3262.8997      17.002505      7344.6644      10112.159    
     69200   310.1188      -3246.4395     -3264.3579      17.918442      6906.3509      10112.159    
     69300   285.61283     -3248.0188     -3264.5213      16.502505      6599.6962      10112.159    
     69400   285.94646     -3247.6629     -3264.1846      16.521782      6983.2246      10112.159    
     69500   293.58649     -3246.9906     -3263.9538      16.963217      6788.1791      10112.159    
     69600   304.55274     -3246.502      -3264.0989      17.596839      6627.6438      10112.159    
     69700   295.37712     -3246.2549     -3263.3215      17.066679      6918.4569      10112.159    
     69800   297.94945     -3245.7973     -3263.0126      17.215306      7309.7588      10112.159    
     69900   323.23291     -3244.5536     -3263.2297      18.676167      7315.8442      10112.159    
     70000   311.4974      -3244.8353     -3262.8334      17.998097      7178.3586      10112.159    
     70100   308.02817     -3246.3121     -3264.1097      17.797647      6929.5824      10112.159    
     70200   282.81379     -3247.2833     -3263.6241      16.340779      6484.9418      10112.159    
     70300   316.14006     -3246.8037     -3265.07        18.266346      6631.7027      10112.159    
     70400   286.56828     -3246.8289     -3263.3866      16.55771       6779.2492      10112.159    
     70500   302.99103     -3245.539      -3263.0456      17.506605      7095.9206      10112.159    
     70600   328.70402     -3244.1794     -3263.1717      18.992283      7250.3924      10112.159    
     70700   294.1182      -3245.1683     -3262.1623      16.993939      7380.7319      10112.159    
     70800   315.69859     -3245.9367     -3264.1776      18.240839      7058.3024      10112.159    
     70900   292.96375     -3246.7386     -3263.6658      16.927236      6995.4975      10112.159    
     71000   298.60372     -3246.9932     -3264.2463      17.253109      6817.9734      10112.159    
     71100   292.20578     -3247.0093     -3263.8927      16.883441      6862.1504      10112.159    
     71200   307.99025     -3245.0476     -3262.8431      17.795457      7054.6321      10112.159    
     71300   316.01014     -3244.5674     -3262.8262      18.25884       7259.8269      10112.159    
     71400   307.9659      -3245.4829     -3263.2769      17.79405       7005.0201      10112.159    
     71500   301.88963     -3246.4612     -3263.9042      17.442967      6890.5009      10112.159    
     71600   304.12021     -3246.8088     -3264.3807      17.571848      6648.102       10112.159    
     71700   290.99152     -3246.9345     -3263.7478      16.813282      7047.3432      10112.159    
     71800   294.20656     -3246.2576     -3263.2567      16.999044      6926.6817      10112.159    
     71900   325.10984     -3244.3197     -3263.1043      18.784614      7200.3918      10112.159    
     72000   310.93364     -3245.0282     -3262.9937      17.965523      7066.1077      10112.159    
     72100   302.10253     -3246.0168     -3263.472       17.455268      6880.9208      10112.159    
     72200   305.43136     -3246.4685     -3264.1161      17.647606      6798.9552      10112.159    
     72300   289.22464     -3247.0356     -3263.7467      16.711193      6733.5569      10112.159    
     72400   290.14327     -3247.6298     -3264.3941      16.76427       6567.4519      10112.159    
     72500   292.62158     -3248.2047     -3265.1122      16.907465      6223.1358      10112.159    
     72600   312.27627     -3247.0346     -3265.0777      18.043099      6570.1965      10112.159    
     72700   283.52264     -3246.2126     -3262.5944      16.381735      7345.8862      10112.159    
     72800   297.60605     -3245.4285     -3262.624       17.195465      7493.0384      10112.159    
     72900   311.90638     -3245.583      -3263.6048      18.021727      7236.4459      10112.159    
     73000   310.74788     -3246.1086     -3264.0634      17.95479       6902.5572      10112.159    
     73100   297.39675     -3246.5371     -3263.7205      17.183372      6791.3931      10112.159    
     73200   290.13829     -3246.7054     -3263.4694      16.763983      6892.7148      10112.159    
     73300   289.19736     -3246.4901     -3263.1997      16.709617      6946.2599      10112.159    
     73400   312.85283     -3245.2892     -3263.3656      18.076413      7097.3078      10112.159    
     73500   333.05346     -3244.8244     -3264.068       19.243591      6830.2968      10112.159    
     73600   298.37263     -3246.1561     -3263.3959      17.239757      7029.6199      10112.159    
     73700   286.91558     -3246.9563     -3263.534       16.577777      7008.4627      10112.159    
     73800   294.48733     -3247.0138     -3264.0291      17.015267      6871.1648      10112.159    
     73900   284.06767     -3247.0032     -3263.4165      16.413227      6701.7362      10112.159    
     74000   322.68716     -3245.1779     -3263.8225      18.644633      7077.0099      10112.159    
     74100   321.9951      -3244.2617     -3262.8664      18.604646      7049.6153      10112.159    
     74200   310.81716     -3245.137      -3263.0958      17.958793      7118.6879      10112.159    
     74300   280.72702     -3246.5214     -3262.7416      16.220207      7245.7727      10112.159    
     74400   302.42251     -3246.7642     -3264.238       17.473757      6705.5671      10112.159    
     74500   314.08072     -3246.7384     -3264.8858      18.147359      6354.2128      10112.159    
     74600   294.28352     -3246.3988     -3263.4023      17.003492      6915.8921      10112.159    
     74700   316.19111     -3244.8877     -3263.157       18.269296      7165.5553      10112.159    
     74800   303.72134     -3245.0482     -3262.597       17.548802      7160.3537      10112.159    
     74900   283.35996     -3246.6169     -3262.9893      16.372336      6991.5977      10112.159    
     75000   314.797       -3247.0139     -3265.2027      18.188746      6621.7399      10112.159    
     75100   288.25095     -3247.3535     -3264.0084      16.654934      6542.2609      10112.159    
     75200   291.75073     -3246.702      -3263.5592      16.857148      6957.6688      10112.159    
     75300   302.76187     -3245.7254     -3263.2187      17.493364      6961.3243      10112.159    
     75400   306.28921     -3245.5958     -3263.293       17.697172      7199.431       10112.159    
[...]
    281800   300.92162     -3245.1691     -3262.5561      17.387036      7313.3364      10112.159    
    281900   311.6221      -3245.3605     -3263.3658      18.005302      6808.1665      10112.159    
    282000   295.13145     -3246.9818     -3264.0342      17.052484      6591.1737      10112.159    
    282100   288.03732     -3247.3455     -3263.988       16.642591      6764.4649      10112.159    
    282200   297.03095     -3247.002      -3264.1642      17.162236      6818.6144      10112.159    
    282300   317.32613     -3245.7304     -3264.0653      18.334877      6631.1326      10112.159    
    282400   313.06696     -3244.5136     -3262.6023      18.088785      7370.5585      10112.159    
    282500   304.49726     -3245.0586     -3262.6522      17.593634      7022.7885      10112.159    
    282600   310.71072     -3245.8502     -3263.8028      17.952643      6967.1221      10112.159    
    282700   295.32896     -3246.6222     -3263.6861      17.063896      6455.2881      10112.159    
    282800   304.17804     -3246.6203     -3264.1955      17.57519       6764.6367      10112.159    
    282900   302.84172     -3246.4913     -3263.9892      17.497978      6633.1853      10112.159    
    283000   298.41709     -3246.2303     -3263.4726      17.242326      7005.8179      10112.159    
    283100   292.70885     -3245.5146     -3262.4271      16.912508      7073.2276      10112.159    
    283200   321.00149     -3244.7882     -3263.3355      18.547237      7177.4217      10112.159    
    283300   293.70367     -3245.8374     -3262.8074      16.969988      7038.6661      10112.159    
    283400   298.53102     -3247.0759     -3264.3248      17.248909      6812.5872      10112.159    
    283500   296.65622     -3247.6313     -3264.7719      17.140584      6432.35        10112.159    
    283600   285.70809     -3247.1231     -3263.6311      16.508009      6996.6489      10112.159    
    283700   296.31421     -3246.4071     -3263.5279      17.120823      6812.5674      10112.159    
    283800   298.01138     -3246.149      -3263.3679      17.218885      7036.2748      10112.159    
    283900   294.20311     -3246.0323     -3263.0311      16.998845      7042.1086      10112.159    
    284000   311.39431     -3245.9993     -3263.9914      17.99214       6974.7035      10112.159    
    284100   295.07688     -3247.0297     -3264.079       17.049331      6568.9618      10112.159    
    284200   292.33695     -3247.2383     -3264.1293      16.89102       6779.7782      10112.159    
    284300   292.2645      -3246.5325     -3263.4193      16.886834      7046.5593      10112.159    
    284400   299.97474     -3245.2528     -3262.5851      17.332326      7200.7761      10112.159    
    284500   331.62943     -3244.2169     -3263.3782      19.161311      7032.6202      10112.159    
    284600   304.5363      -3245.0703     -3262.6662      17.595889      7352.8974      10112.159    
    284700   303.98544     -3245.9276     -3263.4916      17.564062      6804.104       10112.159    
    284800   293.83656     -3246.5228     -3263.5004      16.977666      6945.8198      10112.159    
    284900   304.58973     -3246.6615     -3264.2605      17.598977      6672.3135      10112.159    
    285000   290.60519     -3247.1089     -3263.8999      16.79096       6676.5165      10112.159    
    285100   292.29229     -3247.0892     -3263.9776      16.88844       6592.8061      10112.159    
    285200   295.18866     -3246.263      -3263.3188      17.05579       6830.6313      10112.159    
    285300   318.13906     -3245.1542     -3263.5361      18.381848      7279.5024      10112.159    
    285400   301.50541     -3245.6272     -3263.048       17.420767      7174.7809      10112.159    
    285500   304.17196     -3246.9426     -3264.5174      17.574838      6761.7861      10112.159    
    285600   290.76673     -3248.0644     -3264.8647      16.800294      6343.7993      10112.159    
    285700   286.0024      -3247.8512     -3264.3762      16.525014      6568.3293      10112.159    
    285800   301.19302     -3247.0525     -3264.4553      17.402718      6361.649       10112.159    
    285900   295.47292     -3246.1546     -3263.2268      17.072214      6930.2343      10112.159    
    286000   296.4763      -3245.6604     -3262.7906      17.130189      7273.7895      10112.159    
    286100   312.84551     -3245.7636     -3263.8396      18.07599       6898.7629      10112.159    
    286200   292.50749     -3247.5326     -3264.4335      16.900873      6418.0281      10112.159    
    286300   292.51509     -3248.1835     -3265.0848      16.901313      6448.717       10112.159    
    286400   287.76245     -3247.6188     -3264.2455      16.626708      6572.7361      10112.159    
    286500   295.62325     -3246.467      -3263.5479      17.0809        6875.2913      10112.159    
    286600   303.32461     -3246.0373     -3263.5632      17.525879      6773.9358      10112.159    
    286700   305.12596     -3246.0082     -3263.6382      17.62996       6867.7798      10112.159    
    286800   300.02197     -3246.2988     -3263.6338      17.335055      6900.4389      10112.159    
    286900   277.55254     -3247.4721     -3263.5089      16.036787      6770.8329      10112.159    
    287000   292.46946     -3248.2456     -3265.1442      16.898676      6252.8527      10112.159    
    287100   298.71931     -3247.8602     -3265.12        17.259788      6443.3651      10112.159    
    287200   291.24604     -3246.0702     -3262.8982      16.827988      7089.3914      10112.159    
    287300   305.02639     -3245.4589     -3263.0831      17.624206      7160.0058      10112.159    
    287400   300.61655     -3245.9397     -3263.3091      17.369409      6823.6888      10112.159    
    287500   296.53537     -3246.7874     -3263.921       17.133601      6484.4303      10112.159    
    287600   301.49688     -3247.5668     -3264.9871      17.420274      6288.503       10112.159    
    287700   281.16827     -3249.0412     -3265.2869      16.245701      6246.8857      10112.159    
    287800   278.01952     -3248.4217     -3264.4855      16.063769      6446.6124      10112.159    
    287900   289.53026     -3247.0685     -3263.7974      16.728851      6763.5106      10112.159    
    288000   302.36292     -3246.2152     -3263.6855      17.470313      6937.7907      10112.159    
    288100   310.67141     -3245.6736     -3263.624       17.950372      6894.8112      10112.159    
    288200   312.96302     -3245.6333     -3263.7161      18.08278       6972.99        10112.159    
    288300   283.31001     -3246.7807     -3263.1502      16.36945       6973.3885      10112.159    
    288400   293.45336     -3247.4064     -3264.3619      16.955525      6523.7354      10112.159    
    288500   300.95541     -3247.1015     -3264.4905      17.388988      6551.5645      10112.159    
    288600   305.6576      -3245.7636     -3263.4243      17.660678      7177.6876      10112.159    
    288700   316.23321     -3244.5036     -3262.7753      18.271729      7143.7113      10112.159    
    288800   312.6345      -3245.3686     -3263.4324      18.063798      7036.7025      10112.159    
    288900   300.73775     -3246.1331     -3263.5095      17.376412      6770.1657      10112.159    
    289000   300.26279     -3246.4666     -3263.8155      17.348969      6871.1136      10112.159    
    289100   285.99515     -3247.4528     -3263.9774      16.524595      6691.8662      10112.159    
    289200   291.58015     -3247.9562     -3264.8035      16.847293      6447.006       10112.159    
    289300   308.24077     -3246.3301     -3264.14        17.809931      6523.5954      10112.159    
    289400   305.56119     -3245.2686     -3262.9237      17.655107      7197.539       10112.159    
    289500   311.11291     -3245.2518     -3263.2277      17.975881      7281.3571      10112.159    
    289600   284.75424     -3246.5667     -3263.0196      16.452896      6854.3938      10112.159    
    289700   301.21362     -3247.103      -3264.5069      17.403908      6566.271       10112.159    
    289800   286.42088     -3247.4164     -3263.9656      16.549194      6713.2052      10112.159    
    289900   308.76936     -3245.98       -3263.8205      17.840473      6749.6978      10112.159    
    290000   322.2568      -3244.4643     -3263.0841      18.619768      7085.6537      10112.159    
    290100   299.35619     -3245.3483     -3262.6449      17.296587      7238.8959      10112.159    
    290200   299.19487     -3246.5248     -3263.8121      17.287266      6731.683       10112.159    
    290300   294.11466     -3246.7562     -3263.75        16.993734      6859.7231      10112.159    
    290400   302.8053      -3246.5005     -3263.9963      17.495874      6833.8459      10112.159    
    290500   305.6948      -3246.2478     -3263.9106      17.662827      6732.1959      10112.159    
    290600   298.25134     -3245.0908     -3262.3235      17.232749      7357.1535      10112.159    
    290700   303.14171     -3245.0026     -3262.5179      17.515311      7412.3868      10112.159    
    290800   306.56813     -3246.0198     -3263.7331      17.713287      6709.071       10112.159    
    290900   301.70964     -3246.8127     -3264.2453      17.432567      6648.1997      10112.159    
    291000   284.6012      -3247.4301     -3263.8742      16.444054      6747.5891      10112.159    
    291100   286.73326     -3247.1089     -3263.6761      16.567243      6841.5399      10112.159    
    291200   311.88179     -3245.0096     -3263.0299      18.020307      7253.9566      10112.159    
    291300   322.95205     -3244.6819     -3263.3418      18.659939      7000.7308      10112.159    
    291400   297.75876     -3245.8843     -3263.0886      17.204288      7114.9593      10112.159    
    291500   289.1565      -3247.0065     -3263.7137      16.707256      6868.1975      10112.159    
    291600   305.8376      -3247.0156     -3264.6866      17.671078      6348.9791      10112.159    
    291700   279.75357     -3247.161      -3263.3249      16.163961      6942.3661      10112.159    
    291800   314.05456     -3245.7431     -3263.889       18.145848      6938.5569      10112.159    
    291900   312.79278     -3244.8146     -3262.8876      18.072943      7208.069       10112.159    
    292000   307.41384     -3245.0349     -3262.797       17.762152      7033.7091      10112.159    
    292100   296.02503     -3246.8275     -3263.9317      17.104114      6849.0301      10112.159    
    292200   290.78219     -3247.5757     -3264.3769      16.801187      6664.6828      10112.159    
    292300   300.04071     -3247.1199     -3264.456       17.336138      6572.375       10112.159    
    292400   306.86267     -3245.8895     -3263.6199      17.730306      6996.205       10112.159    
    292500   307.26992     -3245.4563     -3263.2101      17.753836      6985.9272      10112.159    
    292600   297.93893     -3245.96       -3263.1747      17.214698      6949.8968      10112.159    
    292700   294.80189     -3246.369      -3263.4024      17.033442      6838.0376      10112.159    
    292800   300.30091     -3246.6066     -3263.9578      17.351172      6868.4868      10112.159    
    292900   297.23869     -3246.685      -3263.8593      17.174239      6889.7441      10112.159    
    293000   302.20397     -3246.2238     -3263.6849      17.461129      6852.5583      10112.159    
    293100   302.56661     -3245.9055     -3263.3876      17.482082      7081.4831      10112.159    
    293200   297.00766     -3246.5217     -3263.6826      17.16089       6631.8232      10112.159    
    293300   283.34629     -3248.0205     -3264.3921      16.371546      6392.4847      10112.159    
    293400   292.8944      -3247.8566     -3264.7798      16.923229      6334.6721      10112.159    
    293500   305.14838     -3246.6446     -3264.2759      17.631255      6632.8611      10112.159    
    293600   298.99905     -3246.1109     -3263.3868      17.275951      6815.3887      10112.159    
    293700   305.58246     -3245.9125     -3263.5688      17.656336      6830.0958      10112.159    
    293800   310.59809     -3246.1727     -3264.1189      17.946135      6953.2507      10112.159    
    293900   293.58959     -3246.4819     -3263.4453      16.963397      6813.7566      10112.159    
    294000   293.78598     -3246.4828     -3263.4576      16.974744      6711.9924      10112.159    
    294100   309.59935     -3246.5465     -3264.4349      17.888429      6660.0588      10112.159    
    294200   300.06491     -3246.4364     -3263.7739      17.337536      6852.0846      10112.159    
    294300   302.92825     -3246.022      -3263.5249      17.502978      7010.6582      10112.159    
    294400   293.18826     -3246.2757     -3263.2159      16.940208      6951.7161      10112.159    
    294500   298.45524     -3247.0743     -3264.3189      17.24453       6557.6278      10112.159    
    294600   275.0377      -3247.9866     -3263.8781      15.891482      6582.8107      10112.159    
    294700   314.76005     -3246.9437     -3265.1303      18.186611      6482.5573      10112.159    
    294800   289.62704     -3246.2317     -3262.9661      16.734443      6900.5184      10112.159    
    294900   297.43199     -3245.5004     -3262.6858      17.185408      7043.9423      10112.159    
    295000   311.76903     -3245.5605     -3263.5743      18.013792      7023.834       10112.159    
    295100   309.6341      -3245.8043     -3263.6948      17.890437      6759.886       10112.159    
    295200   297.69628     -3246.5803     -3263.781       17.200678      6713.4079      10112.159    
    295300   284.31178     -3247.148      -3263.5753      16.427331      6877.4391      10112.159    
    295400   311.58284     -3246.616      -3264.619       18.003033      6615.1282      10112.159    
    295500   310.18687     -3245.8934     -3263.8158      17.922376      6805.5432      10112.159    
    295600   303.25255     -3244.807      -3262.3287      17.521715      7357.6222      10112.159    
    295700   310.5095      -3244.9753     -3262.9163      17.941017      7109.2615      10112.159    
    295800   311.30999     -3246.3809     -3264.3682      17.987269      6611.9388      10112.159    
    295900   294.42648     -3247.0327     -3264.0444      17.011751      7084.6458      10112.159    
    296000   297.58299     -3247.0092     -3264.2034      17.194132      6617.1225      10112.159    
    296100   284.75573     -3246.4215     -3262.8745      16.452982      7053.2536      10112.159    
    296200   328.6049      -3245.0898     -3264.0763      18.986556      6818.938       10112.159    
    296300   306.20277     -3245.6088     -3263.301       17.692177      7060.228       10112.159    
    296400   294.35078     -3246.3096     -3263.317       17.007377      6824.1592      10112.159    
    296500   297.43286     -3246.9953     -3264.1808      17.185458      6416.8454      10112.159    
    296600   297.97508     -3247.426      -3264.6428      17.216787      6388.4837      10112.159    
    296700   304.09964     -3246.9294     -3264.5         17.57066       6714.5297      10112.159    
    296800   298.20803     -3245.7576     -3262.9879      17.230247      7066.3405      10112.159    
    296900   317.24871     -3245.2104     -3263.5408      18.330404      6966.3932      10112.159    
    297000   307.57576     -3245.9409     -3263.7124      17.771507      6830.6531      10112.159    
    297100   298.94594     -3247.0134     -3264.2863      17.272882      6763.9114      10112.159    
    297200   280.37978     -3248.062      -3264.2621      16.200143      6615.1281      10112.159    
    297300   295.82063     -3247.502      -3264.5943      17.092305      6458.51        10112.159    
    297400   294.48719     -3247.1176     -3264.1329      17.015259      6506.71        10112.159    
    297500   308.88277     -3246.3468     -3264.1938      17.847025      6705.4003      10112.159    
    297600   299.55741     -3245.9008     -3263.209       17.308213      6751.4734      10112.159    
    297700   317.10364     -3245.3253     -3263.6473      18.322022      6904.6614      10112.159    
    297800   297.27913     -3245.3979     -3262.5745      17.176575      7342.5833      10112.159    
    297900   302.89341     -3246.4733     -3263.9743      17.500965      6696.9486      10112.159    
    298000   285.01531     -3247.5701     -3264.0381      16.467981      6620.2285      10112.159    
    298100   289.96884     -3247.4035     -3264.1577      16.754192      6717.3235      10112.159    
    298200   311.91503     -3246.0535     -3264.0757      18.022227      6822.5718      10112.159    
    298300   312.27646     -3245.1666     -3263.2097      18.04311       7107.884       10112.159    
    298400   308.4572      -3245.548      -3263.3705      17.822436      6990.0413      10112.159    
    298500   305.83097     -3245.7529     -3263.4236      17.670695      7214.9692      10112.159    
    298600   294.09751     -3246.5011     -3263.4939      16.992744      7068.6186      10112.159    
    298700   295.83357     -3247.3916     -3264.4846      17.093052      6586.629       10112.159    
    298800   289.25558     -3247.4397     -3264.1527      16.712981      6512.3976      10112.159    
    298900   308.58405     -3245.486      -3263.3158      17.829766      7021.0324      10112.159    
    299000   324.13233     -3244.5326     -3263.2608      18.728134      7410.9171      10112.159    
    299100   303.74289     -3245.8117     -3263.3618      17.550047      6808.2746      10112.159    
    299200   297.84037     -3246.4755     -3263.6845      17.209004      6714.0884      10112.159    
    299300   292.25167     -3246.9854     -3263.8715      16.886092      6977.966       10112.159    
    299400   291.15037     -3247.7028     -3264.5253      16.82246       6594.7683      10112.159    
    299500   298.85768     -3247.7497     -3265.0175      17.267783      6294.4134      10112.159    
    299600   302.92195     -3246.2594     -3263.762       17.502614      6902.027       10112.159    
    299700   290.1215      -3245.4773     -3262.2403      16.763013      7199.8162      10112.159    
    299800   313.75598     -3245.406      -3263.5346      18.128596      7158.2015      10112.159    
    299900   308.20888     -3246.5837     -3264.3917      17.808089      6541.4145      10112.159    
    300000   294.74766     -3247.645      -3264.6753      17.030309      6480.0687      10112.159    
Loop time of 2258.15 on 20 procs for 300000 steps with 448 atoms

Performance: 11.478 ns/day, 2.091 hours/ns, 132.852 timesteps/s, 59.518 katom-step/s
99.9% CPU use with 20 MPI tasks x 1 OpenMP threads

MPI task timing breakdown:
Section |  min time  |  avg time  |  max time  |%varavg| %total
---------------------------------------------------------------
Pair    | 1750.9     | 1999.1     | 2158.6     | 407.4 | 88.53
Neigh   | 20.246     | 28.433     | 34.989     | 120.9 |  1.26
Comm    | 61.355     | 227.5      | 484.01     |1250.5 | 10.07
Output  | 0.35893    | 0.59396    | 0.65903    |   7.9 |  0.03
Modify  | 2.053      | 2.2408     | 2.5287     |   8.4 |  0.10
Other   |            | 0.2856     |            |       |  0.01

Nlocal:           22.4 ave          24 max          17 min
Histogram: 1 0 1 0 4 1 0 0 1 12
Nghost:          495.9 ave         523 max         466 min
Histogram: 4 0 0 6 2 0 0 0 1 7
Neighs:              0 ave           0 max           0 min
Histogram: 20 0 0 0 0 0 0 0 0 0
FullNghs:       1277.9 ave        1375 max         972 min
Histogram: 1 0 1 0 4 1 0 0 1 12

Total # of neighbors = 25558
Ave neighs/atom = 57.049107
Neighbor list builds = 300000
Dangerous builds not checked
Total wall time: 0:37:38
