LAMMPS (27 Jun 2024)
OMP_NUM_THREADS environment is not set. Defaulting to 1 thread. (src/comm.cpp:98)
  using 1 OpenMP thread(s) per MPI task
Reading data file ...
  orthogonal box = (0 0 0) to (44.844435 44.38448 40.643788)
  5 by 2 by 2 MPI processor grid
  reading atoms ...
  3584 atoms
  read_data CPU = 0.021 seconds
**************** Begin of POD Potentials ****************
species: Hf 
periodic boundary conditions: 1 1 1
number of environment clusters: 8
number of principal compoments: 2
inner cut-off radius: 1
outer cut-off radius: 5
cut-off function type: 1
gaussian_exponents: 
polynomial_degrees: 
bessel polynomial degree: 4
inverse polynomial degree: 10
one-body potential: 1
two-body radial basis functions: 8
three-body radial basis functions: 8
three-body angular degree: 6
four-body radial basis functions: 7
four-body angular degree: 5
five-body radial basis functions: 0
five-body angular degree: 0
six-body radial basis functions: 0
six-body angular degree: 0
seven-body radial basis functions: 0
seven-body angular degree: 0
number of local descriptors per element for one-body potential: 1
number of local descriptors per element for two-body potential: 8
number of local descriptors per element for three-body potential: 56
number of local descriptors per element for four-body potential: 112
number of local descriptors per element for five-body potential: 0
number of local descriptors per element for six-body potential: 0
number of local descriptors per element for seven-body potential: 0
number of local descriptors per element for all potentials: 177
number of global descriptors: 1409
**************** End of POD Potentials ****************

**************** Begin of Model Coefficients ****************
total number of coefficients for POD potential: 1409
total number of elements for PCA projection matrix: 352
total number of elements for PCA centroids: 16
**************** End of Model Coefficients ****************


CITE-CITE-CITE-CITE-CITE-CITE-CITE-CITE-CITE-CITE-CITE-CITE-CITE

Your simulation uses code contributions which should be cited:
- Type Label Framework: https://doi.org/10.1021/acs.jpcb.3c08419
The log file lists these citations in BibTeX format.

CITE-CITE-CITE-CITE-CITE-CITE-CITE-CITE-CITE-CITE-CITE-CITE-CITE

Neighbor list info ...
  update: every = 1 steps, delay = 0 steps, check = no
  max neighbors/atom: 2000, page size: 100000
  master list distance cutoff = 7
  ghost atom cutoff = 7
  binsize = 3.5, bins = 13 13 12
  1 neighbor lists, perpetual/occasional/extra = 1 0 0
  (1) pair pod, perpetual
      attributes: full, newton on
      pair build: full/bin/atomonly
      stencil: full/bin/3d
      bin: standard
Setting up Verlet run ...
  Unit style    : metal
  Current step  : 0
  Time step     : 0.001
Per MPI rank memory allocation (min/avg/max) = 2.609 | 2.609 | 2.613 Mbytes
   Step          Temp          TotEng         PotEng         KinEng         Press          Volume    
         0   300           -26111.045     -26249.986      138.94173      1834.5017      80897.271    
       100   92.833091     -26105.715     -26148.709      42.994634      3780.5483      80897.271    
       200   151.96457     -26088.294     -26158.675      70.380732      4275.1877      80897.271    
       300   187.67251     -26067.421     -26154.339      86.918476      4426.1089      80897.271    
       400   241.2274      -26045.765     -26157.487      111.72184      4237.9882      80897.271    
       500   274.77144     -26022.262     -26149.519      127.2574       5020.0828      80897.271    
       600   249.92689     -26000.266     -26116.017      115.75092      6326.1862      80897.271    
       700   267.08188     -25980.335     -26104.031      123.69606      7102.6226      80897.271    
       800   297.25014     -25965.544     -26103.212      137.66816      7191.945       80897.271    
       900   324.45832     -25957.43      -26107.699      150.26934      6931.6219      80897.271    
      1000   321.42247     -25960.966     -26109.83       148.86331      6919.9868      80897.271    
      1100   299.67949     -25971.261     -26110.054      138.79329      6937.3087      80897.271    
      1200   281.82016     -25979.089     -26109.611      130.52193      6881.1754      80897.271    
      1300   281.35732     -25980.312     -26110.619      130.30758      6602.9771      80897.271    
      1400   306.23808     -25973.615     -26115.446      141.83083      6702.3264      80897.271    
      1500   305.59077     -25967.66      -26109.191      141.53103      6771.1846      80897.271    
      1600   309.75919     -25963.38      -26106.842      143.46159      7071.277       80897.271    
      1700   312.06254     -25963.874     -26108.402      144.52836      7088.8045      80897.271    
      1800   284.34997     -25971.894     -26103.588      131.69359      6982.9899      80897.271    
      1900   300.69418     -25976.253     -26115.516      139.26323      6605.886       80897.271    
      2000   290.88595     -25978.347     -26113.068      134.72066      6665.7953      80897.271    
      2100   306.31171     -25971.262     -26113.127      141.86493      6654.6918      80897.271    
      2200   307.34634     -25965.98      -26108.324      142.34411      7084.2543      80897.271    
      2300   293.04214     -25966.638     -26102.358      135.71927      7197.6728      80897.271    
      2400   301.62456     -25969.353     -26109.047      139.69413      6940.4159      80897.271    
      2500   299.44588     -25973.629     -26112.314      138.6851       6581.8051      80897.271    
      2600   307.03191     -25974.631     -26116.829      142.19848      6459.9937      80897.271    
      2700   287.64099     -25974.926     -26108.144      133.21779      6912.7294      80897.271    
      2800   300.21633     -25969.812     -26108.854      139.04192      6964.5044      80897.271    
      2900   301.93904     -25967.736     -26107.576      139.83978      6948.844       80897.271    
      3000   302.20104     -25967.999     -26107.96       139.96112      6889.9139      80897.271    
      3100   308.93053     -25969.433     -26112.51       143.07781      6820.7004      80897.271    
      3200   294.15235     -25972.751     -26108.984      136.23346      6826.1156      80897.271    
      3300   303.04263     -25973.156     -26113.506      140.35089      6790.9815      80897.271    
      3400   292.36217     -25974.245     -26109.649      135.40435      6848.297       80897.271    
      3500   299.11446     -25970.379     -26108.911      138.5316       6920.4477      80897.271    
      3600   305.58095     -25967.201     -26108.728      141.52649      6891.8286      80897.271    
      3700   304.86947     -25967.593     -26108.79       141.19697      6948.387       80897.271    
      3800   306.1532      -25969.642     -26111.433      141.79152      6905.5114      80897.271    
      3900   293.83889     -25974.027     -26110.116      136.08828      6866.8562      80897.271    
      4000   290.32188     -25976.298     -26110.758      134.45941      6778.9306      80897.271    
      4100   306.86526     -25973.387     -26115.508      142.1213       6530.6073      80897.271    
      4200   296.82791     -25970.119     -26107.592      137.47261      6903.8348      80897.271    
      4300   308.37947     -25965.34      -26108.162      142.82259      7082.0193      80897.271    
      4400   291.54848     -25966.78      -26101.807      135.0275       7144.8891      80897.271    
      4500   309.65469     -25968.272     -26111.685      143.41319      6874.9805      80897.271    
      4600   298.21628     -25974.73      -26112.846      138.11562      6692.7831      80897.271    
      4700   294.78696     -25976.79      -26113.317      136.52737      6734.2896      80897.271    
      4800   294.53201     -25973.441     -26109.85       136.40929      6805.6039      80897.271    
      4900   296.16689     -25968.856     -26106.023      137.16647      6951.0284      80897.271    
      5000   311.67552     -25963.609     -26107.959      144.34912      7049.0523      80897.271    
      5100   304.52964     -25966.168     -26107.207      141.03958      6979.1589      80897.271    
      5200   297.51144     -25972.785     -26110.574      137.78918      6791.3591      80897.271    
      5300   293.40662     -25976.824     -26112.712      135.88808      6661.4764      80897.271    
      5400   299.31622     -25974.659     -26113.284      138.62505      6691.6917      80897.271    
      5500   296.8919      -25970.342     -26107.845      137.50225      6829.6534      80897.271    
      5600   306.80793     -25966.762     -26108.857      142.09475      6969.9809      80897.271    
      5700   294.70782     -25968.254     -26104.745      136.49071      7020.5655      80897.271    
      5800   303.30265     -25969.802     -26110.273      140.47131      6858.4781      80897.271    
      5900   300.33375     -25972.064     -26111.16       139.0963       6699.4469      80897.271    
      6000   301.16099     -25972.518     -26111.997      139.47943      6793.535       80897.271    
      6100   291.67461     -25973.714     -26108.8        135.08592      6880.3731      80897.271    
      6200   303.06677     -25971.325     -26111.687      140.36207      6695.4121      80897.271    
      6300   299.70566     -25969.959     -26108.765      138.80541      6910.3034      80897.271    
      6400   303.38393     -25968.864     -26109.373      140.50896      6874.0793      80897.271    
      6500   305.4228      -25968.533     -26109.986      141.45324      6916.1651      80897.271    
      6600   294.83037     -25971.505     -26108.053      136.54747      6875.5352      80897.271    
      6700   299.64046     -25973.282     -26112.057      138.77521      6744.5303      80897.271    
      6800   298.36648     -25973.597     -26111.782      138.18518      6830.2275      80897.271    
      6900   301.14581     -25970.611     -26110.083      139.4724       6664.1077      80897.271    
      7000   301.12316     -25968.806     -26108.268      139.46191      6932.366       80897.271    
      7100   301.57908     -25968.232     -26107.905      139.67307      6862.7696      80897.271    
      7200   298.94887     -25969.555     -26108.01       138.45491      6886.7595      80897.271    
      7300   300.38837     -25972.192     -26111.314      139.1216       6806.8417      80897.271    
      7400   297.81206     -25974.576     -26112.504      137.92841      6748.3304      80897.271    
      7500   288.65644     -25976.647     -26110.335      133.68808      6754.8771      80897.271    
      7600   302.82896     -25972.163     -26112.415      140.25193      6765.5101      80897.271    
      7700   299.821       -25969.196     -26108.055      138.85883      6873.1599      80897.271    
      7800   301.06619     -25968.413     -26107.849      139.43552      6920.8305      80897.271    
      7900   295.85495     -25970.547     -26107.569      137.02199      6880.9607      80897.271    
      8000   306.7384      -25970.252     -26112.315      142.06254      6644.5255      80897.271    
      8100   295.95525     -25972.092     -26109.161      137.06845      6866.8582      80897.271    
      8200   296.76887     -25974.726     -26112.171      137.44527      6678.3055      80897.271    
      8300   288.48793     -25978.287     -26111.897      133.61004      6657.3946      80897.271    
      8400   296.0221      -25976.422     -26113.522      137.09941      6701.9362      80897.271    
      8500   299.51129     -25971.868     -26110.584      138.71539      6767.8824      80897.271    
      8600   296.67557     -25969.478     -26106.88       137.40205      6839.6361      80897.271    
      8700   306.3697      -25967.674     -26109.566      141.89179      6906.9395      80897.271    
      8800   295.35285     -25971.273     -26108.062      136.78946      6810.6132      80897.271    
      8900   297.97134     -25972.709     -26110.711      138.00218      6764.0915      80897.271    
      9000   305.342       -25971.082     -26112.498      141.41582      6697.2927      80897.271    
      9100   297.87584     -25971.621     -26109.579      137.95795      6878.623       80897.271    
      9200   299.37656     -25970.95      -26109.603      138.65299      6795.1141      80897.271    
      9300   297.52844     -25970.686     -26108.483      137.79705      6962.3787      80897.271    
      9400   301.19387     -25970.215     -26109.71       139.49466      6768.4855      80897.271    
      9500   307.18735     -25970.201     -26112.472      142.27047      6787.4184      80897.271    
      9600   291.59429     -25971.133     -26106.182      135.04872      6871.7682      80897.271    
      9700   295.27088     -25970.628     -26107.379      136.75149      6968.7055      80897.271    
      9800   304.19375     -25970.077     -26110.961      140.88402      6721.6008      80897.271    
      9900   303.94188     -25970.431     -26111.198      140.76737      6768.497       80897.271    
     10000   298.64707     -25971.951     -26110.266      138.31514      6788.2686      80897.271    
     10100   296.70461     -25974.276     -26111.691      137.41551      6719.1622      80897.271    
     10200   294.27273     -25975.42      -26111.709      136.28921      6633.6675      80897.271    
     10300   298.76341     -25971.621     -26109.99       138.36902      6862.2688      80897.271    
     10400   297.17875     -25969.39      -26107.025      137.6351       7032.6162      80897.271    
     10500   306.59258     -25968.679     -26110.674      141.99501      6892.9935      80897.271    
     10600   303.74177     -25970.911     -26111.586      140.67469      6778.5062      80897.271    
     10700   287.72665     -25975.552     -26108.81       133.25746      6865.3037      80897.271    
     10800   301.10195     -25973.9       -26113.352      139.45209      6782.7743      80897.271    
     10900   294.79201     -25972.874     -26109.404      136.52971      6874.4535      80897.271    
     11000   302.53297     -25969.661     -26109.776      140.11485      6811.6019      80897.271    
     11100   303.17494     -25968.104     -26108.516      140.41217      6958.2682      80897.271    
     11200   299.46129     -25968.807     -26107.499      138.69223      6902.8398      80897.271    
     11300   303.76401     -25970.372     -26111.057      140.68499      6830.5203      80897.271    
     11400   302.33866     -25971.392     -26111.417      140.02485      6848.0832      80897.271    
     11500   298.37484     -25971.472     -26109.662      138.18905      6824.2058      80897.271    
     11600   299.41253     -25971.424     -26110.094      138.66965      6832.3428      80897.271    
     11700   296.62932     -25973.663     -26111.044      137.38064      6807.0926      80897.271    
     11800   298.57336     -25974.457     -26112.738      138.281        6706.9118      80897.271    
     11900   300.90305     -25972.043     -26111.403      139.35997      6800.2802      80897.271    
     12000   296.64132     -25969.007     -26106.393      137.38619      7084.2069      80897.271    
     12100   303.81146     -25967.53      -26108.237      140.70697      6910.2248      80897.271    
     12200   301.18338     -25969.638     -26109.128      139.4898       6985.062       80897.271    
     12300   296.35509     -25972.173     -26109.426      137.25363      6741.0242      80897.271    
     12400   301.61123     -25972.436     -26112.124      139.68795      6775.0707      80897.271    
     12500   296.1933      -25971.735     -26108.913      137.1787       6835.39        80897.271    
     12600   297.04266     -25969.71      -26107.282      137.57207      6933.0539      80897.271    
     12700   304.40402     -25967.862     -26108.843      140.9814       6883.9866      80897.271    
     12800   299.70998     -25970.52      -26109.328      138.80741      6899.4735      80897.271    
     12900   296.87881     -25973.388     -26110.885      137.49619      6814.5854      80897.271    
     13000   297.74119     -25972.752     -26110.647      137.89559      6839.6026      80897.271    
     13100   303.23901     -25969.676     -26110.118      140.44184      6903.168       80897.271    
     13200   304.34842     -25967.826     -26108.781      140.95565      6905.9614      80897.271    
     13300   303.51292     -25969.026     -26109.595      140.5687       6903.0698      80897.271    
     13400   300.80074     -25970.717     -26110.03       139.31259      6877.9724      80897.271    
     13500   289.67596     -25972.017     -26106.177      134.16026      6978.8843      80897.271    
     13600   304.90347     -25969.214     -26110.426      141.21272      6840.0295      80897.271    
     13700   309.19527     -25968.279     -26111.48       143.20042      6943.8119      80897.271    
     13800   293.65646     -25972.873     -26108.876      136.00379      6873.6647      80897.271    
     13900   293.75017     -25975.23      -26111.277      136.04719      6932.1229      80897.271    
     14000   292.32098     -25974.037     -26109.422      135.38527      6815.6936      80897.271    
     14100   311.72251     -25969.797     -26114.168      144.37088      6790.0082      80897.271    
     14200   297.09464     -25970.302     -26107.898      137.59615      6960.0156      80897.271    
     14300   297.73022     -25970.02      -26107.911      137.89051      6894.6805      80897.271    
     14400   299.60174     -25970.191     -26108.948      138.75728      6867.7609      80897.271    
     14500   302.12468     -25970.31      -26110.236      139.92575      6820.422       80897.271    
     14600   301.7241      -25971.442     -26111.182      139.74023      6925.981       80897.271    
     14700   291.74221     -25973.027     -26108.144      135.11723      6838.9594      80897.271    
     14800   299.26373     -25972.657     -26111.258      138.60074      6879.4822      80897.271    
     14900   303.56341     -25969.762     -26110.354      140.59208      6862.5218      80897.271    
     15000   301.71719     -25966.437     -26106.174      139.73703      6961.5767      80897.271    
     15100   307.34539     -25966.695     -26109.038      142.34367      6979.2146      80897.271    
     15200   300.46141     -25969.992     -26109.148      139.15542      6861.8201      80897.271    
     15300   300.49801     -25971.406     -26110.579      139.17238      6771.9184      80897.271    
     15400   295.78795     -25972.413     -26109.404      136.99097      6778.6671      80897.271    
     15500   303.35658     -25970.475     -26110.972      140.49629      6907.1765      80897.271    
     15600   303.35927     -25968.014     -26108.512      140.49754      6916.9874      80897.271    
     15700   302.47776     -25965.321     -26105.41       140.08928      7105.3243      80897.271    
     15800   300.2682      -25966.484     -26105.55       139.06595      6970.2656      80897.271    
     15900   307.49121     -25970.594     -26113.005      142.4112       6698.5896      80897.271    
     16000   298.42053     -25973.165     -26111.376      138.21022      6732.6868      80897.271    
     16100   297.26614     -25973.323     -26110.999      137.67557      6685.3221      80897.271    
     16200   298.87917     -25971.473     -26109.896      138.42263      6834.4706      80897.271    
     16300   306.49903     -25966.825     -26108.777      141.95168      6910.7525      80897.271    
     16400   306.21627     -25966.448     -26108.269      141.82073      6892.7496      80897.271    
     16500   301.00468     -25968.904     -26108.311      139.40704      6956.413       80897.271    
     16600   298.5936      -25971.224     -26109.514      138.29037      6838.7218      80897.271    
     16700   295.38022     -25973.05      -26109.852      136.80213      6782.3352      80897.271    
     16800   303.44996     -25971.546     -26112.085      140.53954      6635.8289      80897.271    
     16900   297.70852     -25969.212     -26107.092      137.88046      6841.6851      80897.271    
     17000   306.96047     -25965.377     -26107.543      142.1654       6957.192       80897.271    
     17100   314.27487     -25960.926     -26106.479      145.55298      7105.9535      80897.271    
     17200   302.06506     -25963.466     -26103.364      139.89814      7022.1556      80897.271    
     17300   307.86916     -25968.203     -26110.789      142.58624      6866.7093      80897.271    
     17400   299.53381     -25971.752     -26110.477      138.72582      6787.1015      80897.271    
     17500   293.82738     -25973.443     -26109.526      136.08295      6832.6561      80897.271    
     17600   298.1946      -25972.215     -26110.32       138.10558      6828.3888      80897.271    
     17700   306.42693     -25968.623     -26110.541      141.91829      6777.2719      80897.271    
     17800   301.86358     -25967.612     -26107.417      139.80483      6916.4696      80897.271    
     17900   299.74111     -25969.498     -26108.319      138.82183      6837.3988      80897.271    
     18000   298.46524     -25974.65      -26112.881      138.23092      6647.9817      80897.271    
     18100   296.59188     -25974.786     -26112.15       137.3633       6713.7659      80897.271    
     18200   299.63905     -25971.516     -26110.29       138.77456      6789.7423      80897.271    
     18300   304.51724     -25968.858     -26109.892      141.03384      6867.3719      80897.271    
     18400   299.09085     -25969.521     -26108.042      138.52067      6903.3068      80897.271    
     18500   300.54251     -25970.264     -26109.457      139.19299      6812.6277      80897.271    
     18600   300.67469     -25970.873     -26110.127      139.2542       6812.6512      80897.271    
     18700   297.9885      -25971.432     -26109.442      138.01013      6771.3809      80897.271    
     18800   302.48295     -25971.817     -26111.908      140.09168      6717.9021      80897.271    
     18900   295.92515     -25973.024     -26110.079      137.05451      6688.8648      80897.271    
     19000   294.843       -25971.738     -26108.292      136.55332      6805.6322      80897.271    
     19100   302.89607     -25968.601     -26108.884      140.28301      6938.2012      80897.271    
     19200   304.72527     -25968.122     -26109.252      141.13019      6809.9689      80897.271    
     19300   301.41392     -25971.29      -26110.886      139.59657      6765.1028      80897.271    
     19400   292.26125     -25975.524     -26110.881      135.35761      6623.7715      80897.271    
     19500   299.01908     -25974.805     -26113.293      138.48743      6642.1775      80897.271    
     19600   292.71782     -25972.926     -26108.495      135.56907      6855.334       80897.271    
     19700   299.0453      -25970.619     -26109.119      138.49957      6857.8168      80897.271    
     19800   302.7868      -25969.974     -26110.206      140.23241      6792.3454      80897.271    
     19900   301.71129     -25970.923     -26110.658      139.7343       6797.7543      80897.271    
     20000   295.82681     -25974.021     -26111.03       137.00896      6672.2127      80897.271    
     20100   294.71199     -25976.458     -26112.951      136.49265      6578.4141      80897.271    
     20200   293.55332     -25975.438     -26111.394      135.95602      6713.4062      80897.271    
     20300   302.69992     -25970.034     -26110.226      140.19217      6732.8449      80897.271    
     20400   303.11808     -25968.608     -26108.994      140.38583      6882.5844      80897.271    
     20500   299.52693     -25968.898     -26107.62       138.72263      6858.4466      80897.271    
     20600   299.97951     -25971.077     -26110.009      138.93224      6779.1927      80897.271    
     20700   298.57169     -25975.011     -26113.291      138.28022      6669.36        80897.271    
     20800   293.47524     -25974.993     -26110.913      135.91986      6683.74        80897.271    
     20900   299.48958     -25972.033     -26110.738      138.70534      6753.8835      80897.271    
     21000   296.13435     -25971.125     -26108.277      137.1514       6903.7512      80897.271    
     21100   303.2245      -25969.305     -26109.74       140.43512      6881.8435      80897.271    
     21200   304.97015     -25968.785     -26110.028      141.2436       6773.9836      80897.271    
     21300   296.25337     -25972.737     -26109.943      137.20652      6733.5006      80897.271    
     21400   292.95644     -25974.929     -26110.609      135.67958      6720.9619      80897.271    
     21500   301.23952     -25972.839     -26112.355      139.5158       6702.4671      80897.271    
     21600   307.42159     -25969.882     -26112.261      142.37896      6698.9984      80897.271    
     21700   305.75124     -25967.748     -26109.353      141.60535      6756.7872      80897.271    
     21800   300.67998     -25963.739     -26102.996      139.25665      7088.8721      80897.271    
     21900   305.3869      -25962.609     -26104.046      141.43662      7076.1982      80897.271    
     22000   310.36339     -25967.561     -26111.303      143.74142      6853.9858      80897.271    
     22100   299.1363      -25970.869     -26109.411      138.54172      6879.7959      80897.271    
     22200   301.4321      -25972.013     -26111.618      139.60499      6757.8265      80897.271    
     22300   294.81018     -25973.128     -26109.666      136.53812      6807.3232      80897.271    
     22400   298.36903     -25971.117     -26109.304      138.18636      6788.8266      80897.271    
     22500   305.34943     -25967         -26108.419      141.41926      6891.208       80897.271    
     22600   303.16932     -25966.596     -26107.006      140.40957      6968.3923      80897.271    
     22700   303.82656     -25969.647     -26110.361      140.71396      6739.5955      80897.271    
     22800   299.56281     -25970.962     -26109.701      138.73925      6725.9902      80897.271    
     22900   297.41293     -25970.663     -26108.407      137.74356      6887.7961      80897.271    
     23000   299.68874     -25970.102     -26108.899      138.79757      6817.7767      80897.271    
     23100   304.53436     -25971.145     -26112.187      141.04177      6727.6657      80897.271    
     23200   290.9323      -25974.835     -26109.577      134.74212      6769.2389      80897.271    
     23300   301.28162     -25972.976     -26112.511      139.5353       6651.9293      80897.271    
     23400   297.66047     -25970.306     -26108.164      137.8582       6849.6101      80897.271    
     23500   301.66897     -25966.848     -26106.562      139.7147       6902.5579      80897.271    
     23600   311.91502     -25961.824     -26106.284      144.46004      6995.865       80897.271    
     23700   306.87166     -25962.239     -26104.363      142.12427      6946.1931      80897.271    
     23800   307.17479     -25968.558     -26110.823      142.26465      6900.24        80897.271    
     23900   299.17319     -25972.349     -26110.907      138.5588       6703.5866      80897.271    
     24000   293.03651     -25973.699     -26109.416      135.71667      6786.1503      80897.271    
     24100   304.05502     -25971.45      -26112.27       140.81977      6668.7548      80897.271    
     24200   298.92473     -25969.871     -26108.314      138.44373      6870.7604      80897.271    
     24300   305.20654     -25966.324     -26107.677      141.35308      6896.0155      80897.271    
     24400   308.37532     -25965.892     -26108.713      142.82067      6929.7618      80897.271    
     24500   297.44357     -25972.07      -26109.828      137.75775      6723.6874      80897.271    
     24600   296.98187     -25973.102     -26110.646      137.54392      6798.0591      80897.271    
     24700   300.30588     -25971.418     -26110.501      139.0834       6759.996       80897.271    
     24800   302.14072     -25968.766     -26108.699      139.93318      6919.77        80897.271    
     24900   305.14413     -25967.201     -26108.525      141.32418      6837.0143      80897.271    
     25000   299.13667     -25970.441     -26108.983      138.54189      6743.7853      80897.271    
     25100   297.66161     -25974.478     -26112.337      137.85873      6634.8739      80897.271    
     25200   295.82254     -25974.074     -26111.081      137.00699      6676.1532      80897.271    
     25300   302.73079     -25971.623     -26111.829      140.20646      6688.6928      80897.271    
     25400   296.69532     -25970.901     -26108.313      137.4112       6843.9546      80897.271    
     25500   307.20366     -25967.975     -26110.253      142.27803      6769.7402      80897.271    
     25600   300.78258     -25968.47      -26107.774      139.30417      6828.4415      80897.271    
     25700   300.39389     -25968.677     -26107.802      139.12416      6798.4523      80897.271    
     25800   304.1809      -25969.291     -26110.169      140.87807      6807.6609      80897.271    
     25900   298.76328     -25972.233     -26110.602      138.36896      6663.8034      80897.271    
     26000   295.69522     -25974.564     -26111.512      136.94802      6688.8013      80897.271    
     26100   296.33906     -25974.192     -26111.438      137.24621      6663.3999      80897.271    
     26200   304.34001     -25968.651     -26109.603      140.95176      6753.8744      80897.271    
     26300   299.97141     -25967.89      -26106.818      138.92849      6841.563       80897.271    
     26400   303.0409      -25968.943     -26109.293      140.35009      6765.9898      80897.271    
     26500   297.56017     -25972.582     -26110.393      137.81175      6754.4496      80897.271    
     26600   296.53625     -25973.857     -26111.194      137.33753      6714.8504      80897.271    
     26700   299.96788     -25973.363     -26112.29       138.92685      6640.3582      80897.271    
     26800   297.64401     -25972.282     -26110.133      137.85058      6724.3425      80897.271    
     26900   299.61059     -25970.205     -26108.966      138.76138      6827.1457      80897.271    
     27000   300.20573     -25968.563     -26107.6        139.03701      6844.8639      80897.271    
     27100   303.47585     -25968.59      -26109.142      140.55153      6896.4353      80897.271    
     27200   296.56924     -25973.615     -26110.968      137.35281      6692.6559      80897.271    
     27300   296.17302     -25975.162     -26112.331      137.1693       6731.6374      80897.271    
     27400   298.31735     -25973.033     -26111.195      138.16243      6709.317       80897.271    
     27500   296.87797     -25970.031     -26107.527      137.4958       6815.091       80897.271    
     27600   304.01464     -25968.65      -26109.451      140.80107      6830.1334      80897.271    
     27700   301.8015      -25970.186     -26109.962      139.77607      6821.9715      80897.271    
     27800   296.72216     -25972.035     -26109.458      137.42363      6850.6607      80897.271    
     27900   297.84387     -25972.81      -26110.753      137.94314      6817.9804      80897.271    
     28000   295.68144     -25974.275     -26111.216      136.94164      6711.999       80897.271    
     28100   303.79884     -25971.747     -26112.448      140.70112      6735.2284      80897.271    
     28200   304.99367     -25968.685     -26109.939      141.25449      6820.0345      80897.271    
     28300   303.56404     -25968.088     -26108.681      140.59238      6847.8183      80897.271    
     28400   300.94433     -25970.118     -26109.497      139.37909      6857.0304      80897.271    
     28500   290.64743     -25975.052     -26109.663      134.61019      6723.7623      80897.271    
     28600   297.79043     -25975.327     -26113.245      137.91839      6643.0658      80897.271    
     28700   300.54804     -25973.1       -26112.295      139.19555      6683.3114      80897.271    
     28800   303.824       -25970.344     -26111.057      140.71277      6780.2236      80897.271    
     28900   292.72532     -25970.574     -26106.147      135.57254      6937.9121      80897.271    
     29000   302.4982      -25969.443     -26109.541      140.09874      6823.8526      80897.271    
     29100   296.53788     -25970.526     -26107.864      137.33829      6875.779       80897.271    
     29200   301.03914     -25973.515     -26112.938      139.423        6719.8782      80897.271    
     29300   296.22469     -25975.729     -26112.922      137.19324      6677.947       80897.271    
     29400   293.13625     -25973.407     -26109.17       135.76286      6772.3138      80897.271    
     29500   300.26909     -25970.67      -26109.736      139.06636      6859.6114      80897.271    
     29600   299.5179      -25970.151     -26108.869      138.71845      6801.9058      80897.271    
     29700   308.54584     -25969.374     -26112.273      142.89964      6772.5215      80897.271    
     29800   293.71724     -25971.525     -26107.557      136.03194      6852.7626      80897.271    
     29900   300.27832     -25971.893     -26110.964      139.07063      6827.996       80897.271    
     30000   297.0384      -25974.087     -26111.657      137.5701       6711.3555      80897.271    
     30100   299.30593     -25973.4       -26112.021      138.62028      6619.0855      80897.271    
     30200   297.51158     -25970.26      -26108.049      137.78924      6743.7301      80897.271    
     30300   302.20649     -25967.931     -26107.895      139.96364      6858.434       80897.271    
     30400   305.0581      -25968.522     -26109.806      141.28434      6829.3897      80897.271    
     30500   295.96689     -25973.788     -26110.862      137.07384      6825.067       80897.271    
     30600   295.84514     -25974.338     -26111.356      137.01745      6675.3074      80897.271    
     30700   300.31636     -25972.32      -26111.408      139.08825      6763.8613      80897.271    
     30800   295.97039     -25970.324     -26107.399      137.07546      6890.7703      80897.271    
     30900   307.28165     -25966.956     -26109.27       142.31415      6844.5469      80897.271    
     31000   301.93138     -25968.023     -26107.859      139.83623      6863.8313      80897.271    
     31100   305.91171     -25968.588     -26110.267      141.67968      6786.8543      80897.271    
     31200   300.08002     -25971.452     -26110.431      138.97879      6707.8194      80897.271    
     31300   294.73518     -25972.973     -26109.476      136.50339      6715.0494      80897.271    
     31400   300.1732      -25972.085     -26111.107      139.02195      6757.7788      80897.271    
     31500   302.51079     -25969.565     -26109.67       140.10457      6803.7208      80897.271    
     31600   304.21554     -25965.501     -26106.395      140.89411      6894.178       80897.271    
     31700   303.8839      -25967.389     -26108.129      140.74052      6871.1875      80897.271    
     31800   303.18405     -25970.369     -26110.786      140.41639      6825.4888      80897.271    
     31900   297.34877     -25972.135     -26109.849      137.71384      6793.5615      80897.271    
     32000   300.82611     -25972.35      -26111.674      139.32434      6769.7968      80897.271    
     32100   296.86759     -25972.712     -26110.203      137.49099      6757.5014      80897.271    
     32200   304.5645      -25968.162     -26109.217      141.05573      6897.9244      80897.271    
     32300   301.96575     -25965.959     -26105.811      139.85215      6937.9903      80897.271    
     32400   300.87093     -25968.296     -26107.641      139.34509      6927.0827      80897.271    
     32500   302.23946     -25971.426     -26111.405      139.97891      6701.1382      80897.271    
     32600   296.82766     -25973.292     -26110.764      137.4725       6744.118       80897.271    
     32700   299.07525     -25972.298     -26110.811      138.51344      6796.5168      80897.271    
     32800   299.63277     -25971.5       -26110.272      138.77165      6766.1369      80897.271    
     32900   305.29998     -25970.623     -26112.02       141.39636      6843.087       80897.271    
     33000   296.20069     -25970.881     -26108.063      137.18212      6831.9179      80897.271    
     33100   297.96026     -25970.492     -26108.489      137.99705      6777.24        80897.271    
     33200   307.04156     -25969.743     -26111.946      142.20295      6776.1008      80897.271    
     33300   301.07472     -25971.433     -26110.872      139.43947      6662.5208      80897.271    
     33400   299.83286     -25974.173     -26113.037      138.86432      6655.9332      80897.271    
     33500   292.7641      -25975.297     -26110.888      135.5905       6716.113       80897.271    
     33600   295.44223     -25971.585     -26108.416      136.83085      6780.3471      80897.271    
     33700   311.02043     -25967.709     -26111.755      144.04572      6767.4406      80897.271    
     33800   299.69294     -25970.027     -26108.827      138.79952      6781.4058      80897.271    
     33900   301.61927     -25971.298     -26110.989      139.69168      6762.6584      80897.271    
     34000   293.3209      -25973.402     -26109.251      135.84838      6838.8694      80897.271    
     34100   295.48765     -25974.81      -26111.662      136.85188      6693.1882      80897.271    
     34200   296.64812     -25974.172     -26111.561      137.38934      6730.943       80897.271    
     34300   302.38437     -25970.161     -26110.207      140.04603      6728.1454      80897.271    
     34400   304.32637     -25967.514     -26108.459      140.94544      6856.5617      80897.271    
     34500   300.41798     -25967.997     -26107.133      139.13531      6952.6805      80897.271    
     34600   297.71708     -25971.823     -26109.707      137.88442      6767.6409      80897.271    
     34700   301.36307     -25973.548     -26113.121      139.57302      6613.4517      80897.271    
     34800   298.52858     -25973.112     -26111.372      138.26026      6701.0278      80897.271    
     34900   293.8551      -25971.81      -26107.905      136.09579      6813.6117      80897.271    
     35000   304.73131     -25968.781     -26109.914      141.13298      6821.8825      80897.271    
     35100   297.90609     -25968.715     -26106.687      137.97196      6809.7341      80897.271    
     35200   309.29673     -25968.396     -26111.643      143.24741      6829.8556      80897.271    
     35300   296.08297     -25971.848     -26108.975      137.1276       6706.8356      80897.271    
     35400   304.09971     -25972.225     -26113.066      140.84047      6728.9445      80897.271    
     35500   290.67126     -25974.222     -26108.843      134.62122      6702.0816      80897.271    
     35600   301.09212     -25971.341     -26110.788      139.44754      6791.1838      80897.271    
     35700   305.33863     -25968.116     -26109.53       141.41426      6720.1379      80897.271    
     35800   305.9432      -25967.936     -26109.63       141.69426      6864.2595      80897.271    
     35900   300.12118     -25970.168     -26109.166      138.99785      6736.3165      80897.271    
     36000   297.58141     -25970.721     -26108.543      137.82158      6785.0478      80897.271    
     36100   303.54181     -25970.173     -26110.755      140.58208      6662.0484      80897.271    
     36200   292.20507     -25972.086     -26107.417      135.33159      6796.2846      80897.271    
     36300   299.23774     -25971.604     -26110.193      138.5887       6613.4956      80897.271    
     36400   300.25927     -25969.426     -26108.488      139.06181      6905.7464      80897.271    
     36500   307.29226     -25966.955     -26109.274      142.31906      6817.1645      80897.271    
     36600   299.53381     -25968.166     -26106.892      138.72582      6877.7158      80897.271    
     36700   300.39356     -25971.92      -26111.044      139.124        6684.2892      80897.271    
     36800   295.45053     -25974.454     -26111.289      136.83469      6729.1837      80897.271    
     36900   294.21215     -25973.632     -26109.893      136.26115      6772.1187      80897.271    
     37000   297.05744     -25971.643     -26109.222      137.57891      6760.8771      80897.271    
     37100   306.13419     -25969.604     -26111.387      141.78271      6742.1396      80897.271    
     37200   299.07099     -25969.913     -26108.424      138.51147      6870.4498      80897.271    
     37300   297.72376     -25971.217     -26109.104      137.88752      6860.3192      80897.271    
     37400   293.9512      -25975.43      -26111.57       136.14029      6658.8361      80897.271    
     37500   298.73719     -25975.172     -26113.529      138.35687      6603.6331      80897.271    
     37600   293.32113     -25972         -26107.849      135.84849      6842.3996      80897.271    
     37700   300.64508     -25968.623     -26107.863      139.24049      6861.8904      80897.271    
     37800   305.09912     -25968.227     -26109.531      141.30333      6772.0883      80897.271    
     37900   304.31643     -25970.156     -26111.097      140.94084      6750.076       80897.271    
     38000   294.53262     -25974.116     -26110.526      136.40957      6728.37        80897.271    
     38100   289.12589     -25974.543     -26108.448      133.90551      6859.9403      80897.271    
     38200   303.38296     -25972.533     -26113.041      140.50851      6684.259       80897.271    
     38300   302.10149     -25971.465     -26111.38       139.91501      6673.4974      80897.271    
     38400   299.27393     -25969.528     -26108.133      138.60546      6883.5445      80897.271    
     38500   297.25774     -25968.738     -26106.409      137.67168      6925.3838      80897.271    
     38600   301.63973     -25970.634     -26110.336      139.70116      6758.9929      80897.271    
     38700   299.09623     -25975.215     -26113.738      138.52316      6640.1886      80897.271    
     38800   294.74252     -25975.902     -26112.409      136.50679      6596.2977      80897.271    
     38900   301.44629     -25971.838     -26111.449      139.61156      6749.9323      80897.271    
     39000   297.29137     -25969.948     -26107.635      137.68726      6851.3662      80897.271    
     39100   302.34073     -25968.732     -26108.758      140.02581      6768.334       80897.271    
     39200   303.10887     -25969.367     -26109.748      140.38157      6852.4589      80897.271    
     39300   294.87848     -25974.525     -26111.095      136.56975      6714.6615      80897.271    
     39400   294.95579     -25975.674     -26112.28       136.60556      6680.4423      80897.271    
     39500   299.97309     -25972.88      -26111.81       138.92927      6711.0412      80897.271    
     39600   300.64782     -25970.551     -26109.792      139.24176      6871.7751      80897.271    
     39700   295.54625     -25970.433     -26107.312      136.87902      6858.5491      80897.271    
     39800   307.15586     -25969.741     -26111.997      142.25589      6754.7962      80897.271    
     39900   300.99632     -25971.743     -26111.146      139.40317      6701.849       80897.271    
     40000   288.58623     -25976.297     -26109.953      133.65557      6738.3003      80897.271    
     40100   294.84257     -25976.356     -26112.909      136.55312      6669.3188      80897.271    
     40200   300.38953     -25971.82      -26110.942      139.12214      6739.3366      80897.271    
     40300   302.22538     -25970.154     -26110.127      139.97239      6765.4129      80897.271    
     40400   299.55014     -25970.608     -26109.341      138.73338      6865.1497      80897.271    
     40500   299.63028     -25971.501     -26110.272      138.7705       6806.5992      80897.271    
     40600   300.96184     -25973.281     -26112.668      139.38719      6745.2855      80897.271    
     40700   294.40445     -25975.274     -26111.625      136.35021      6582.9438      80897.271    
     40800   297.84772     -25972.234     -26110.179      137.94492      6796.6625      80897.271    
     40900   299.79932     -25968.679     -26107.528      138.84879      6811.5457      80897.271    
     41000   308.32109     -25967.793     -26110.589      142.79555      6867.7682      80897.271    
     41100   299.72328     -25970.387     -26109.2        138.81357      6780.5299      80897.271    
     41200   296.30296     -25971.94      -26109.169      137.22949      6883.9988      80897.271    
     41300   298.73531     -25971.714     -26110.07       138.356        6750.9956      80897.271    
     41400   303.17534     -25970.671     -26111.083      140.41235      6784.6788      80897.271    
     41500   300.3975      -25971.185     -26110.311      139.12583      6793.2811      80897.271    
     41600   291.41413     -25974.523     -26109.488      134.96528      6728.4462      80897.271    
     41700   298.23915     -25977.262     -26115.388      138.12621      6532.1201      80897.271    
     41800   297.30828     -25974.866     -26112.561      137.69509      6693.9383      80897.271    
     41900   297.68658     -25970.328     -26108.199      137.8703       6835.3411      80897.271    
     42000   297.91347     -25969.703     -26107.679      137.97537      6900.3587      80897.271    
     42100   299.28955     -25971.226     -26109.839      138.61269      6788.8475      80897.271    
     42200   302.45503     -25972.914     -26112.992      140.07875      6649.5991      80897.271    
     42300   293.72491     -25973.34      -26109.376      136.03549      6796.8582      80897.271    
     42400   299.50547     -25969.246     -26107.959      138.71269      6942.7305      80897.271    
     42500   300.74025     -25967.799     -26107.084      139.28457      7019.2414      80897.271    
     42600   305.71879     -25969.558     -26111.148      141.59032      6734.5545      80897.271    
     42700   299.69603     -25973.774     -26112.575      138.80095      6678.6721      80897.271    
     42800   293.71976     -25974.424     -26110.457      136.03311      6694.8923      80897.271    
     42900   297.50366     -25972.186     -26109.971      137.78558      6809.4009      80897.271    
     43000   299.33214     -25970.218     -26108.85       138.63242      6855.0829      80897.271    
     43100   302.92819     -25969.373     -26109.671      140.29789      6822.2428      80897.271    
     43200   303.39019     -25969.823     -26110.335      140.51186      6804.4381      80897.271    
     43300   297.91515     -25971.25      -26109.226      137.97615      6865.1488      80897.271    
     43400   298.71902     -25971.526     -26109.874      138.34846      6760.8094      80897.271    
     43500   297.98793     -25971.616     -26109.626      138.00986      6747.0037      80897.271    
     43600   295.40687     -25972.195     -26109.009      136.81447      6771.6911      80897.271    
     43700   305.22248     -25970.966     -26112.326      141.36046      6796.3474      80897.271    
     43800   301.5099      -25969.939     -26109.58       139.64102      6780.8858      80897.271    
     43900   305.09626     -25969.13      -26110.432      141.30201      6899.0401      80897.271    
     44000   290.34119     -25971.225     -26105.694      134.46836      6866.9689      80897.271    
     44100   307.46275     -25970.864     -26113.262      142.39802      6713.9824      80897.271    
     44200   293.64816     -25974.276     -26110.276      135.99995      6700.6962      80897.271    
     44300   296.51982     -25975.006     -26112.336      137.32992      6695.8343      80897.271    
     44400   297.78775     -25971.23      -26109.147      137.91715      6816.9424      80897.271    
     44500   304.83272     -25967.282     -26108.462      141.17995      6870.4378      80897.271    
     44600   303.64734     -25968.24      -26108.871      140.63095      6842.6905      80897.271    
     44700   299.09991     -25970.646     -26109.171      138.52487      6773.0955      80897.271    
     44800   301.73178     -25972.806     -26112.55       139.74378      6760.4893      80897.271    
     44900   289.66572     -25977.505     -26111.661      134.15552      6642.9039      80897.271    
     45000   295.70062     -25976.06      -26113.011      136.95052      6740.0657      80897.271    
     45100   300.68449     -25973.238     -26112.497      139.25875      6716.4185      80897.271    
     45200   298.26625     -25970.839     -26108.978      138.13876      6785.2348      80897.271    
     45300   297.39354     -25969.721     -26107.456      137.73458      6940.8088      80897.271    
     45400   299.47494     -25970.245     -26108.943      138.69855      6820.8771      80897.271    
     45500   302.77249     -25972.485     -26112.71       140.22578      6678.2135      80897.271    
     45600   294.67199     -25976.091     -26112.565      136.47412      6614.6589      80897.271    
     45700   292.55043     -25975.435     -26110.926      135.49154      6784.1489      80897.271    
     45800   300.8864      -25971.122     -26110.474      139.35226      6750.9176      80897.271    
     45900   301.35394     -25969.277     -26108.845      139.56879      6891.0034      80897.271    
     46000   302.41585     -25969.439     -26109.499      140.0606       6864.913       80897.271    
     46100   293.34138     -25972.634     -26108.492      135.85786      6780.6864      80897.271    
     46200   301.60589     -25972.751     -26112.437      139.68548      6711.6852      80897.271    
     46300   300.21525     -25970.931     -26109.973      139.04142      6779.5622      80897.271    
     46400   305.28883     -25965.464     -26106.855      141.39119      6956.0648      80897.271    
     46500   305.10586     -25966.324     -26107.63       141.30645      6896.7281      80897.271    
     46600   300.91166     -25970.544     -26109.908      139.36396      6787.8951      80897.271    
     46700   300.98174     -25973.139     -26112.536      139.39641      6603.9355      80897.271    
     46800   291.84572     -25973.651     -26108.817      135.16516      6772.3462      80897.271    
     46900   302.2018      -25970.012     -26109.973      139.96147      6722.3045      80897.271    
     47000   304.67918     -25969.545     -26110.654      141.10884      6709.1856      80897.271    
     47100   301.27608     -25970.575     -26110.108      139.53273      6803.5158      80897.271    
     47200   293.29419     -25972.296     -26108.132      135.83601      6836.5067      80897.271    
     47300   298.91232     -25973.041     -26111.479      138.43798      6650.5699      80897.271    
     47400   296.58816     -25973.556     -26110.917      137.36157      6684.3824      80897.271    
     47500   298.44498     -25971.358     -26109.58       138.22154      6812.2657      80897.271    
     47600   300.58358     -25968.907     -26108.119      139.21201      6895.9108      80897.271    
     47700   308.57135     -25967.022     -26109.934      142.91146      6744.1918      80897.271    
     47800   304.60098     -25968.538     -26109.611      141.07262      6837.1794      80897.271    
     47900   290.44523     -25973.902     -26108.419      134.51654      6796.7955      80897.271    
     48000   301.15504     -25972.88      -26112.357      139.47667      6619.1336      80897.271    
     48100   298.826       -25971.367     -26109.765      138.398        6729.9425      80897.271    
     48200   305.04001     -25967.983     -26109.259      141.27596      6842.768       80897.271    
     48300   301.80493     -25966.926     -26106.703      139.77766      6987.1218      80897.271    
     48400   298.95963     -25969.791     -26108.251      138.45989      6880.0153      80897.271    
     48500   297.0244      -25973.641     -26111.205      137.56362      6670.8459      80897.271    
     48600   299.54171     -25973.95      -26112.679      138.72948      6716.5941      80897.271    
     48700   302.25844     -25971.672     -26111.66       139.9877       6683.2167      80897.271    
     48800   298.75963     -25968.897     -26107.265      138.36727      6909.6133      80897.271    
     48900   301.26919     -25967.635     -26107.165      139.52954      6931.3478      80897.271    
     49000   306.02509     -25968.921     -26110.653      141.73219      6820.7097      80897.271    
     49100   294.8735      -25973.857     -26110.425      136.56745      6675.1369      80897.271    
     49200   299.98907     -25973.67      -26112.607      138.93667      6754.5029      80897.271    
     49300   301.05118     -25971.488     -26110.917      139.42857      6742.9593      80897.271    
     49400   300.80586     -25968.337     -26107.652      139.31495      6837.2102      80897.271    
     49500   298.70843     -25967.617     -26105.961      138.34355      6933.8193      80897.271    
     49600   300.79967     -25970.175     -26109.487      139.31209      6812.6018      80897.271    
     49700   301.72375     -25974.546     -26114.287      139.74007      6550.9107      80897.271    
     49800   296.27974     -25974.291     -26111.51       137.21873      6591.498       80897.271    
     49900   300.66691     -25971.049     -26110.299      139.2506       6804.0266      80897.271    
     50000   296.83902     -25969.585     -26107.063      137.47776      6952.1788      80897.271    
     50100   299.85819     -25968.666     -26107.542      138.87605      6860.8544      80897.271    
     50200   308.00266     -25968.546     -26111.194      142.64808      6731.4348      80897.271    
     50300   297.13049     -25974.263     -26111.876      137.61275      6764.4406      80897.271    
     50400   289.39195     -25976.381     -26110.41       134.02873      6738.227       80897.271    
     50500   297.43905     -25973.474     -26111.229      137.75565      6725.6624      80897.271    
     50600   303.70312     -25969.925     -26110.582      140.65679      6708.1933      80897.271    
     50700   299.09896     -25969.051     -26107.575      138.52442      6847.5216      80897.271    
     50800   302.94598     -25968.38      -26108.686      140.30613      6874.7766      80897.271    
     50900   294.55403     -25972.64      -26109.059      136.41949      6890.5861      80897.271    
     51000   297.62317     -25974.848     -26112.689      137.84093      6676.5549      80897.271    
     51100   300.83238     -25973.42      -26112.748      139.32724      6668.6324      80897.271    
     51200   298.6841      -25970.315     -26108.647      138.33228      6761.6813      80897.271    
     51300   302.34066     -25968.858     -26108.884      140.02578      6803.4609      80897.271    
     51400   299.11524     -25969.463     -26107.995      138.53196      6889.053       80897.271    
     51500   300.66623     -25970.566     -26109.816      139.25029      6825.0036      80897.271    
     51600   298.03649     -25973.796     -26111.829      138.03235      6709.7748      80897.271    
     51700   295.36947     -25977.302     -26114.099      136.79715      6600.8683      80897.271    
     51800   288.04965     -25979.594     -26113.001      133.40705      6620.9436      80897.271    
     51900   291.20159     -25975.202     -26110.069      134.86684      6720.1336      80897.271    
     52000   302.23566     -25971.417     -26111.394      139.97715      6764.0822      80897.271    
     52100   295.09077     -25970.154     -26106.822      136.66807      6821.1635      80897.271    
     52200   304.71747     -25967.712     -26108.838      141.12658      6895.9296      80897.271    
     52300   306.98067     -25968.972     -26111.147      142.17475      6847.7869      80897.271    
     52400   292.35219     -25972.966     -26108.365      135.39973      6858.5463      80897.271    
     52500   298.48846     -25973.349     -26111.59       138.24168      6743.7695      80897.271    
     52600   301.90048     -25972.284     -26112.106      139.82192      6716.1342      80897.271    
     52700   297.95882     -25971.178     -26109.174      137.99638      6725.9003      80897.271    
     52800   303.54658     -25970.527     -26111.111      140.58429      6787.5404      80897.271    
     52900   294.71086     -25971.25      -26107.742      136.49212      6865.8513      80897.271    
     53000   300.84611     -25969.789     -26109.122      139.3336       6862.907       80897.271    
     53100   308.89093     -25967.531     -26110.591      143.05947      6789.1311      80897.271    
     53200   304.06809     -25967.123     -26107.949      140.82582      6876.8449      80897.271    
     53300   300.45147     -25969.985     -26109.135      139.15082      6858.8409      80897.271    
     53400   293.28978     -25974.059     -26109.893      135.83396      6655.5848      80897.271    
     53500   298.97658     -25973.748     -26112.216      138.46774      6552.5438      80897.271    
     53600   303.13271     -25970.271     -26110.664      140.39261      6737.5451      80897.271    
     53700   299.98874     -25968.725     -26107.661      138.93651      6882.312       80897.271    
     53800   301.92843     -25969.585     -26109.42       139.83486      6819.0026      80897.271    
     53900   297.81905     -25971.693     -26109.624      137.93164      6840.3479      80897.271    
     54000   305.78411     -25972.356     -26113.976      141.62058      6632.758       80897.271    
     54100   287.16623     -25976.744     -26109.742      132.99791      6709.2033      80897.271    
     54200   300.33537     -25975.455     -26114.552      139.09705      6640.9225      80897.271    
     54300   295.13467     -25970.908     -26107.597      136.68841      6765.1584      80897.271    
     54400   305.00366     -25967.962     -26109.221      141.25912      6870.9267      80897.271    
     54500   300.50952     -25970.3       -26109.477      139.17771      6833.7137      80897.271    
     54600   300.75384     -25971.675     -26110.966      139.29086      6760.1328      80897.271    
     54700   298.91003     -25971.789     -26110.226      138.43692      6778.5236      80897.271    
     54800   297.54388     -25971.097     -26108.901      137.8042       6838.102       80897.271    
     54900   303.53146     -25968.584     -26109.161      140.57729      6813.3651      80897.271    
     55000   303.31273     -25968.764     -26109.24       140.47598      6845.7913      80897.271    
     55100   298.20299     -25970.956     -26109.066      138.10946      6825.7291      80897.271    
     55200   297.52278     -25973.782     -26111.576      137.79443      6698.9819      80897.271    
     55300   295.93556     -25975.91      -26112.969      137.05933      6666.6474      80897.271    
     55400   296.0129      -25975.955     -26113.051      137.09515      6661.4008      80897.271    
     55500   298.76181     -25970.887     -26109.255      138.36828      6774.2847      80897.271    
     55600   305.18268     -25968.178     -26109.52       141.34203      6882.2049      80897.271    
     55700   299.81494     -25969.725     -26108.581      138.85602      6861.2965      80897.271    
     55800   298.72946     -25972.234     -26110.587      138.35329      6750.2585      80897.271    
     55900   298.74066     -25973.905     -26112.264      138.35848      6689.5832      80897.271    
     56000   294.3137      -25975.283     -26111.591      136.30818      6628.5512      80897.271    
     56100   302.78472     -25972.209     -26112.441      140.23144      6704.6669      80897.271    
     56200   298.89474     -25968.911     -26107.341      138.42984      6943.3673      80897.271    
     56300   302.6644      -25967.417     -26107.593      140.17572      6944.8254      80897.271    
     56400   303.46632     -25969.585     -26110.132      140.54712      6767.9463      80897.271    
     56500   298.3513      -25972.807     -26110.986      138.17815      6666.9465      80897.271    
     56600   299.37656     -25972.89      -26111.543      138.65299      6744.953       80897.271    
     56700   294.65218     -25972.805     -26109.27       136.46495      6788.2158      80897.271    
     56800   305.55421     -25970.157     -26111.671      141.5141       6795.1343      80897.271    
     56900   295.17967     -25969.004     -26105.713      136.70925      6942.0886      80897.271    
     57000   306.98331     -25964.592     -26106.768      142.17597      6984.2519      80897.271    
     57100   305.53499     -25964.348     -26105.853      141.5052       6972.8743      80897.271    
     57200   299.4358      -25970.118     -26108.798      138.68043      6817.1862      80897.271    
     57300   296.47023     -25972.473     -26109.78       137.30695      6750.4695      80897.271    
     57400   302.311       -25972.796     -26112.808      140.01205      6716.7328      80897.271    
     57500   299.2515      -25971.641     -26110.236      138.59507      6781.8973      80897.271    
     57600   305.4327      -25967.61      -26109.067      141.45783      6901.8283      80897.271    
     57700   302.35691     -25967.247     -26107.281      140.03331      6898.4612      80897.271    
     57800   299.71775     -25970.861     -26109.672      138.81101      6814.396       80897.271    
     57900   298.93043     -25975.051     -26113.498      138.44637      6583.8934      80897.271    
     58000   300.55185     -25973.867     -26113.064      139.19732      6714.3123      80897.271    
     58100   297.86715     -25970.577     -26108.531      137.95393      6797.4658      80897.271    
     58200   301.41453     -25968.693     -26108.29       139.59685      6849.5925      80897.271    
     58300   296.93283     -25969.559     -26107.08       137.5212       6899.1204      80897.271    
     58400   306.50205     -25970.789     -26112.742      141.95308      6733.4541      80897.271    
     58500   296.41261     -25975.271     -26112.551      137.28027      6655.0724      80897.271    
     58600   296.26079     -25974.333     -26111.543      137.20996      6715.0956      80897.271    
     58700   300.74429     -25971.361     -26110.647      139.28644      6856.4475      80897.271    
     58800   296.52286     -25969.958     -26107.289      137.33133      6861.1879      80897.271    
     58900   307.05833     -25969.508     -26111.718      142.21072      6782.6873      80897.271    
     59000   298.49028     -25970.734     -26108.977      138.24252      6833.4287      80897.271    
     59100   301.88036     -25970.741     -26110.553      139.8126       6773.3129      80897.271    
     59200   291.69921     -25973.107     -26108.204      135.09731      6839.6424      80897.271    
     59300   296.78473     -25975.605     -26113.057      137.45261      6667.7186      80897.271    
     59400   292.11055     -25977.598     -26112.885      135.28782      6688.2559      80897.271    
     59500   296.99623     -25973.397     -26110.947      137.55057      6734.3847      80897.271    
     59600   296.57529     -25971.617     -26108.972      137.35561      6828.8914      80897.271    
     59700   301.3376      -25970.376     -26109.938      139.56122      6700.1212      80897.271    
     59800   309.01477     -25967.736     -26110.853      143.11682      6778.0306      80897.271    
     59900   298.76344     -25967.898     -26106.267      138.36903      6914.1178      80897.271    
     60000   297.45631     -25971.535     -26109.299      137.76365      6829.7111      80897.271    
     60100   296.02394     -25975.203     -26112.303      137.10026      6659.7311      80897.271    
     60200   306.65626     -25973.215     -26115.239      142.02451      6585.2595      80897.271    
     60300   293.62936     -25971.734     -26107.725      135.99124      6870.2701      80897.271    
     60400   306.38439     -25969.34      -26111.238      141.89859      6793.9501      80897.271    
     60500   295.42183     -25970.102     -26106.924      136.8214       6949.4069      80897.271    
     60600   306.23134     -25969.629     -26111.457      141.82771      6804.2669      80897.271    
     60700   300.93857     -25970.817     -26110.193      139.37642      6752.7145      80897.271    
     60800   300.9394      -25970.618     -26109.995      139.3768       6809.9922      80897.271    
     60900   297.00122     -25971.251     -26108.804      137.55288      6747.8407      80897.271    
     61000   299.06317     -25970.993     -26109.501      138.50785      6833.6062      80897.271    
     61100   301.91661     -25970.984     -26110.814      139.82939      6751.3293      80897.271    
     61200   299.42998     -25971.374     -26110.052      138.67773      6782.4512      80897.271    
     61300   300.28231     -25970.454     -26109.526      139.07248      6875.1259      80897.271    
     61400   306.51464     -25966.513     -26108.472      141.95891      7003.8262      80897.271    
     61500   306.09658     -25964.255     -26106.021      141.76529      6980.1653      80897.271    
     61600   295.79137     -25968.565     -26105.558      136.99255      6937.7196      80897.271    
     61700   301.64687     -25970.612     -26110.316      139.70446      6823.9379      80897.271    
     61800   298.14311     -25971.782     -26109.863      138.08173      6792.2797      80897.271    
     61900   297.93225     -25972.188     -26110.172      137.98408      6736.0111      80897.271    
     62000   298.69218     -25972.112     -26110.448      138.33603      6818.1236      80897.271    
     62100   303.67661     -25969.535     -26110.18       140.64451      6793.7436      80897.271    
     62200   301.75498     -25967.455     -26107.21       139.75453      6911.1402      80897.271    
     62300   306.58592     -25966.58      -26108.572      141.99192      6893.6495      80897.271    
     62400   295.90906     -25971.594     -26108.641      137.04706      6798.7213      80897.271    
     62500   299.44751     -25972.414     -26111.1        138.68585      6733.6102      80897.271    
     62600   293.76634     -25972.674     -26108.729      136.05468      6823.9137      80897.271    
     62700   302.60987     -25970.344     -26110.494      140.15046      6789.5462      80897.271    
     62800   307.0974      -25966.8       -26109.028      142.22882      6839.9729      80897.271    
     62900   302.02998     -25966.687     -26106.569      139.88189      6982.3999      80897.271    
     63000   297.17393     -25970.471     -26108.104      137.63287      6897.046       80897.271    
     63100   299.14088     -25974.448     -26112.992      138.54384      6670.377       80897.271    
     63200   295.31011     -25975.01      -26111.78       136.76966      6691.5176      80897.271    
     63300   300.79107     -25971.36      -26110.668      139.3081       6802.9028      80897.271    
     63400   300.95544     -25969.576     -26108.96       139.38423      6858.0889      80897.271    
     63500   298.16458     -25969.378     -26107.47       138.09168      6938.1685      80897.271    
     63600   301.16657     -25969.905     -26109.387      139.48201      6892.885       80897.271    
     63700   299.01428     -25974.94      -26113.425      138.4852       6702.054       80897.271    
     63800   293.28248     -25976.812     -26112.642      135.83058      6669.7218      80897.271    
     63900   296.07569     -25974.109     -26111.234      137.12423      6711.4732      80897.271    
     64000   296.27153     -25971.232     -26108.447      137.21493      6892.881       80897.271    
     64100   306.69113     -25968.782     -26110.823      142.04065      6850.7297      80897.271    
     64200   300.33277     -25969.591     -26108.687      139.09585      6903.9802      80897.271    
     64300   301.02156     -25970.821     -26110.236      139.41485      6835.6982      80897.271    
     64400   292.28433     -25974.805     -26110.173      135.3683       6738.1874      80897.271    
     64500   297.63971     -25978.21      -26116.059      137.84859      6553.184       80897.271    
     64600   294.54715     -25976.327     -26112.743      136.4163       6684.9956      80897.271    
     64700   303.09187     -25970.412     -26110.785      140.3737       6852.1891      80897.271    
     64800   302.22818     -25969.567     -26109.541      139.97369      6936.1975      80897.271    
     64900   300.77426     -25969.858     -26109.158      139.30032      6889.8641      80897.271    
     65000   300.42499     -25970.891     -26110.03       139.13856      6817.4724      80897.271    
     65100   297.52771     -25972.862     -26110.659      137.79671      6730.1281      80897.271    
     65200   291.12694     -25974.698     -26109.53       134.83227      6779.5424      80897.271    
     65300   301.47397     -25972.306     -26111.93       139.62438      6727.221       80897.271    
     65400   307.49567     -25967.576     -26109.99       142.41327      6816.9582      80897.271    
     65500   299.64033     -25967.724     -26106.499      138.77515      6919.1681      80897.271    
     65600   300.59197     -25969.935     -26109.15       139.2159       6778.7471      80897.271    
     65700   300.82718     -25972.484     -26111.809      139.32483      6768.6949      80897.271    
     65800   297.7122      -25972.743     -26110.626      137.88216      6730.4302      80897.271    
     65900   299.23372     -25971.845     -26110.431      138.58684      6786.8686      80897.271    
     66000   298.38112     -25970.942     -26109.134      138.19196      6781.4204      80897.271    
     66100   298.81233     -25970.259     -26108.65       138.39167      6827.4329      80897.271    
     66200   303.31317     -25969.835     -26110.311      140.47619      6782.4499      80897.271    
     66300   304.09293     -25969.687     -26110.525      140.83732      6734.0848      80897.271    
     66400   295.16124     -25971.207     -26107.908      136.70071      6842.2117      80897.271    
     66500   299.87832     -25972.246     -26111.131      138.88537      6685.7704      80897.271    
     66600   297.16075     -25973.405     -26111.032      137.62676      6587.0769      80897.271    
     66700   300.59676     -25971.305     -26110.523      139.21811      6838.3623      80897.271    
     66800   300.33047     -25968.048     -26107.143      139.09478      6900.2271      80897.271    
     66900   303.31998     -25967.941     -26108.42       140.47934      6876.4977      80897.271    
     67000   302.17403     -25971.522     -26111.47       139.94861      6657.0031      80897.271    
     67100   294.64858     -25976.202     -26112.665      136.46328      6599.7574      80897.271    
     67200   296.49717     -25975.278     -26112.597      137.31943      6618.8146      80897.271    
     67300   298.17916     -25972.124     -26110.223      138.09843      6806.5171      80897.271    
     67400   300.07939     -25969.875     -26108.853      138.9785       6842.8453      80897.271    
     67500   300.80676     -25969.513     -26108.828      139.31537      6852.9229      80897.271    
     67600   307.23174     -25969.168     -26111.459      142.29103      6684.2323      80897.271    
     67700   296.52657     -25972.246     -26109.579      137.33305      6782.1305      80897.271    
     67800   292.09146     -25976.161     -26111.44       135.27898      6683.6443      80897.271    
     67900   298.13401     -25974.956     -26113.033      138.07752      6662.6456      80897.271    
     68000   298.79412     -25971.564     -26109.948      138.38324      6727.7482      80897.271    
     68100   303.82975     -25969.397     -26110.113      140.71544      6839.3865      80897.271    
     68200   302.69406     -25969.494     -26109.683      140.18945      6881.2968      80897.271    
     68300   292.87393     -25971.871     -26107.512      135.64137      6799.7372      80897.271    
     68400   297.59663     -25973.244     -26111.073      137.82864      6786.0276      80897.271    
     68500   297.76799     -25974.827     -26112.735      137.908        6602.8485      80897.271    
     68600   297.48192     -25974.341     -26112.117      137.77551      6690.8989      80897.271    
     68700   304.42654     -25970.348     -26111.34       140.99183      6753.6743      80897.271    
     68800   292.07819     -25968.89      -26104.163      135.27283      6931.5963      80897.271    
     68900   306.01963     -25967.306     -26109.036      141.72966      6805.59        80897.271    
     69000   298.61082     -25970.43      -26108.728      138.29835      6893.1768      80897.271    
     69100   298.61945     -25972.548     -26110.85       138.30234      6706.0376      80897.271    
     69200   299.07888     -25972.934     -26111.449      138.51513      6753.6877      80897.271    
     69300   296.43179     -25972.375     -26109.664      137.28915      6735.0311      80897.271    
     69400   302.3586      -25971.529     -26111.563      140.03409      6763.1394      80897.271    
     69500   299.48728     -25971.108     -26109.812      138.70427      6724.3083      80897.271    
     69600   297.33151     -25970.427     -26108.133      137.70585      6795.4152      80897.271    
     69700   303.60613     -25968.304     -26108.916      140.61187      6886.3058      80897.271    
     69800   304.09846     -25967.62      -26108.459      140.83989      6830.2985      80897.271    
     69900   295.80875     -25971.712     -26108.713      137.0006       6784.4717      80897.271    
     70000   298.02361     -25973.728     -26111.754      138.02639      6694.2261      80897.271    
     70100   297.52874     -25973.322     -26111.119      137.79719      6655.5175      80897.271    
     70200   299.92671     -25972.289     -26111.197      138.90779      6747.7012      80897.271    
     70300   300.91605     -25971.214     -26110.58       139.36599      6835.7325      80897.271    
     70400   298.72052     -25970.18      -26108.529      138.34915      6840.9002      80897.271    
     70500   304.12716     -25968.828     -26109.681      140.85318      6833.0983      80897.271    
     70600   298.7494      -25969.745     -26108.107      138.36253      6836.1541      80897.271    
     70700   301.04228     -25972.144     -26111.568      139.42445      6741.1239      80897.271    
     70800   297.45685     -25974.538     -26112.302      137.7639       6646.9088      80897.271    
     70900   291.95548     -25974.916     -26110.132      135.216        6736.3124      80897.271    
     71000   304.19553     -25969.927     -26110.812      140.88484      6781.7202      80897.271    
     71100   302.55385     -25968.613     -26108.737      140.12452      6834.4499      80897.271    
     71200   307.14076     -25968.129     -26110.378      142.2489       6876.5254      80897.271    
     71300   296.06292     -25971.589     -26108.707      137.11831      6800.8117      80897.271    
     71400   296.86028     -25974.917     -26112.405      137.4876       6747.3715      80897.271    
     71500   296.34185     -25974.372     -26111.62       137.2475       6685.8615      80897.271    
     71600   295.98157     -25972.565     -26109.646      137.08064      6704.4329      80897.271    
     71700   305.61562     -25970.386     -26111.929      141.54254      6762.6554      80897.271    
     71800   296.4031      -25970.892     -26108.168      137.27586      6852.934       80897.271    
     71900   297.14472     -25970.937     -26108.556      137.61934      6874.9681      80897.271    
     72000   300.13718     -25970.677     -26109.683      139.00526      6810.7818      80897.271    
     72100   307.36513     -25968.57      -26110.923      142.35281      6913.5531      80897.271    
     72200   298.53901     -25968.434     -26106.699      138.26509      6977.8231      80897.271    
     72300   295.37085     -25970.367     -26107.165      136.79779      6943.2778      80897.271    
     72400   301.20926     -25973.044     -26112.546      139.50178      6784.3323      80897.271    
     72500   297.72709     -25974.671     -26112.56       137.88905      6698.6798      80897.271    
     72600   301.0735      -25971.156     -26110.595      139.43891      6859.7813      80897.271    
     72700   299.5383      -25967.833     -26106.561      138.7279       6981.7156      80897.271    
     72800   303.71515     -25968.161     -26108.824      140.66236      6942.7689      80897.271    
     72900   298.61483     -25971.302     -26109.602      138.3002       6803.9668      80897.271    
     73000   301.59249     -25973.077     -26112.757      139.67928      6751.8201      80897.271    
     73100   299.10517     -25973.093     -26111.62       138.5273       6721.5923      80897.271    
     73200   299.52431     -25970.535     -26109.256      138.72142      6810.2583      80897.271    
     73300   305.63563     -25965.382     -26106.934      141.55181      7036.7034      80897.271    
     73400   305.86457     -25965.498     -26107.156      141.65784      6976.7113      80897.271    
     73500   305.18821     -25968.187     -26109.531      141.34459      6930.9856      80897.271    
     73600   294.81593     -25972.176     -26108.717      136.54078      6880.0234      80897.271    
     73700   301.30976     -25972.397     -26111.945      139.54833      6785.6737      80897.271    
     73800   298.37277     -25972.366     -26110.554      138.18809      6834.0034      80897.271    
     73900   305.78834     -25969.793     -26111.416      141.62254      6819.7364      80897.271    
     74000   297.95569     -25968.19      -26106.184      137.99493      6923.443       80897.271    
     74100   306.56741     -25967.51      -26109.494      141.98335      6907.8947      80897.271    
     74200   300.94379     -25971.171     -26110.549      139.37883      6784.3539      80897.271    
     74300   292.95922     -25974.781     -26110.462      135.68087      6745.2046      80897.271    
     74400   301.58276     -25973.721     -26113.396      139.67477      6749.164       80897.271    
     74500   300.07318     -25971.055     -26110.031      138.97562      6776.9769      80897.271    
     74600   299.92626     -25968.998     -26107.906      138.90758      6936.2697      80897.271    
     74700   299.91504     -25969.377     -26108.279      138.90238      6937.293       80897.271    
     74800   301.76613     -25970.462     -26110.222      139.75969      6899.6447      80897.271    
     74900   297.24432     -25973.449     -26111.114      137.66547      6733.3282      80897.271    
     75000   293.48788     -25976.134     -26112.059      135.92571      6724.3807      80897.271    
     75100   300.16018     -25973.102     -26112.118      139.01592      6712.6912      80897.271    
     75200   295.17153     -25970.055     -26106.76       136.70548      6878.232       80897.271    
     75300   306.57351     -25967.521     -26109.507      141.98618      6805.0888      80897.271    
     75400   307.83207     -25968.575     -26111.144      142.56907      6802.0448      80897.271    
[...]
    181800   291.60132     -25973.623     -26108.675      135.05197      6763.3807      80897.271    
    181900   299.53653     -25971.183     -26109.91       138.72708      6720.8453      80897.271    
    182000   300.298       -25969.083     -26108.162      139.07974      6787.0042      80897.271    
    182100   307.26512     -25967.773     -26110.079      142.30649      6852.7734      80897.271    
    182200   298.14271     -25971.248     -26109.329      138.08155      6769.4252      80897.271    
    182300   294.56315     -25975.116     -26111.539      136.42371      6719.8783      80897.271    
    182400   294.68256     -25974.618     -26111.097      136.47902      6710.0875      80897.271    
    182500   302.43741     -25971.398     -26111.469      140.07059      6755.5678      80897.271    
    182600   299.59633     -25970.725     -26109.48       138.75478      6813.5592      80897.271    
    182700   302.54546     -25969.74      -26109.86       140.12063      6834.564       80897.271    
    182800   296.36107     -25970.608     -26107.864      137.2564       6831.3382      80897.271    
    182900   294.68677     -25974.237     -26110.718      136.48097      6767.4727      80897.271    
    183000   292.39232     -25977.42      -26112.838      135.41832      6637.5903      80897.271    
    183100   298.23788     -25975.063     -26113.189      138.12562      6653.8662      80897.271    
    183200   301.59377     -25969.91      -26109.59       139.67987      6797.181       80897.271    
    183300   299.45549     -25970.024     -26108.713      138.68955      6909.3723      80897.271    
    183400   296.05575     -25971.584     -26108.699      137.11499      6805.1903      80897.271    
    183500   304.46827     -25971.42      -26112.432      141.01116      6717.6144      80897.271    
    183600   293.08556     -25972.425     -26108.165      135.73938      6792.5665      80897.271    
    183700   302.56611     -25971.314     -26111.444      140.13019      6733.1313      80897.271    
    183800   302.93275     -25968.982     -26109.282      140.3          6834.8479      80897.271    
    183900   306.34368     -25966.007     -26107.887      141.87974      6897.7559      80897.271    
    184000   299.08813     -25967.731     -26106.25       138.5194       6993.7098      80897.271    
    184100   305.38736     -25970.538     -26111.975      141.43683      6745.6         80897.271    
    184200   298.38701     -25972.293     -26110.488      138.19469      6685.8817      80897.271    
    184300   297.34707     -25971.936     -26109.649      137.71306      6836.8185      80897.271    
    184400   303.50574     -25969.872     -26110.438      140.56537      6698.5332      80897.271    
    184500   310.1203      -25966.435     -26110.064      143.62884      6851.5471      80897.271    
    184600   300.05952     -25964.223     -26103.192      138.96929      7062.5504      80897.271    
    184700   303.62776     -25967.043     -26107.665      140.62189      6922.8997      80897.271    
    184800   301.13492     -25971.281     -26110.749      139.46735      6705.0343      80897.271    
    184900   303.80931     -25972.138     -26112.844      140.70597      6686.672       80897.271    
    185000   290.45335     -25972.493     -26107.014      134.52031      6897.5786      80897.271    
    185100   302.80807     -25969.226     -26109.468      140.24226      6846.7668      80897.271    
    185200   302.10306     -25969.12      -26109.036      139.91574      6840.8988      80897.271    
    185300   302.26912     -25971.263     -26111.256      139.99265      6731.8209      80897.271    
    185400   290.97974     -25976.22      -26110.984      134.76409      6672.6548      80897.271    
    185500   294.02301     -25975.294     -26111.467      136.17355      6738.0928      80897.271    
    185600   301.19034     -25971.21      -26110.703      139.49302      6760.2519      80897.271    
    185700   300.24436     -25969.769     -26108.824      139.0549       6777.392       80897.271    
    185800   300.69904     -25970.053     -26109.318      139.26548      6834.1269      80897.271    
    185900   300.38623     -25971.29      -26110.411      139.12061      6756.1937      80897.271    
    186000   293.64276     -25973.578     -26109.575      135.99744      6796.1775      80897.271    
    186100   297.79549     -25975.46      -26113.38       137.92074      6677.9296      80897.271    
    186200   299.39093     -25974.096     -26112.756      138.65965      6670.6937      80897.271    
    186300   299.55222     -25970.119     -26108.854      138.73435      6816.613       80897.271    
    186400   303.11239     -25968.653     -26109.036      140.3832       6849.3458      80897.271    
    186500   293.4274      -25970.448     -26106.345      135.8977       6954.9914      80897.271    
    186600   307.28361     -25970.944     -26113.259      142.31505      6659.4104      80897.271    
    186700   299.27721     -25972.35      -26110.957      138.60698      6826.0585      80897.271    
    186800   297.94166     -25970.942     -26108.93       137.98843      6910.1994      80897.271    
    186900   301.99575     -25966.993     -26106.859      139.86604      6991.688       80897.271    
    187000   307.33024     -25966.649     -26108.986      142.33665      6956.0624      80897.271    
    187100   296.54929     -25970.246     -26107.589      137.34357      6811.8166      80897.271    
    187200   303.64002     -25971.724     -26112.351      140.62757      6820           80897.271    
    187300   298.30707     -25974.212     -26112.37       138.15767      6634.0034      80897.271    
    187400   287.15528     -25976.444     -26109.437      132.99284      6822.7737      80897.271    
    187500   304.08333     -25973.499     -26114.332      140.83288      6642.0584      80897.271    
    187600   300.03419     -25969.591     -26108.549      138.95757      6765.4251      80897.271    
    187700   302.89268     -25968.293     -26108.574      140.28144      6909.563       80897.271    
    187800   294.17543     -25970.409     -26106.653      136.24414      6836.1258      80897.271    
    187900   304.31234     -25972.042     -26112.981      140.93894      6726.0215      80897.271    
    188000   296.40534     -25976.61      -26113.887      137.2769       6594.3227      80897.271    
    188100   296.76433     -25975.507     -26112.95       137.44316      6693.4169      80897.271    
    188200   296.8447      -25973.728     -26111.208      137.48039      6720.7383      80897.271    
    188300   300.17302     -25971.28      -26110.302      139.02186      6801.7331      80897.271    
    188400   304.8766      -25969.144     -26110.344      141.20027      6807.981       80897.271    
    188500   305.33269     -25968.751     -26110.163      141.41151      6785.891       80897.271    
    188600   296.1031      -25971.059     -26108.196      137.13692      6808.0062      80897.271    
    188700   297.84164     -25975.762     -26113.705      137.94211      6737.7297      80897.271    
    188800   295.24252     -25976.194     -26112.933      136.73835      6736.759       80897.271    
    188900   293.84562     -25973.141     -26109.232      136.09139      6718.3289      80897.271    
    189000   306.35609     -25970.434     -26112.319      141.88548      6779.8163      80897.271    
    189100   299.08131     -25971.115     -26109.631      138.51625      6813.0382      80897.271    
    189200   306.46606     -25970.55      -26112.487      141.93642      6741.528       80897.271    
    189300   295.71251     -25971.957     -26108.913      136.95603      6834.3552      80897.271    
    189400   295.31887     -25973.388     -26110.162      136.77372      6756.2586      80897.271    
    189500   301.72904     -25973.036     -26112.779      139.74252      6672.5478      80897.271    
    189600   298.67837     -25971.464     -26109.794      138.32963      6850.0645      80897.271    
    189700   307.88305     -25967.432     -26110.025      142.59268      6782.1621      80897.271    
    189800   301.06642     -25968.488     -26107.924      139.43563      6833.8911      80897.271    
    189900   299.18324     -25970.443     -26109.006      138.56346      6758.1298      80897.271    
    190000   298.68827     -25973.609     -26111.943      138.33422      6692.9869      80897.271    
    190100   296.67082     -25977.458     -26114.858      137.39985      6627.2009      80897.271    
    190200   298.61476     -25976.15      -26114.45       138.30017      6597.5262      80897.271    
    190300   294.1102      -25973.102     -26109.316      136.21393      6767.3298      80897.271    
    190400   295.86517     -25970.424     -26107.45       137.02673      6934.5554      80897.271    
    190500   303.98247     -25969.428     -26110.214      140.78617      6774.532       80897.271    
    190600   304.57028     -25970.726     -26111.784      141.05841      6793.0517      80897.271    
    190700   293.43184     -25973.804     -26109.704      135.89976      6788.881       80897.271    
    190800   289.75989     -25976.407     -26110.606      134.19914      6741.5326      80897.271    
    190900   297.50472     -25976.228     -26114.014      137.78607      6546.7138      80897.271    
    191000   301.94935     -25971.287     -26111.132      139.84455      6775.8717      80897.271    
    191100   303.57958     -25968.658     -26109.258      140.59958      6819.2968      80897.271    
    191200   296.43361     -25968.734     -26106.024      137.29         6986.6397      80897.271    
    191300   301.97549     -25970.077     -26109.934      139.85666      6885.7503      80897.271    
    191400   296.43513     -25973.913     -26111.204      137.2907       6780.2193      80897.271    
    191500   299.7788      -25974.719     -26113.558      138.83928      6637.5524      80897.271    
    191600   295.2469      -25973.727     -26110.467      136.74039      6680.5565      80897.271    
    191700   296.69312     -25971.106     -26108.516      137.41018      6848.829       80897.271    
    191800   298.94414     -25970.796     -26109.249      138.45272      6802.2447      80897.271    
    191900   298.86583     -25971.204     -26109.62       138.41645      6763.736       80897.271    
    192000   304.08689     -25971.145     -26111.98       140.83453      6771.766       80897.271    
    192100   296.37535     -25972.695     -26109.958      137.26301      6773.3392      80897.271    
    192200   304.08443     -25971.756     -26112.589      140.83339      6666.5581      80897.271    
    192300   296.91342     -25970.074     -26107.586      137.51221      6967.0756      80897.271    
    192400   300.46418     -25967.478     -26106.634      139.15671      6909.9682      80897.271    
    192500   311.91025     -25967.149     -26111.607      144.45783      6832.7476      80897.271    
    192600   296.28048     -25972.015     -26109.234      137.21907      6784.9146      80897.271    
    192700   302.24977     -25973.043     -26113.027      139.98369      6708.2578      80897.271    
    192800   296.78942     -25973.518     -26110.973      137.45478      6716.4202      80897.271    
    192900   299.4813      -25970.062     -26108.763      138.7015       6830.6058      80897.271    
    193000   302.72384     -25965.725     -26105.928      140.20324      7022.9042      80897.271    
    193100   302.12437     -25967.228     -26107.153      139.92561      6878.358       80897.271    
    193200   311.26207     -25969.337     -26113.495      144.15763      6769.74        80897.271    
    193300   293.59825     -25973.055     -26109.032      135.97683      6826.1184      80897.271    
    193400   298.25871     -25972.656     -26110.791      138.13527      6888.5377      80897.271    
    193500   297.97158     -25971.246     -26109.249      138.00229      6820.8532      80897.271    
    193600   302.55003     -25967.952     -26108.075      140.12275      6925.0604      80897.271    
    193700   312.92582     -25964.085     -26109.013      144.92818      6934.0494      80897.271    
    193800   300.43347     -25964.799     -26103.941      139.14249      7022.3452      80897.271    
    193900   299.9146      -25970.886     -26109.788      138.90218      6827.9229      80897.271    
    194000   292.08817     -25974.017     -26109.294      135.27745      6761.5263      80897.271    
    194100   305.51516     -25972.596     -26114.092      141.49602      6581.0925      80897.271    
    194200   305.75538     -25969.766     -26111.374      141.60727      6832.6093      80897.271    
    194300   297.61225     -25968.756     -26106.592      137.83587      6885.2579      80897.271    
    194400   300.34324     -25968.726     -26107.827      139.1007       6867.3699      80897.271    
    194500   292.58954     -25972.984     -26108.493      135.50965      6809.9179      80897.271    
    194600   299.61441     -25975.158     -26113.922      138.76315      6624.091       80897.271    
    194700   297.50707     -25974.503     -26112.291      137.78716      6716.3349      80897.271    
    194800   301.21139     -25970.592     -26110.095      139.50277      6780.1431      80897.271    
    194900   296.20717     -25968.956     -26106.141      137.18512      6961.651       80897.271    
    195000   304.68294     -25968.559     -26109.67       141.11058      6810.3131      80897.271    
    195100   302.36165     -25970.682     -26110.717      140.0355       6853.3617      80897.271    
    195200   296.19749     -25972.205     -26109.386      137.18064      6772.9754      80897.271    
    195300   298.05245     -25971.426     -26109.466      138.03974      6908.3494      80897.271    
    195400   309.14508     -25967.677     -26110.854      143.17717      6758.9702      80897.271    
    195500   304.35134     -25963.788     -26104.745      140.95701      7130.0833      80897.271    
    195600   302.67035     -25965.496     -26105.675      140.17847      6958.693       80897.271    
    195700   305.63073     -25968.679     -26110.228      141.54954      6871.3849      80897.271    
    195800   296.70217     -25970.946     -26108.36       137.41438      6860.2426      80897.271    
    195900   300.35208     -25971.978     -26111.083      139.10479      6732.9815      80897.271    
    196000   303.70749     -25972.678     -26113.337      140.65881      6679.4641      80897.271    
    196100   297.07554     -25972.341     -26109.928      137.5873       6808.3197      80897.271    
    196200   298.90271     -25969.234     -26107.667      138.43353      6948.9462      80897.271    
    196300   302.60808     -25966.873     -26107.022      140.14964      6978.9588      80897.271    
    196400   303.76773     -25967.662     -26108.349      140.68671      6961.5367      80897.271    
    196500   299.53944     -25972.79      -26111.518      138.72843      6763.9105      80897.271    
    196600   295.47597     -25974.799     -26111.646      136.84647      6673.5704      80897.271    
    196700   296.2351      -25973.045     -26110.243      137.19806      6822.3528      80897.271    
    196800   301.85809     -25969.878     -26109.681      139.80229      6832.2698      80897.271    
    196900   301.3631      -25969.783     -26109.356      139.57303      6930.5891      80897.271    
    197000   300.89589     -25970.566     -26109.923      139.35665      6799.1455      80897.271    
    197100   303.28593     -25970.761     -26111.225      140.46357      6790.92        80897.271    
    197200   290.60986     -25972.74      -26107.333      134.59279      6855.0298      80897.271    
    197300   300.88326     -25973.584     -26112.935      139.3508       6685.8076      80897.271    
    197400   297.77679     -25973.854     -26111.766      137.91207      6740.4511      80897.271    
    197500   303.73945     -25969.611     -26110.284      140.67361      6724.8083      80897.271    
    197600   302.03788     -25968.792     -26108.677      139.88555      6886.2719      80897.271    
    197700   297.78321     -25970.213     -26108.128      137.91505      6858.424       80897.271    
    197800   298.83903     -25971.917     -26110.321      138.40404      6819.2713      80897.271    
    197900   295.58024     -25975.866     -26112.761      136.89476      6636.2529      80897.271    
    198000   298.55957     -25977.216     -26115.491      138.27461      6581.1283      80897.271    
    198100   294.02071     -25974.405     -26110.578      136.17249      6770.745       80897.271    
    198200   300.49229     -25969.288     -26108.458      139.16973      6966.7855      80897.271    
    198300   298.95384     -25968.467     -26106.924      138.45721      6886.5852      80897.271    
    198400   304.60812     -25969.79      -26110.866      141.07593      6910.6702      80897.271    
    198500   299.62078     -25972.841     -26111.607      138.7661       6781.843       80897.271    
    198600   294.49821     -25973.905     -26110.299      136.39364      6727.566       80897.271    
    198700   297.38558     -25970.746     -26108.477      137.73089      6924.7436      80897.271    
    198800   302.77032     -25967.034     -26107.258      140.22477      6984.6459      80897.271    
    198900   303.05551     -25967.508     -26107.865      140.35685      6892.3         80897.271    
    199000   302.0457      -25970.724     -26110.613      139.88918      6845.005       80897.271    
    199100   298.45529     -25972.705     -26110.932      138.22631      6810.7853      80897.271    
    199200   294.60936     -25973.013     -26109.458      136.44511      6785.9942      80897.271    
    199300   304.82306     -25971.106     -26112.282      141.17548      6776.0656      80897.271    
    199400   305.64078     -25968.822     -26110.376      141.55419      6828.635       80897.271    
    199500   299.10729     -25966.446     -26104.974      138.52828      7054.9305      80897.271    
    199600   303.07356     -25963.806     -26104.171      140.36521      7056.0803      80897.271    
    199700   308.41073     -25967.122     -26109.959      142.83707      6774.5058      80897.271    
    199800   302.81144     -25971.103     -26111.347      140.24382      6767.2163      80897.271    
    199900   299.52685     -25972.292     -26111.014      138.7226       6735.8151      80897.271    
    200000   296.20356     -25972.122     -26109.306      137.18345      6803.2467      80897.271    
Loop time of 11802.7 on 20 procs for 200000 steps with 3584 atoms

Performance: 1.464 ns/day, 16.393 hours/ns, 16.945 timesteps/s, 60.732 katom-step/s
99.9% CPU use with 20 MPI tasks x 1 OpenMP threads

MPI task timing breakdown:
Section |  min time  |  avg time  |  max time  |%varavg| %total
---------------------------------------------------------------
Pair    | 9538.2     | 10704      | 11502      | 686.2 | 90.69
Neigh   | 114.3      | 130.65     | 142.48     |  81.4 |  1.11
Comm    | 97.177     | 914.84     | 2141.9     |2439.1 |  7.75
Output  | 0.30684    | 0.35399    | 0.41069    |   4.7 |  0.00
Modify  | 7.095      | 52.087     | 88.569     | 375.6 |  0.44
Other   |            | 0.8922     |            |       |  0.01

Nlocal:          179.2 ave         192 max         160 min
Histogram: 4 0 2 0 2 2 0 2 0 8
Nghost:        1123.25 ave        1212 max        1082 min
Histogram: 8 0 4 4 0 0 0 0 0 4
Neighs:              0 ave           0 max           0 min
Histogram: 20 0 0 0 0 0 0 0 0 0
FullNghs:      10234.8 ave       10997 max        9126 min
Histogram: 4 0 2 0 2 2 0 2 0 8

Total # of neighbors = 204696
Ave neighs/atom = 57.113839
Neighbor list builds = 200000
Dangerous builds not checked
Total wall time: 3:16:42
