(written by ASE)

96 atoms
2 atom types

0.0      12.878883748571106  xlo xhi
0.0      11.153287911217136  ylo yhi
0.0      15.049224163373557  zlo zhi
    -6.4383160712214327  5.8675002226468321e-05  -3.521285875135461e-09  xy xz yz

Masses

     1      178.48999995408445 # Hf
     2      15.998999995884349 # O

Atoms # atomic

     1   1      6.3912169757612203      11.111377966774098      15.099265670897701
     2   1   -0.049198549521137697      1.8201577307249195        2.56223783730508
     3   1        6.39080258325912      11.111160957699799      5.0690280671566397
     4   1   -0.045363985530104803      1.8179551266617495      7.5754544107679402
     5   1   -0.045554239367209599   -0.039707443845215191         10.086049295792
     6   1   -0.049534927286491802      1.8203745525483195        12.5924756468052
     7   1      11.219125142840699      2.7500786424093993        15.0995723223672
     8   1       -1.65641745967013       4.606220119841919      2.5623115098396299
     9   1      11.218823672135199      2.7502302113720689      5.0734828664503802
    10   1     -1.6565902992511701      4.6079408212329191      7.5788780334624501
    11   1     -1.6544672088771699      2.7470122379648796        10.0830307954789
    12   1       -1.65666378478311      4.6081514716257095      12.589493018782299
    13   1     -3.2639589437910801      5.5373942163209291    0.052441359965654202
    14   1     -3.2663731501844402      7.3951946248983482      2.5623117682881502
    15   1      9.6124406695492297      5.5359482558465078      5.0708960742328504
    16   1     -3.2649591307342098      7.3941660503256879      7.5788783094086396
    17   1      9.6109789882494407      5.5350930961542284      10.084621291867199
    18   1     -3.2648044951812301      7.3939809900553186      12.589493354019099
    19   1      8.0035567068076094      8.3205043396020777        15.0995727453975
    20   1     -4.8751764633782502      10.180342960499297      2.5622383291785802
    21   1      8.0035179025164496      8.3202003288809774      5.0734832508256904
    22   1     -4.8751552416016004      10.184747342099099      7.5754546026476604
    23   1     -4.8753454911335901      8.3266363822026985        10.0830310601617
    24   1     -4.8751372636351702      10.179908815200598        12.5924759947757
    25   1     -3.2624251856922499      11.111378507821398        15.0992661998258
    26   1      3.1760427897713699      1.8201582324091596      2.5622383731628799
    27   1     -3.2620878249921499      11.111161164791799      5.0690283595287804
    28   1      3.1722478274507102      1.8179548876471496      7.5754547660896598
    29   1        3.17205764790384   -0.039707708483036154      10.086049654138799
    30   1        3.17645810270671      1.8203748620917095        12.5924760382175
    31   1        1.56355254903527      2.7511933113880596      15.099265696863901
    32   1        1.56370413859853      4.6110316992005087      2.5619313178594498
    33   1        1.56351394535083      2.7516268226054494      5.0690281013444496
    34   1      1.5637234329974099      4.6048989754823388      7.5784728381434796
    35   1        1.56353286753614      2.7467881357445094      10.086049361024701
    36   1        1.56374340321404      4.6113354279716994        12.5880207996219
    37   1   -0.045250049626988802      5.5363414364893293      15.099192226674001
    38   1     -0.0477227436321166      7.3941416792910983      2.5598384028191199
    39   1   -0.046818079768310303      5.5375544325531694      5.0720105279516199
    40   1     -0.0437168022922651      7.3964419658641285      7.5768827520883697
    41   1   -0.046662367135850702      5.5373691711821191        10.0826257423714
    42   1   -0.045179439159904702      7.3955872255665378      12.590607836143199
    43   1     -1.6552055259295699      8.3253157555173889          15.09919250175
    44   1       -1.65186503797608      10.181457420108298        2.56193165666483
    45   1     -1.6549584494551699      8.3233839059929675      5.0720108541251001
    46   1       -1.65715477228472      10.184522825439398      7.5784731557366696
    47   1        -1.6550312877605      8.3235943741743288        10.0826260679348
    48   1     -1.6515629367008799      10.181305301277499      12.588021295119599
    49   1   -0.045841179137192101      11.112292355853198        15.0991923876973
    50   1      6.3926265134533802      1.8192433509439996      2.5623118876126099
    51   1      6.3942523356739098   -0.040277704637364617      5.0720109649232104
    52   1        6.39423385790725      1.8185505232793395      7.5788783097938897
    53   1      6.4171711068253803   -0.040303070631566018        10.0826260934339
    54   1      6.3944813999537002      1.8185256167518695      12.589493429037899
    55   1      4.7868633869394897       2.750078735581599        15.0995728898263
    56   1      4.7838241803313002      4.6062201730771495      2.5623117187827402
    57   1      4.7870876342813196      2.7502305552673989      5.0734833043954897
    58   1        4.78403821526837      4.6079408340756993         7.5788784204769
    59   1      4.7815329091643601      2.7470122483212389        10.0830312036025
    60   1         4.7841494537211      4.6081515629194687        12.5894933830541
    61   1      3.1729171442609001       5.536341013045889      15.099192368593201
    62   1        3.17569299986426      7.3941414054661179        2.55983842706619
    63   1      3.1744085099842101      5.5375543268479888        5.07201078229581
    64   1        3.17172811902384      7.3964421312412583      7.5768825634025303
    65   1      3.1742919578075801      5.5373693668894095      10.082625694878001
    66   1      3.1732282168369301      7.3955869922796582      12.590607843859001
    67   1        1.56411540638423      8.3246497970254278        15.1008231429246
    68   1      1.5642665205867501      10.185663222288698      2.5598384332359299
    69   1      1.5640766309993299      8.3246495566143182      5.0659899671386697
    70   1        1.56428636304984      10.181061198994499      7.5768828211411403
    71   1        1.56409629855585      8.3246494999125478      10.084267738496401
    72   1        1.56430538954453      10.182771788333499        12.5906078363932
    73   1      3.1746333502633699      11.112292587981099        15.0991922438839
    74   1      9.6131015256085206      1.8192436516777493      2.5623115973878998
    75   1      9.6110955411792407   -0.040277733667924379      5.0720106238551699
    76   1      9.6115340661444808      1.8185505013216194      7.5788779523220802
    77   1        9.63447137800547   -0.040302889774306877        10.0826257682037
    78   1      9.6113248344065898      1.8185255421456994        12.5894931562773
    79   1      8.0029348891621606      2.7458727178194891      0.0524415868687063
    80   1      8.0031451090967405      4.6068863716016892      2.5606806956466701
    81   1      8.0029554393631006      2.7487640260015289      5.0708959670654998
    82   1      8.0031657439326995      4.6068858476590391      7.5772363310096997
    83   1      8.0029752810045807      2.7504740793112092      10.084621307894899
    84   1      8.0031845062102498      4.6068860183112088        12.5955140737865
    85   1      6.3915088091630503      5.5373946209230285    0.052441397792421497
    86   1      6.3943431824359198      7.3951951667114981      2.5623116791106999
    87   1      6.3940327865867301       5.535948671873828      5.0708962106584501
    88   1      6.3929696443785904      7.3941662228944578      7.5788782283711598
    89   1      6.3955336024923302      5.5350933997890284         10.084621454475
    90   1      6.3928525526548503      7.3939815259051782      12.589493342802101
    91   1      4.7834363257549297      8.3253158962534481         15.099192221207
    92   1      4.7803965607620302      10.181457309788398      2.5619311372251299
    93   1      4.7831114614961896      8.3233845153606989      5.0720107258259901
    94   1      4.7857282840037199      10.184523405675598      7.5784729967748898
    95   1      4.7832233326933498      8.3235946327016386      10.082625699220699
    96   1      4.7801727203317697      10.181305345910298      12.588020775311501
