ITEM: TIMESTEP
0
ITEM: NUMBER OF ATOMS
96
ITEM: BOX BOUNDS xy xz yz pp pp pp
-6.3928000000000003e+00 1.2785600000000001e+01 -6.3928000000000003e+00
0.0000000000000000e+00 1.1072654402626320e+01 0.0000000000000000e+00
0.0000000000000000e+00 1.5153300000000000e+01 0.0000000000000000e+00
ITEM: ATOMS id type x y z
1 1           6.38529864     11.0683243726263           15.1290976
2 1 -0.00750142000000009           1.84977364           2.54975165
3 1            6.3842942     11.0677440426263           5.04175635
4 1  0.00124547000000001           1.84472341           7.58129464
5 1           0.00124536           0.00071907          10.09755499
6 1 -0.00850610999999992           1.85035365          12.63709308
7 1          11.17926778           2.77285888          15.14016758
8 1          -1.60136872           4.61183329           2.53283026
9 1          11.17947031           2.77274215           5.05492242
10 1          -1.59886316           4.61511708           7.58098216
11 1          -1.59489687           2.76625678          10.09590479
12 1          -1.59908303           4.61562619          12.62366178
13 1          -3.19462568           5.53735169          15.15283263
14 1          -3.19951988           7.37991209           2.53283051
15 1           9.58743813           5.53530937           5.05399311
16 1          -3.19542221           7.38043793           7.58098238
17 1           9.58670298           5.53488495          10.10066818
18 1          -3.19509229           7.37999418          12.62366234
19 1           7.99100018           8.29510132          15.14016804
20 1          -4.79460061          10.14127249           2.54975234
21 1           7.99100047           8.29533373           5.05492299
22 1           -4.7945998          10.15137091           7.58129479
23 1          -4.79459984           8.30830419          10.09590524
24 1          -4.79460044          10.14011167          12.63709376
25 1           -3.1888997     11.0683239526263          15.12909837
26 1           3.20389978           1.84977317           2.54975243
27 1          -3.18789386     11.0677433126263           5.04175685
28 1            3.1951546           1.84472309           7.58129492
29 1           3.19515479            0.0007187          10.09755534
30 1           3.20490532           1.85035311          12.63709395
31 1           1.59819912           2.77682512           15.1290976
32 1           1.59819996           4.62299583           2.53868199
33 1           1.59819953           2.77798506            5.0417564
34 1           1.59820034           4.60979239           7.58294458
35 1           1.59820004           2.76672583          10.09755501
36 1            1.5981999            4.6227633          12.62392706
37 1  0.00311941000000019           5.53818514          15.14601941
38 1 -0.00177446000000184           7.38074526           2.52601733
39 1 -0.00130736000000013           5.53810206           5.05518741
40 1  0.00249876999999996           7.38321093           7.57818187
41 1 -0.00097579000000086           5.53765825          10.09786771
42 1  0.00176230000000139           7.38278695          12.62485649
43 1          -1.59503127           8.30626354          15.14601984
44 1          -1.59006873           10.1452384           2.53868237
45 1          -1.59731615           8.30246996            5.0551879
46 1          -1.60150184          10.15183909           7.58294503
47 1          -1.59753512           8.30297895          10.09786819
48 1          -1.59027036          10.14535423          12.62392788
49 1 4.85499999985048e-05     11.0690238226263          15.14601952
50 1           6.39284812           1.84907285            2.5328307
51 1           6.39499151           0.00024499           5.05518789
52 1           6.39444112            1.8452622           7.58098227
53 1           6.39444092            0.0001798          10.09786821
54 1           6.39499087           1.84519769          12.62366246
55 1           4.80273068           2.77285853          15.14016826
56 1           4.79776844           4.61183294           2.53283028
57 1           4.80252947           2.77274235           5.05492281
58 1           4.79526439           4.61511695           7.58098246
59 1           4.79129707           2.76625701          10.09590557
60 1            4.7954825           4.61562646          12.62366238
61 1            3.1932795           5.53818509          15.14601965
62 1           3.19817471           7.38074494           2.52601735
63 1           3.19770805           5.53810217           5.05518793
64 1           3.19390314           7.38321134           7.57818161
65 1           3.19737657           5.53765843          10.09786767
66 1           3.19463778           7.38278684          12.62485648
67 1            1.5981999           8.30449086          15.15314438
68 1           1.59819981           10.1519823           2.52601741
69 1           1.59820033            8.3044905           5.04539684
70 1           1.59820075          10.14704889           7.57818196
71 1            1.5982006           8.30449031           10.1024288
72 1           1.59820003          10.14789819          12.62485657
73 1           3.19635045     11.0690241226263          15.14601951
74 1           9.58915109           1.84907328           2.53283033
75 1           9.58700918           0.00024482           5.05518756
76 1           9.58755958           1.84526195           7.58098189
77 1           9.58755942           0.00017998           10.0978678
78 1           9.58700898           1.84519741          12.62366204
79 1           7.99099925           2.76611474          15.15283305
80 1           7.99099957           4.61360647            2.5257051
81 1           7.99100018           2.77019872            5.0539929
82 1           7.99100098           4.61360583           7.57642128
83 1           7.99100042           2.77104722          10.10066828
84 1           7.99099987           4.61360601          12.63345322
85 1           6.39102466           5.53735203          15.15283268
86 1           6.39591966           7.37991229           2.53283027
87 1           6.39456217           5.53530977           5.05399358
88 1           6.39182391           7.38043842           7.58098211
89 1            6.3952975           5.53488538          10.10066844
90 1           6.39149191           7.37999484           12.6236625
91 1           4.79143097           8.30626418          15.14601928
92 1           4.78646808          10.14523864           2.53868183
93 1           4.79371713           8.30247109           5.05518784
94 1           4.79790289          10.15183992           7.58294479
95 1           4.79393585           8.30297963          10.09786759
96 1            4.7866695           10.1453548          12.62392724
ITEM: TIMESTEP
1
ITEM: NUMBER OF ATOMS
96
ITEM: BOX BOUNDS xy xz yz pp pp pp
-6.4055855924314518e+00 1.2798385597153793e+01 -6.3927999955764960e+00
-1.1072654402626321e-02 1.1083727057171304e+01 2.9883630681248016e-10
3.1450546020071130e-03 1.5150154945397993e+01 1.4235680026616080e-10
ITEM: ATOMS id type x y z
1 1     6.39806923017341      11.079391248603     15.1259921524327
2 1  -0.0181610935497646      1.8423976510506     2.55180874651511
3 1     6.39706235771182     11.0788099002135     5.04282514090064
4 1 -0.00940748768980559     1.83734017657362     7.58128200567918
5 1  -0.0115368708123815  -0.0103521204683741     10.0965192730985
6 1  -0.0191668763453201      1.8429786787527     12.6349759379378
7 1     11.1920471224147     2.76732929511549     15.1370433468742
8 1    -1.61202876327787     4.60998551191914     2.53491694022822
9 1     11.1922485219883     2.76721314004863     5.05597491468718
10 1    -1.60951730459382     4.61327416168686     7.58097739921442
11 1    -1.60767954053924     2.76071749324751     10.0948655096021
12 1    -1.60973735986678     4.61378469686584     12.6215649007867
13 1    -3.20740590839543     5.53735410546435     15.1496894479209
14 1    -3.21018037636428     7.38360125593775     2.53491719019347
15 1     9.60022002765312     5.53530791051769     5.05504117402499
16 1    -3.20607683518669     7.38412648684122     7.58097761920372
17 1     9.59948196177264     5.53488208990123      10.099622420931
18 1     -3.2057465817495     7.38368135689973     12.6215654603896
19 1     8.00377493857637     8.30062416497861     15.1370438066733
20 1    -4.80526527155683     10.1504881436928     2.55180943612697
21 1     8.00377549748749     8.30085542279921     5.05597548421239
22 1    -4.80525279922914     10.1606010490323     7.58128215562459
23 1    -4.80738102958743     8.31384643601997     10.0948659593212
24 1    -4.80526644143801     10.1493252871424     12.6349766174072
25 1    -3.19528748457409     11.0793908278673      15.125992921929
26 1      3.1996529245703      1.8423971802315     2.55180952600979
27 1    -3.19428055034195     11.0788091689932     5.04282564059527
28 1     3.19088936943529     1.83733985601403     7.58128228554749
29 1     3.18876028661516  -0.0103524911049473     10.0965196228598
30 1     3.20066089867101     1.84297813783967     12.6349768072094
31 1     1.59181632285238     2.77130035268124      15.125992152439
32 1     1.59394893862223     4.62116387067617     2.54075787179307
33 1     1.59181807291754     2.77246232768723     5.04282519090002
34 1     1.59393407361146     4.60794102835029     7.58293550924355
35 1     1.59180558288503     2.76118657562101     10.0965192930653
36 1     1.59394861025178     4.62093249242636     12.6218262142056
37 1 -0.00326755100019089     5.53818685983084     15.1428843783609
38 1 -0.00604168873573304     7.38443372981417     2.52811216046762
39 1 -0.00770052529939276     5.53810576718348     5.05623593827707
40 1 -0.00175647306215119      7.3869046734683     7.57817927749122
41 1 -0.00736861915434896     5.53766057698106     10.0968241191767
42 1 -0.00249586075352851     7.38647929371375     12.6227600749028
43 1    -1.60141868381337     8.31180220323832     15.1428848080648
44 1    -1.59432433695735     10.1544588706871     2.54075825159128
45 1    -1.60370927644668     8.30800233708685     5.05623642795584
46 1     -1.6057666253439     10.1610692601076     7.58293595903325
47 1     -1.6039284302945     8.30851275197462     10.0968245988146
48 1    -1.59452483602186     10.1545741242905     12.6218270335227
49 1 4.40055124263025e-05     11.0800924218117     15.1428844883867
50 1     6.39498288804228     1.84169513559444     2.53491738001932
51 1      6.3949962140643  -0.0108274229853901     5.05623641809756
52 1     6.39657464679305     1.83788023302476     7.58097750932405
53 1     6.39444392862958  -0.0108926575911328     10.0968246188526
54 1     6.39712594109311     1.83781567950285     12.6215655803028
55 1     4.80274777724898     2.76732894450015     15.1370440264495
56 1     4.79990066093558     4.60998516131697     2.53491696046645
57 1     4.80254743083671     2.76721334027949     5.05597530447472
58 1     4.79739829924451     4.61327403142009     7.58097769919508
59 1     4.79128974331092     2.76071772353714     10.0948662890792
60 1     4.79761776762776     4.61378496717289     12.6215655004096
61 1     3.19327795627996     5.53818680980312     15.1428846181746
62 1     3.20030864644212     7.38443340939959     2.52811218050684
63 1     3.19771252176325      5.5381058773554     5.05623645776542
64 1     3.19603078905546     7.38690508411265      7.5781790176891
65 1     3.19737968111018     5.53766075732535     10.0968240791614
66 1     3.19676736382174     7.38647918356721     12.6227600648375
67 1     1.59819990348146     8.31002718752616     15.1499992205243
68 1     1.60033311261931     10.1612143427914     2.52811224038065
69 1     1.59820033375726     8.31002682680241     5.04645142250252
70 1     1.60032835775989     10.1562703822443     7.57817936746036
71 1     1.59820060402103     8.31002663663645      10.101379661047
72 1     1.60032861719838     10.1571224842254     12.6227601547204
73 1     3.20273941634286     11.0800927223957     15.1428844782704
74 1     9.59767937060977     1.84169556636966     2.53491701024793
75 1     9.59339784131427  -0.0108275931294784     5.05623608817727
76 1     9.59608030378835     1.83787998271334     7.58097712948144
77 1     9.59394962622619  -0.0108924772597563     10.0968242090993
78 1     9.59552800890977     1.83781539918916     12.6215651606231
79 1     7.99738968258046     2.76057358261142     15.1496898675691
80 1     7.99952330288217     4.61176102843732      2.5278019084946
81 1     7.99739532975419     2.76466531094982     5.05504096422657
82 1     7.99952471466892     4.61176038729944     7.57642206736373
83 1     7.99739655005302      2.7655166115831     10.0996225207662
84 1     7.99952360302878     4.61176056771285     12.6313502859109
85 1     6.39741445939265     5.53735444605247     15.1496894978413
86 1     6.40444493960899      7.3836014562331     2.53491695044218
87 1     6.40095632269592     5.53530831115465     5.05504164354452
88 1     6.40034453685691     7.38412697754162     7.58097734949662
89 1      6.4016935890334     5.53488252057839     10.0996226806776
90 1     6.40001117529905     7.38368201796245     12.6215656201691
91 1     4.79782248510688     8.31180284435135     15.1428842485811
92 1     4.79497471764023     10.1544591111448     2.54075771185602
93 1     4.80010559956695     8.30800346891091     5.05623636784021
94 1     4.80643395378221     10.1610700915027     7.58293571905916
95 1      4.8003256781039     8.30851343306194     10.0968239993443
96 1     4.79517527466337     10.1545746952334     12.6218263939704
ITEM: TIMESTEP
2
ITEM: NUMBER OF ATOMS
96
ITEM: BOX BOUNDS xy xz yz pp pp pp
-6.4202489366806592e+00 1.2811171196854957e+01 -6.3946759041243348e+00
-2.2144712773701437e-02 1.1094799155321150e+01 -1.8357013689422155e-06
1.1133579172891872e-02 1.5142166420827108e+01 3.9921127273864500e-08
ITEM: ATOMS id type x y z
1 1     6.40896477712124     11.0904589262777     15.1180734853854
2 1  -0.0291316375713607     1.83502065371266     2.55706457960718
3 1     6.40795695366978      11.089876628097     5.04552263941087
4 1  -0.0203734357926302      1.8299573380554     7.58126112212093
5 1  -0.0243208218192025  -0.0214226569778369     10.0938773176253
6 1  -0.0301396685120276     1.83560263200661     12.6296155973781
7 1     11.2043567131024     2.76179872644337     15.1290917287119
8 1    -1.62346852154323     4.60813840472011     2.54022445647123
9 1     11.2045575422241     2.76168351460768     5.05864225805347
10 1    -1.62095380722765     4.61143111690036      7.5809683908618
11 1    -1.62093325580428     2.75517896575381     10.0922189750556
12 1    -1.62117486806439     4.61194325674299     12.6162407762518
13 1    -3.22112622323811     5.53735673360853     15.1417039168081
14 1    -3.22208980620301     7.38729123889346     2.54022470505815
15 1     9.61206359928947     5.53530674322004     5.05770231097512
16 1    -3.21798253861778     7.38781501393809      7.5809686111211
17 1      9.6113215922923     5.53487925621563     10.0969641212489
18 1    -3.21765240916643     7.38736832368251     12.6162413336526
19 1     8.01514210681214      8.3061493694451     15.1290921816283
20 1    -4.81764795754231     10.1597060745132     2.55706526501459
21 1     8.01514411260949     8.30637866592106     5.05864282021017
22 1    -4.81762612541817     10.1698307616254      7.5812612709733
23 1    -4.82157144536549     8.31938755414218     10.0922194234033
24 1     -4.8176514882018     10.1585413962085     12.6296162763765
25 1    -3.20355511040389     11.0904585589345      15.118074247272
26 1     3.19509040700864      1.8350202362114     2.55706535148492
27 1    -3.20254592655034     11.0898759483408     5.04552313976238
28 1     3.18631106058334     1.82995700763078     7.58126139980569
29 1     3.18236397505378  -0.0214230375470664     10.0938776650122
30 1     3.19609933374623     1.83560214283078     12.6296164665117
31 1     1.58496083847578     2.76577315569538     15.1180734822037
32 1     1.58891480202695     4.61932939942609      2.5460466553013
33 1     1.58496494967163     2.76693695101818     5.04552269009969
34 1     1.58888632189862     4.60609064208707     7.58291920386468
35 1     1.58494074116971     2.75564759515479     10.0938773366155
36 1     1.58891302744223     4.61909998199856     12.6164960365902
37 1  -0.0105962902511579     5.53818761018096     15.1349140221391
38 1  -0.0115595427517193     7.38812183452469     2.53343484995776
39 1  -0.0150328665781322     5.53810953217308     5.05889722390082
40 1 -0.00726307033614657     7.39059823821238     7.57817473556195
41 1  -0.0147010819610637     5.53766278132584     10.0941702855672
42 1 -0.00800640086680965     7.39017119292382     12.6174360972958
43 1    -1.60921709441005     8.31734004322603     15.1349144499952
44 1    -1.60030089762013     10.1636801726686     2.54604702825096
45 1     -1.6115099362439     8.31353450887436     5.05889771152178
46 1    -1.61175107769292      10.170298518648     7.58291965238825
47 1    -1.61173009432737     8.31404652811097      10.094170764835
48 1    -1.60050082570116     10.1637944817437     12.6164968481184
49 1  -0.0018383600241347     11.0911620631261     15.1349141276466
50 1     6.39680423409979     1.83431622734095     2.54022489670054
51 1     6.39499981247603  -0.0218993421427102     5.05889769825567
52 1     6.39839483497796     1.83049877349105     7.58096850237929
53 1     6.39444504331336  -0.0219645861822442     10.0941707843952
54 1     6.39894726479081     1.83043421858928     12.6162414557651
55 1     4.80229058909294     2.76179840337151     15.1290923947463
56 1       4.801250136395      4.6081380543427     2.54022448131236
57 1      4.8020930220994     2.76168373665191     5.05864263467295
58 1     4.79874979574829     4.61143100219505      7.5809686924945
59 1     4.79081285957317     2.75517918617623     10.0922197519353
60 1     4.79897003595813     4.61194351379764     12.6162413797476
61 1     3.19233713349088     5.53818751906491     15.1349142549645
62 1     3.20119255970188     7.38812151116869      2.5334348745727
63 1     3.19677758449979     5.53810962269653     5.05889773509305
64 1     3.19690709451804      7.3905986416612     7.57817447658968
65 1     3.19644277990122     5.53766297507386     10.0941702444988
66 1     3.19764554243325     7.39017107653239     12.6174360927739
67 1     1.59679072679579     8.31556325778791     15.1420105660466
68 1     1.60074659347551     10.1704462408803     2.53343493198246
69 1     1.59679237695468     8.31556286997899     5.04912607497578
70 1     1.60073636544586      10.165491402089     7.57817482567059
71 1     1.59679203040036     8.31556269296805     10.0987155240241
72 1     1.60073685104536     10.1663468754489     12.6174361795951
73 1     3.20725109940518     11.0911623636045     15.1349141197093
74 1      9.6058947667113     1.83431665817086     2.54022452978308
75 1      9.5997854575229  -0.0218995162174446     5.05889737120512
76 1     9.60428812914197     1.83049852618417     7.58096812217321
77 1     9.60033837862163  -0.0219644023073193     10.0941703744259
78 1      9.6037333508946     1.83043393419889      12.616241039354
79 1     8.00330923152745     2.75503241746926     15.1417043334683
80 1     8.00726551049278     4.60991569167849     2.53312772250394
81 1     8.00332012728911     2.75913165246513     5.05770209878133
82 1     8.00726632148101     4.60991506261553     7.57642336274438
83 1     8.00332157467894     2.75998632325497      10.096964220569
84 1      8.0072645912707     4.60991525668452     12.6260127918091
85 1     6.40286357663111     5.53735707737589     15.1417039620619
86 1     6.41171879288345     7.38729148052899     2.54022447238908
87 1     6.40641117529616     5.53530715054401     5.05770277393208
88 1     6.40761447073896     7.38781549213024     7.58096834301995
89 1     6.40715031636696     5.53487969523205     10.0969643800834
90 1       6.407279144283     7.38736900547247     12.6162415003336
91 1      4.8028060403044     8.31734068459254     15.1349138872751
92 1     4.80176493533878     10.1636803854568      2.5460465017565
93 1     4.80508636307943     8.31353565574745     5.05889764655883
94 1     4.81324386934561     10.1702993613776     7.58291941403148
95 1     4.80530721378897     8.31404719431381     10.0941701646091
96 1     4.80196271366169     10.1637950318648     12.6164962221958
ITEM: TIMESTEP
3
ITEM: NUMBER OF ATOMS
96
ITEM: BOX BOUNDS xy xz yz pp pp pp
-6.4370857167013993e+00 1.2822341780033424e+01 -6.4003365139967983e+00
-3.1815943846458715e-02 1.1104470600735645e+01 -7.4226711781923116e-06
2.6286879172891874e-02 1.5127013120827108e+01 2.5426286621343718e-07
ITEM: ATOMS id type x y z
1 1     6.41446437892403      11.100129529484     15.1030404538476
2 1  -0.0393827073685666     1.82857388448339     2.56704653344643
3 1     6.41345894369343     11.0995464933694     5.05063250956859
4 1  -0.0306252158705213     1.82350859816073     7.58122609200286
5 1  -0.0354936593617393   -0.031092358100024      10.088861254281
6 1  -0.0403951953463353     1.82915660405083     12.6194546252042
7 1     11.2141044729063     2.75696512667012     15.1140020849167
8 1     -1.6351347139161     4.60652626420509     2.55029509172285
9 1     11.2143059736501     2.75685149952838     5.06369938850906
10 1    -1.63262297408424     4.60982079871326     7.58095253074638
11 1    -1.63352275224003     2.75034225510987     10.0871960962558
12 1    -1.63284668506121     4.61033475981536     12.6061424238968
13 1    -3.23512885724663     5.53735960117374     15.1265555803321
14 1    -3.23517231326437     7.39051666045074     2.55029533605573
15 1     9.62039953866533     5.53530640594134     5.06274974605366
16 1     -3.2310665121837     7.39103728183418     7.58095275202711
17 1     9.61965182665153     5.53487689662767     10.0919208211136
18 1    -3.23073748184672     7.39058887433687     12.6061429752528
19 1     8.02205571681884     8.31098153178412     15.1140025173454
20 1    -4.83214970128936     10.1677639277923      2.5670472066857
21 1     8.02206154480751     8.31120724867913     5.06369992944876
22 1     -4.8321246332548     10.1778929555115     7.58122623779109
23 1    -4.83699057269798     8.32422583684259     10.0871965412047
24 1    -4.83215751366058     10.1665981970408     12.6194553037211
25 1    -3.21480871565735     11.1001293226814     15.1030411933603
26 1     3.19042729602353     1.82857362747769     2.56704728293496
27 1    -3.21379507339707     11.0995459699277      5.0506330121697
28 1      3.1816398348058      1.8235082396191     7.58122636367675
29 1     3.17677169174183  -0.0310927668251257     10.0888615953266
30 1      3.1914338359903     1.82915627135226     12.6194554951895
31 1     1.57795790688204     2.76093929707686     15.1030404408354
32 1     1.58283768435634     4.61772123143206     2.55608521955301
33 1     1.57796630045905     2.76210414382932     5.05063256220931
34 1     1.58280077670156     4.60447635238433     7.58289098648543
35 1     1.57793457601629     2.75080939446758     10.0888612705421
36 1     1.58283208845779     4.61749539292242     12.6063878271839
37 1  -0.0190184575750686     5.53818618299285      15.119792291434
38 1  -0.0190615829345727      7.3913429610217     2.54353208628453
39 1  -0.0234524677788216     5.53811297488732     5.06394448304129
40 1  -0.0147568107698299       7.393824590544     7.57816693553887
41 1  -0.0231217806857762     5.53766450635381     10.0891350443594
42 1  -0.0155058476182453     7.39339552367473     12.6073375637412
43 1    -1.61905557633044     8.32217617786661     15.1197927142229
44 1    -1.60921216621842     10.1717377667469     2.55608557209547
45 1    -1.62134279259324     8.31836699912658     5.06394496487297
46 1     -1.6206662543866     10.1783592220307     7.58289143178014
47 1    -1.62156559987465     8.31888083929616     10.0891355235341
48 1     -1.6094127654217      10.171850490365       12.60638861674
49 1 -0.00750879319379226     11.1008349279691     15.1197923832719
50 1     6.39772354908306     1.82786735887422     2.55029553333909
51 1     6.39500056073179  -0.0315706424731422     5.06394494113663
52 1     6.39931332421721     1.82405150118464     7.58095264648933
53 1     6.39444191396368  -0.0316357924994749     10.0891355416382
54 1     6.39986585617769     1.82398706265418     12.6061431040103
55 1      4.8008741364564     2.75696488723963     15.1140027110145
56 1     4.80075092543661     4.60652591632439     2.55029512926234
57 1     4.80068319284555     2.75685178660155     5.06369972599142
58 1     4.79825319227208     4.60982073092696     7.58095283759779
59 1     4.78938958080095     2.75034244510034     10.0871968667514
60 1     4.79847283053773     4.61033497740923     12.6061430394707
61 1     3.18950154130847     5.53818596901111     15.1197925040547
62 1     3.19928499507478     7.39134263028205     2.54353212395139
63 1     3.19394677455905     5.53811300674961     5.06394497051687
64 1     3.19498999432424     7.39382497120651      7.5781666781646
65 1     3.19360894095435     5.53766473943308     10.0891350002639
66 1     3.19572998094805     7.39339538900821     12.6073375764222
67 1     1.59253844628981     8.32039909398891     15.1268570398393
68 1     1.59742081375514     10.1785109311949     2.54353217458606
69 1     1.59254380743475     8.32039856296758     5.05419798855167
70 1     1.59740626549362     10.1735458686419      7.5781670259943
71 1     1.59254158347516     8.32039845762315      10.093662228458
72 1     1.59740531608893     10.1744055961544     12.6073376540324
73 1     3.20716827520274     11.1008352262547     15.1197923824302
74 1     9.61240169127928     1.82786778758272      2.5502951747197
75 1      9.6053639682848  -0.0315708284971351     5.06394462297843
76 1     9.61078836101065     1.82405126360452     7.58095226450716
77 1      9.6059169922527  -0.0316355986567443     10.0891351301418
78 1     9.61022970504403       1.823986766239     12.6061426971628
79 1     8.00747150233559     2.75019172122435     15.1265559891456
80 1     8.01235428297709     4.60830385002506     2.54323015057632
81 1     8.00748815432318     2.75429692569274     5.06274952604941
82 1      8.0123532622135     4.60830329126959     7.57642555809262
83 1     8.00748816766481     2.75515584984661     10.0919209194231
84 1     8.01234965341085     4.60830355726763     12.6158897780446
85 1     6.40560763308569     5.53735995267544      15.126555612367
86 1     6.41539087673912     7.39051702513696     2.55029512374436
87 1     6.40916322929529     5.53530683181786      5.0627501900191
88 1     6.41128480350494      7.3910377211457     7.58095248794469
89 1     6.40990391048949     5.53487735903497     10.0919210782192
90 1     6.41094644710852     7.39058961538283     12.6061431631862
91 1     4.80414174312191     8.32217681708294     15.1197921411797
92 1     4.80401787894866     10.1717378958535     2.55608508501108
93 1     4.80642006147581     8.31836818628669     5.06394488608927
94 1     4.81550364125759     10.1783600959912     7.58289119805852
95 1     4.80664031095792     8.31888145885081     10.0891349196323
96 1     4.80420903475462     10.1718509759189     12.6063880307782
ITEM: TIMESTEP
4
ITEM: NUMBER OF ATOMS
96
ITEM: BOX BOUNDS xy xz yz pp pp pp
-6.4517631934309358e+00 1.2827958339940535e+01 -6.4093885091213059e+00
-3.6676310425647667e-02 1.1109331361716830e+01 -1.6344369097065979e-05
4.1440179172891875e-02 1.5111859820827108e+01 6.4866486233508427e-07
ITEM: ATOMS id type x y z
1 1     6.41102764841489      11.104995008509     15.0880288141407
2 1  -0.0455642180289219      1.8253287335035      2.5770071091482
3 1     6.41002841860603      11.104411771697     5.05575403204077
4 1  -0.0368151511450711     1.82026774111631     7.58118370303991
5 1  -0.0411169845282114  -0.0359516090311366      10.083852552875
6 1  -0.0465827088417003     1.82591165889236     12.6092819999156
7 1     11.2174526697757     2.75453124859992     15.0989236050315
8 1    -1.64357910163297     4.60571820629776     2.56036062615031
9 1     11.2176560349114     2.75441973172665     5.06876030094721
10 1    -1.64107840978197     4.60901074863303     7.58093452475099
11 1    -1.64141141094788      2.7479133558533     10.0821777933565
12 1    -1.64130618628942     4.60952630581138     12.5960430145865
13 1    -3.24527920042781     5.53736200761497     15.1114084240171
14 1    -3.24588128481918     7.39214158246779     2.56036086349843
15 1     9.62148689285918     5.53530739206582      5.0677976984339
16 1    -3.24178400081955     7.39265733072313      7.5809347479929
17 1     9.62073263465359     5.53487587971918     10.0868789349449
18 1    -3.24145701802391     7.39220749331556     12.5960435563927
19 1     8.02087524038402     8.31342018986733     15.0989240048687
20 1    -4.84512471054681     10.1718239552344     2.57700776303338
21 1     8.02088691861733     8.31364092841336     5.06876080854266
22 1    -4.84510561488233     10.1819450843876     7.58118384421233
23 1    -4.84940527394436     8.32665432505472      10.082178233564
24 1    -4.84513807800559     10.1706586039431     12.6092826779655
25 1     -3.2266870218819     11.1049950558878     15.0880295175756
26 1     3.18703732951749     1.82532873069152     2.57700782254665
27 1    -3.22566737599843     11.1044114970351     5.05575453772094
28 1     3.17825534010021     1.82026733909473     7.58118396571473
29 1     3.17395380669958  -0.0359520612225318     10.0838528845316
30 1     3.18803766478483     1.82591157492709     12.6092828713819
31 1      1.5728730993766     2.75849985201923     15.0880287848448
32 1     1.57719146374831     4.61690315595625     2.56611263200518
33 1     1.57288704894062     2.75966431920851     5.05575408734929
34 1     1.57715566305292     4.60366844582888     7.58285819457017