LAMMPS (27 Jun 2024)
OMP_NUM_THREADS environment is not set. Defaulting to 1 thread. (src/comm.cpp:98)
  using 1 OpenMP thread(s) per MPI task
Reading data file ...
  orthogonal box = (0 0 0) to (22.422218 22.19224 20.321894)
  5 by 2 by 2 MPI processor grid
  reading atoms ...
  448 atoms
  read_data CPU = 0.005 seconds
**************** Begin of POD Potentials ****************
species: Hf 
periodic boundary conditions: 1 1 1
number of environment clusters: 8
number of principal compoments: 2
inner cut-off radius: 1
outer cut-off radius: 5
cut-off function type: 1
gaussian_exponents: 
polynomial_degrees: 
bessel polynomial degree: 4
inverse polynomial degree: 10
one-body potential: 1
two-body radial basis functions: 8
three-body radial basis functions: 8
three-body angular degree: 6
four-body radial basis functions: 7
four-body angular degree: 5
five-body radial basis functions: 0
five-body angular degree: 0
six-body radial basis functions: 0
six-body angular degree: 0
seven-body radial basis functions: 0
seven-body angular degree: 0
number of local descriptors per element for one-body potential: 1
number of local descriptors per element for two-body potential: 8
number of local descriptors per element for three-body potential: 56
number of local descriptors per element for four-body potential: 112
number of local descriptors per element for five-body potential: 0
number of local descriptors per element for six-body potential: 0
number of local descriptors per element for seven-body potential: 0
number of local descriptors per element for all potentials: 177
number of global descriptors: 1409
**************** End of POD Potentials ****************

**************** Begin of Model Coefficients ****************
total number of coefficients for POD potential: 1409
total number of elements for PCA projection matrix: 352
total number of elements for PCA centroids: 16
**************** End of Model Coefficients ****************


CITE-CITE-CITE-CITE-CITE-CITE-CITE-CITE-CITE-CITE-CITE-CITE-CITE

Your simulation uses code contributions which should be cited:
- Type Label Framework: https://doi.org/10.1021/acs.jpcb.3c08419
The log file lists these citations in BibTeX format.

CITE-CITE-CITE-CITE-CITE-CITE-CITE-CITE-CITE-CITE-CITE-CITE-CITE

Neighbor list info ...
  update: every = 1 steps, delay = 0 steps, check = no
  max neighbors/atom: 2000, page size: 100000
  master list distance cutoff = 7
  ghost atom cutoff = 7
  binsize = 3.5, bins = 7 7 6
  1 neighbor lists, perpetual/occasional/extra = 1 0 0
  (1) pair pod, perpetual
      attributes: full, newton on
      pair build: full/bin/atomonly
      stencil: full/bin/3d
      bin: standard
Setting up Verlet run ...
  Unit style    : metal
  Current step  : 0
  Time step     : 0.001
Per MPI rank memory allocation (min/avg/max) = 2.586 | 2.586 | 2.586 Mbytes
   Step          Temp          TotEng         PotEng         KinEng         Press          Volume    
         0   300           -3231.7429     -3249.0767      17.333785      27701.818      10112.159    
       100   301.31977     -3235.9116     -3253.3216      17.410041      9562.3789      10112.159    
       200   221.10984     -3236.0786     -3248.8541      12.775568      10592.324      10112.159    
       300   330.03203     -3234.3466     -3253.4156      19.069015      9666.479       10112.159    
       400   338.64542     -3237.0885     -3256.6552      19.56669       9121.2155      10112.159    
       500   347.42394     -3239.8374     -3259.9113      20.073907      8229.2128      10112.159    
       600   283.51414     -3241.5389     -3257.9201      16.381244      7982.998       10112.159    
       700   274.01161     -3240.9796     -3256.8118      15.832195      9018.9299      10112.159    
       800   315.95153     -3239.3084     -3257.5638      18.255453      8921.6217      10112.159    
       900   288.99917     -3238.8538     -3255.5519      16.698165      9142.7316      10112.159    
      1000   332.68662     -3238.6694     -3257.8918      19.222395      8474.7253      10112.159    
      1100   286.48106     -3239.9388     -3256.4915      16.552671      8942.1656      10112.159    
      1200   317.50544     -3240.2117     -3258.557       18.345238      8314.1595      10112.159    
      1300   290.70922     -3240.9153     -3257.7122      16.796971      8455.2203      10112.159    
      1400   291.65345     -3240.4025     -3257.254       16.851528      8698.6208      10112.159    
      1500   304.5902      -3239.1243     -3256.7233      17.599004      8747.1071      10112.159    
      1600   316.3295      -3238.6954     -3256.9727      18.277293      8633.1497      10112.159    
      1700   293.37994     -3239.4699     -3256.4212      16.951283      8507.9195      10112.159    
      1800   290.43289     -3240.005      -3256.786       16.781005      8648.4983      10112.159    
      1900   287.1596      -3241.8852     -3258.4771      16.591876      8721.1494      10112.159    
      2000   275.04541     -3242.435      -3258.3269      15.891927      7331.7538      10112.159    
      2100   306.27711     -3240.8883     -3258.5848      17.696473      8149.6048      10112.159    
      2200   294.26639     -3239.9259     -3256.9284      17.002502      8465.5566      10112.159    
      2300   307.92308     -3239.0048     -3256.7963      17.791575      8689.2073      10112.159    
      2400   286.17943     -3239.4895     -3256.0247      16.535243      8864.2601      10112.159    
      2500   310.42965     -3239.8609     -3257.7973      17.936403      8664.1815      10112.159    
      2600   280.21382     -3241.2296     -3257.4202      16.190554      8443.0825      10112.159    
      2700   284.23179     -3242.0564     -3258.4791      16.42271       7921.9933      10112.159    
      2800   293.82084     -3240.9579     -3257.9346      16.976758      8203.7518      10112.159    
      2900   312.04024     -3239.9948     -3258.0243      18.029462      8421.4326      10112.159    
      3000   285.86242     -3239.8756     -3256.3926      16.516926      8529.2256      10112.159    
      3100   295.88992     -3239.0075     -3256.1038      17.096308      8828.415       10112.159    
      3200   311.24176     -3239.1309     -3257.1143      17.983326      8791.2098      10112.159    
      3300   302.38299     -3240.4706     -3257.9421      17.471473      8357.0516      10112.159    
      3400   300.53147     -3240.7098     -3258.0743      17.364494      8360.1793      10112.159    
      3500   293.71303     -3240.3901     -3257.3607      16.970529      8668.0862      10112.159    
      3600   296.04068     -3240.0928     -3257.1978      17.105019      8328.3345      10112.159    
      3700   281.84586     -3239.8263     -3256.1111      16.284852      8628.4089      10112.159    
      3800   323.76645     -3238.5951     -3257.302       18.706994      8639.4488      10112.159    
      3900   330.24371     -3238.4121     -3257.4933      19.081245      8594.0053      10112.159    
      4000   277.88769     -3239.4051     -3255.4613      16.056152      8974.4726      10112.159    
      4100   292.26281     -3240.3723     -3257.259       16.886736      8689.1636      10112.159    
      4200   288.7118      -3241.072      -3257.7536      16.681561      8151.8046      10112.159    
      4300   297.62726     -3240.8108     -3258.0075      17.19669       8484.608       10112.159    
      4400   315.20965     -3238.9907     -3257.2033      18.212588      9195.1595      10112.159    
      4500   308.38434     -3238.8718     -3256.6901      17.818227      8922.1431      10112.159    
      4600   300.02266     -3239.6853     -3257.0204      17.335095      8308.9839      10112.159    
      4700   282.7225      -3240.5272     -3256.8627      16.335504      8550.9332      10112.159    
      4800   301.03706     -3240.1506     -3257.5443      17.393706      8739.4755      10112.159    
      4900   321.83391     -3238.7341     -3257.3295      18.595333      8752.2032      10112.159    
      5000   308.69527     -3238.3479     -3256.1841      17.836192      9308.1187      10112.159    
      5100   313.65149     -3237.9408     -3256.0634      18.122559      8975.5677      10112.159    
      5200   306.85627     -3239.336      -3257.0659      17.729936      8734.4814      10112.159    
      5300   287.54382     -3240.7269     -3257.341       16.614077      8719.4994      10112.159    
      5400   297.70595     -3240.7331     -3257.9343      17.201237      8352.6805      10112.159    
      5500   301.02106     -3240.1193     -3257.5121      17.392782      8697.2174      10112.159    
      5600   314.92979     -3238.6664     -3256.8629      18.196418      9035.8744      10112.159    
      5700   302.11942     -3238.5874     -3256.0437      17.456244      8956.5909      10112.159    
      5800   315.40608     -3238.7505     -3256.9744      18.223938      8990.1384      10112.159    
      5900   291.40592     -3239.6583     -3256.4955      16.837226      8946.6575      10112.159    
      6000   314.66707     -3240.1588     -3258.3401      18.181238      8366.6586      10112.159    
      6100   303.1841      -3240.8031     -3258.3209      17.517761      8410.97        10112.159    
      6200   265.1723      -3241.4135     -3256.735       15.321466      8629.3067      10112.159    
      6300   302.73788     -3240.7387     -3258.2307      17.491978      8562.942       10112.159    
      6400   301.79423     -3239.4461     -3256.8836      17.437455      8769.6299      10112.159    
      6500   313.33606     -3238.6848     -3256.7891      18.104333      9048.4643      10112.159    
      6600   318.50586     -3239.1187     -3257.5218      18.403041      8717.5594      10112.159    
      6700   272.06285     -3240.673      -3256.3926      15.719597      8844.0618      10112.159    
      6800   307.5597      -3240.6649     -3258.4355      17.770579      8357.9742      10112.159    
      6900   304.65242     -3240.4924     -3258.095       17.602599      8353.7404      10112.159    
      7000   286.23494     -3239.6837     -3256.2222      16.53845       9253.3128      10112.159    
      7100   308.53739     -3238.9567     -3256.7838      17.82707       9157.2998      10112.159    
      7200   313.33719     -3239.4115     -3257.5159      18.104398      8645.6609      10112.159    
      7300   300.00007     -3239.9187     -3257.2525      17.333789      8625.7582      10112.159    
      7400   303.28691     -3239.8853     -3257.409       17.523701      8544.2641      10112.159    
      7500   286.52774     -3240.2027     -3256.7581      16.555368      8821.5809      10112.159    
      7600   302.17842     -3240.4599     -3257.9195      17.459653      8674.6207      10112.159    
      7700   301.88445     -3240.2816     -3257.7243      17.442668      8402.9447      10112.159    
      7800   294.43077     -3239.6214     -3256.6334      17.012         8957.1622      10112.159    
      7900   307.68168     -3238.7256     -3256.5033      17.777628      9376.0828      10112.159    
      8000   315.74588     -3238.3733     -3256.6168      18.243571      8991.5483      10112.159    
      8100   298.95599     -3239.6744     -3256.9478      17.273464      8635.6283      10112.159    
      8200   296.27651     -3240.6977     -3257.8163      17.118645      8677.5296      10112.159    
      8300   278.90101     -3240.814      -3256.9287      16.114701      9118.1673      10112.159    
      8400   303.44306     -3239.6016     -3257.1343      17.532723      9028.0535      10112.159    
      8500   318.09808     -3238.491      -3256.8705      18.37948       8999.0515      10112.159    
      8600   313.87809     -3238.6523     -3256.788       18.135652      9220.2504      10112.159    
      8700   288.73478     -3240.9547     -3257.6376      16.682889      8590.0021      10112.159    
      8800   278.10376     -3241.2038     -3257.2724      16.068636      8557.0187      10112.159    
      8900   297.85543     -3239.8737     -3257.0835      17.209873      9002.9556      10112.159    
      9000   314.80699     -3239.0308     -3257.2201      18.189323      9100.886       10112.159    
      9100   302.10183     -3239.5682     -3257.0234      17.455228      8866.3648      10112.159    
      9200   299.24814     -3240.5218     -3257.8122      17.290344      8704.2187      10112.159    
      9300   283.05163     -3241.6659     -3258.0204      16.354521      8280.6307      10112.159    
      9400   276.53493     -3242.4201     -3258.3981      15.97799       8148.7493      10112.159    
      9500   297.73528     -3240.9351     -3258.138       17.202932      8644.5329      10112.159    
      9600   296.29301     -3239.6559     -3256.7755      17.119598      8584.7862      10112.159    
      9700   310.98437     -3239.0033     -3256.9718      17.968454      8935.862       10112.159    
      9800   307.24167     -3239.4033     -3257.1555      17.752204      8857.8215      10112.159    
      9900   288.46737     -3240.8046     -3257.472       16.667438      8762.569       10112.159    
     10000   283.50924     -3241.0753     -3257.4563      16.380961      8656.8044      10112.159    
     10100   297.25767     -3240.3548     -3257.5301      17.175335      8953.652       10112.159    
     10200   306.8667      -3240.1334     -3257.8639      17.730538      8428.1081      10112.159    
     10300   297.18209     -3240.0161     -3257.1871      17.170968      8533.8708      10112.159    
     10400   297.12869     -3239.4911     -3256.659       17.167883      8904.0044      10112.159    
     10500   297.92348     -3239.1794     -3256.3932      17.213805      9276.8795      10112.159    
     10600   301.35318     -3239.6011     -3257.0131      17.411971      8750.6799      10112.159    
     10700   310.44063     -3240.2378     -3258.1749      17.937038      8544.2378      10112.159    
     10800   300.79313     -3241.1069     -3258.4866      17.379612      8453.917       10112.159    
     10900   265.56145     -3241.9152     -3257.2592      15.34395       8555.2499      10112.159    
     11000   299.30033     -3240.3476     -3257.641       17.293359      8991.0113      10112.159    
     11100   291.72689     -3239.6111     -3256.4668      16.855771      9047.1105      10112.159    
     11200   333.6671      -3239.0428     -3258.3218      19.279046      8567.5451      10112.159    
     11300   287.76105     -3240.0092     -3256.6359      16.626628      9093.2031      10112.159    
     11400   300.94984     -3240.1559     -3257.5445      17.388667      8802.3049      10112.159    
     11500   290.17336     -3240.6532     -3257.4192      16.766009      8652.9246      10112.159    
     11600   287.65212     -3241.5099     -3258.1302      16.620334      8302.1862      10112.159    
     11700   313.80335     -3240.87       -3259.0013      18.131333      8643.2315      10112.159    
     11800   289.08234     -3239.6826     -3256.3856      16.702971      9322.9344      10112.159    
     11900   304.2019      -3239.1053     -3256.6819      17.576568      9264.6992      10112.159    
     12000   306.66092     -3239.4845     -3257.2032      17.718649      8932.6353      10112.159    
     12100   305.3618      -3239.9787     -3257.6223      17.643586      8473.2152      10112.159    
     12200   296.8363      -3241.1361     -3258.2871      17.150989      8277.4171      10112.159    
     12300   264.89904     -3242.4262     -3257.7319      15.305677      8573.7898      10112.159    
     12400   294.10886     -3241.4351     -3258.4285      16.9934        8227.6335      10112.159    
     12500   286.19232     -3240.4934     -3257.0294      16.535987      8653.6524      10112.159    
     12600   314.77172     -3239.5844     -3257.7717      18.187285      8773.4545      10112.159    
     12700   302.37535     -3239.7491     -3257.2201      17.471031      8771.1886      10112.159    
     12800   294.98729     -3240.1623     -3257.2065      17.044155      8572.5112      10112.159    
     12900   303.98346     -3240.4817     -3258.0456      17.563947      8663.072       10112.159    
     13000   287.79413     -3240.926      -3257.5545      16.628539      9070.7694      10112.159    
     13100   293.56303     -3240.5202     -3257.4821      16.961862      8281.9193      10112.159    
     13200   297.85394     -3239.3638     -3256.5736      17.209788      8949.5006      10112.159    
     13300   315.42271     -3238.4498     -3256.6747      18.224898      9139.7453      10112.159    
     13400   305.76898     -3238.736      -3256.4032      17.667113      9555.5322      10112.159    
     13500   282.21738     -3240.953      -3257.2593      16.306318      8727.102       10112.159    
     13600   295.58791     -3241.0879     -3258.1668      17.078858      8788.6283      10112.159    
     13700   300.81445     -3240.5296     -3257.9104      17.380844      8715.449       10112.159    
     13800   308.72302     -3239.2673     -3257.1051      17.837795      9244.5934      10112.159    
     13900   296.26826     -3238.8814     -3255.9996      17.118168      8926.1155      10112.159    
     14000   314.19705     -3239.1065     -3257.2606      18.154081      8980.2306      10112.159    
     14100   286.50018     -3240.6315     -3257.1852      16.553775      8869.9949      10112.159    
     14200   304.08844     -3240.8618     -3258.4318      17.570013      8384.7765      10112.159    
     14300   291.7964      -3240.7615     -3257.6213      16.859787      8854.1476      10112.159    
     14400   298.64838     -3240.0502     -3257.3059      17.25569       8841.4774      10112.159    
     14500   290.65579     -3239.082      -3255.8759      16.793884      9092.052       10112.159    
     14600   325.53993     -3238.11       -3256.9194      18.809464      9539.0572      10112.159    
     14700   309.23134     -3238.956      -3256.8231      17.867166      9180.4786      10112.159    
     14800   293.53671     -3239.5491     -3256.5094      16.960341      8978.4966      10112.159    
     14900   289.46129     -3239.9368     -3256.6617      16.724866      9052.2204      10112.159    
     15000   303.79349     -3240.1178     -3257.6708      17.552971      8791.2411      10112.159    
     15100   295.10774     -3240.998      -3258.0491      17.051114      8582.4257      10112.159    
     15200   282.86497     -3241.7571     -3258.1008      16.343736      8566.2656      10112.159    
     15300   295.4089      -3240.4542     -3257.5227      17.068515      9030.1516      10112.159    
     15400   310.92465     -3239.3082     -3257.2732      17.965004      9043.6906      10112.159    
     15500   299.23248     -3239.6929     -3256.9823      17.289439      9247.5932      10112.159    
     15600   292.23333     -3240.0976     -3256.9826      16.885033      8996.1645      10112.159    
     15700   295.5687      -3240.0292     -3257.1069      17.077748      9072.7418      10112.159    
     15800   311.52514     -3239.8377     -3257.8374      17.9997        8629.4819      10112.159    
     15900   306.94521     -3239.7118     -3257.4469      17.735075      8795.7444      10112.159    
     16000   289.39447     -3239.5507     -3256.2717      16.721005      8845.637       10112.159    
     16100   302.67348     -3239.5044     -3256.9926      17.488257      9336.8581      10112.159    
     16200   297.32107     -3240.1214     -3257.3004      17.178999      9032.6513      10112.159    
     16300   297.67072     -3241.0227     -3258.2219      17.199201      8493.0091      10112.159    
     16400   280.0343      -3241.5871     -3257.7673      16.180182      8343.593       10112.159    
     16500   310.74749     -3239.9475     -3257.9022      17.954768      8878.0226      10112.159    
     16600   282.54775     -3239.5328     -3255.8582      16.325407      8970.4352      10112.159    
     16700   306.66533     -3239.3466     -3257.0655      17.718903      9042.4319      10112.159    
     16800   293.67306     -3239.9992     -3256.9675      16.968219      8894.9982      10112.159    
     16900   299.95347     -3240.6768     -3258.0078      17.331097      8618.7387      10112.159    
     17000   286.84717     -3241.8253     -3258.3991      16.573824      8336.5345      10112.159    
     17100   286.39434     -3241.5899     -3258.1376      16.54766       8917.0795      10112.159    
     17200   299.06877     -3240.257      -3257.537       17.27998       8916.3849      10112.159    
     17300   304.95942     -3239.477      -3257.0974      17.620337      8716.3358      10112.159    
     17400   306.98259     -3239.2211     -3256.9583      17.737235      8994.8989      10112.159    
     17500   303.8303      -3239.4467     -3257.0018      17.555097      8584.6373      10112.159    
     17600   293.11529     -3239.8642     -3256.8002      16.935992      8789.9072      10112.159    
     17700   288.42554     -3241.1207     -3257.7858      16.665021      8747.5305      10112.159    
     17800   290.59094     -3241.9968     -3258.7869      16.790137      8451.2561      10112.159    
     17900   296.40238     -3241.1572     -3258.2831      17.125918      8373.6373      10112.159    
     18000   292.00673     -3239.8417     -3256.7137      16.87194       8997.3207      10112.159    
     18100   292.84395     -3239.4447     -3256.365       16.920314      8894.9209      10112.159    
     18200   304.66248     -3239.2448     -3256.8479      17.60318       8670.8996      10112.159    
     18300   323.91756     -3239.1557     -3257.8715      18.715725      9025.0765      10112.159    
     18400   276.66372     -3240.7474     -3256.7328      15.985432      8723.5851      10112.159    
     18500   294.72622     -3241.0667     -3258.0958      17.02907       8592.5401      10112.159    
     18600   296.65307     -3240.7236     -3257.864       17.140402      8466.4811      10112.159    
     18700   298.47089     -3239.1264     -3256.3718      17.245435      9106.3089      10112.159    
     18800   313.3551      -3238.3803     -3256.4857      18.105433      9157.8884      10112.159    
     18900   307.85125     -3238.8171     -3256.6045      17.787425      8972.0004      10112.159    
     19000   299.56977     -3239.7618     -3257.0707      17.308927      9119.7297      10112.159    
     19100   298.63799     -3240.8746     -3258.1297      17.255089      8498.186       10112.159    
     19200   300.24246     -3240.8732     -3258.221       17.347795      8531.0897      10112.159    
     19300   303.75568     -3240.2188     -3257.7696      17.550786      8822.9014      10112.159    
     19400   288.84907     -3239.6376     -3256.3271      16.689493      9250.7975      10112.159    
     19500   299.79503     -3239.0088     -3256.3307      17.321942      8976.2535      10112.159    
     19600   314.90391     -3238.8388     -3257.0338      18.194923      9145.682       10112.159    
     19700   316.10499     -3239.6334     -3257.8977      18.26432       8568.8535      10112.159    
     19800   284.60403     -3241.0427     -3257.4869      16.444217      9262.9124      10112.159    
     19900   283.10471     -3241.1934     -3257.551       16.357588      8684.656       10112.159    
     20000   312.35275     -3239.9173     -3257.9648      18.047519      9035.6145      10112.159    
     20100   291.90055     -3239.302      -3256.1678      16.865805      9419.7683      10112.159    
     20200   313.73705     -3239.1505     -3257.278       18.127502      9044.7233      10112.159    
     20300   301.89354     -3239.7231     -3257.1663      17.443193      9111.5712      10112.159    
     20400   299.93985     -3239.912      -3257.2423      17.33031       9087.9931      10112.159    
     20500   293.68408     -3239.9401     -3256.9089      16.968856      8901.2825      10112.159    
     20600   289.09984     -3240.1127     -3256.8167      16.703982      8682.5094      10112.159    
     20700   310.93139     -3240.0163     -3257.9817      17.965393      8739.9536      10112.159    
     20800   297.66855     -3240.1322     -3257.3313      17.199076      9065.6567      10112.159    
     20900   283.84431     -3240.3021     -3256.7025      16.400321      8785.7912      10112.159    
     21000   300.50476     -3239.5649     -3256.9278      17.36295       8923.7399      10112.159    
     21100   323.20783     -3238.4625     -3257.1372      18.674717      9036.799       10112.159    
     21200   319.10949     -3238.4356     -3256.8736      18.437918      9185.549       10112.159    
     21300   288.14289     -3240.102      -3256.7507      16.64869       8858.6305      10112.159    
     21400   288.34029     -3240.9116     -3257.5717      16.660096      9034.1868      10112.159    
     21500   289.43612     -3240.8841     -3257.6075      16.723412      8562.0013      10112.159    
     21600   314.46258     -3239.9644     -3258.1338      18.169423      8714.4348      10112.159    
     21700   303.37462     -3239.4232     -3256.9519      17.528768      9077.7137      10112.159    
     21800   294.97136     -3239.4353     -3256.4785      17.043234      9287.974       10112.159    
     21900   296.84204     -3239.8448     -3256.9962      17.151321      8920.4573      10112.159    
     22000   300.74137     -3240.3849     -3257.7616      17.376621      8743.0351      10112.159    
     22100   310.50471     -3240.3445     -3258.2852      17.94074       8518.1634      10112.159    
     22200   310.07124     -3238.5952     -3256.5109      17.915695      9299.6695      10112.159    
     22300   307.19145     -3237.8717     -3255.621       17.749302      9376.8178      10112.159    
     22400   300.5597      -3238.8512     -3256.2173      17.366125      9539.6342      10112.159    
     22500   298.6831      -3239.9276     -3257.1853      17.257696      8822.1544      10112.159    
     22600   306.69737     -3240.2783     -3257.999       17.720755      8568.8374      10112.159    
     22700   293.70508     -3240.7173     -3257.6874      16.97007       8900.8105      10112.159    
     22800   297.10423     -3240.3097     -3257.4762      17.16647       8830.17        10112.159    
     22900   312.67649     -3238.4634     -3256.5297      18.066224      9476.1248      10112.159    
     23000   290.22533     -3238.5752     -3255.3442      16.769012      9261.9458      10112.159    
     23100   315.92344     -3239.0748     -3257.3286      18.25383       8910.6736      10112.159    
     23200   287.9766      -3240.7646     -3257.4037      16.639082      8826.9556      10112.159    
     23300   301.32913     -3240.7762     -3258.1868      17.410582      8681.131       10112.159    
     23400   286.70903     -3240.5886     -3257.1545      16.565843      8918.2447      10112.159    
     23500   306.90946     -3239.167      -3256.9         17.733009      8928.685       10112.159    
     23600   311.91524     -3238.7681     -3256.7903      18.02224       9280.0455      10112.159    
     23700   312.10481     -3239.1584     -3257.1916      18.033192      8688.5595      10112.159    
     23800   291.98968     -3240.0306     -3256.9015      16.870955      9201.7796      10112.159    
     23900   306.05834     -3240.3989     -3258.0827      17.683832      8806.4748      10112.159    
     24000   281.34174     -3240.7339     -3256.9897      16.255725      8961.9583      10112.159    
     24100   301.02212     -3238.6081     -3256.0009      17.392843      9234.7534      10112.159    
     24200   315.40892     -3238.0723     -3256.2964      18.224102      9575.4941      10112.159    
     24300   304.79359     -3239.2567     -3256.8674      17.610756      9032.6527      10112.159    
     24400   317.07901     -3240.0486     -3258.3692      18.320599      8599.1706      10112.159    
     24500   292.98774     -3240.7565     -3257.6851      16.928622      8856.7055      10112.159    
     24600   285.54209     -3240.6319     -3257.1303      16.498418      8975.1112      10112.159    
     24700   311.89662     -3238.8239     -3256.8451      18.021164      9311.9435      10112.159    
     24800   314.70543     -3237.7653     -3255.9488      18.183455      9486.9834      10112.159    
     24900   302.2121      -3238.5479     -3256.0095      17.461599      9138.2237      10112.159    
     25000   308.55154     -3239.4879     -3257.3158      17.827887      9154.9819      10112.159    
     25100   302.32701     -3240.4536     -3257.9219      17.468238      8716.5528      10112.159    
     25200   280.9279      -3240.8848     -3257.1166      16.231813      8929.0775      10112.159    
     25300   300.63224     -3240.2014     -3257.5717      17.370316      8999.3847      10112.159    
     25400   302.84238     -3239.9801     -3257.4781      17.498016      9085.5712      10112.159    
     25500   304.34145     -3239.7873     -3257.3719      17.584632      9020.4218      10112.159    
     25600   293.50154     -3239.8579     -3256.8162      16.958309      9248.724       10112.159    
     25700   292.65745     -3240.0848     -3256.9944      16.909538      9101.4232      10112.159    
     25800   293.0489      -3240.5025     -3257.4346      16.932156      9106.304       10112.159    
     25900   296.62526     -3240.7688     -3257.9076      17.138795      8665.6939      10112.159    
     26000   301.51126     -3240.4254     -3257.8465      17.421105      8540.6522      10112.159    
     26100   300.67767     -3239.405      -3256.778       17.372941      9020.8605      10112.159    
     26200   304.2739      -3238.6142     -3256.1949      17.580728      9202.5745      10112.159    
     26300   319.81155     -3238.2647     -3256.7432      18.478483      9345.2253      10112.159    
     26400   298.35382     -3239.8675     -3257.1061      17.23867       8983.0815      10112.159    
     26500   293.21864     -3240.7226     -3257.6645      16.941964      8678.5792      10112.159    
     26600   303.36419     -3240.4032     -3257.9314      17.528166      8591.5827      10112.159    
     26700   289.83454     -3239.73       -3256.4764      16.746432      9173.657       10112.159    
     26800   311.91213     -3238.508      -3256.5301      18.02206       9268.3091      10112.159    
     26900   311.38251     -3238.3196     -3256.3111      17.991459      9057.4684      10112.159    
     27000   295.75989     -3239.7541     -3256.8429      17.088795      9350.1694      10112.159    
     27100   286.76698     -3240.9073     -3257.4764      16.569191      8702.8782      10112.159    
     27200   296.69672     -3240.7564     -3257.8993      17.142924      8715.3298      10112.159    
     27300   292.15551     -3239.8722     -3256.7528      16.880537      8999.9575      10112.159    
     27400   315.97684     -3238.7256     -3256.9826      18.256916      9368.7177      10112.159    
     27500   297.90263     -3238.9981     -3256.2107      17.212601      9335.1416      10112.159    
     27600   298.61998     -3239.4803     -3256.7344      17.254049      9154.1084      10112.159    
     27700   301.41505     -3240.4358     -3257.8514      17.415546      8906.1157      10112.159    
     27800   279.55929     -3242.4328     -3258.5855      16.152736      8416.1869      10112.159    
     27900   284.99668     -3241.83       -3258.2969      16.466904      8683.7799      10112.159    
     28000   302.07321     -3240.2351     -3257.6886      17.453574      8919.292       10112.159    
     28100   296.99271     -3239.5915     -3256.7515      17.160026      9069.9062      10112.159    
     28200   287.66708     -3239.2952     -3255.9164      16.621198      9533.0032      10112.159    
     28300   318.05991     -3238.8281     -3257.2054      18.377274      9174.0753      10112.159    
     28400   301.77662     -3239.736      -3257.1724      17.436437      9236.4072      10112.159    
     28500   282.96337     -3241.2671     -3257.6165      16.349421      8663.6224      10112.159    
     28600   288.92522     -3241.2096     -3257.9035      16.693893      8593.0876      10112.159    
     28700   294.33277     -3240.2723     -3257.2786      17.006337      8708.8105      10112.159    
     28800   294.40668     -3239.8129     -3256.8235      17.010607      8780.1915      10112.159    
     28900   304.96415     -3239.5557     -3257.1764      17.62061       9205.6262      10112.159    
     29000   308.87651     -3239.501      -3257.3477      17.846664      8760.9561      10112.159    
     29100   293.76233     -3239.9569     -3256.9303      16.973377      9134.7563      10112.159    
     29200   283.54727     -3241.3739     -3257.757       16.383159      8862.4762      10112.159    
     29300   275.57171     -3242.1725     -3258.0948      15.922336      8593.7765      10112.159    
     29400   298.67513     -3240.8555     -3258.1127      17.257235      8440.3817      10112.159    
     29500   305.25011     -3240.1797     -3257.8168      17.637133      8866.3135      10112.159    
     29600   275.10675     -3239.9826     -3255.8781      15.895471      9371.1727      10112.159    
     29700   316.94131     -3238.822      -3257.1347      18.312642      9226.2719      10112.159    
     29800   307.34357     -3239.1501     -3256.9082      17.758092      9200.6415      10112.159    
     29900   296.55209     -3240.5457     -3257.6803      17.134568      8933.5544      10112.159    
     30000   291.83003     -3241.9222     -3258.7839      16.861731      8313.3455      10112.159    
     30100   272.66606     -3241.6341     -3257.3885      15.75445       8833.7633      10112.159    
     30200   301.95192     -3240.2994     -3257.746       17.446566      9396.897       10112.159    
     30300   294.55493     -3239.9906     -3257.0097      17.019173      8958.8382      10112.159    
     30400   311.61367     -3239.408      -3257.4128      18.004815      8966.0225      10112.159    
     30500   319.61        -3238.4758     -3256.9426      18.466837      9413.9646      10112.159    
     30600   299.94231     -3238.1581     -3255.4886      17.330452      9978.609       10112.159    
     30700   295.70042     -3239.58       -3256.6654      17.085359      9197.7951      10112.159    
     30800   308.67923     -3240.5733     -3258.4086      17.835265      8501.7607      10112.159    
     30900   277.55948     -3241.1617     -3257.1989      16.037188      8952.9503      10112.159    
     31000   302.05665     -3240.1579     -3257.6105      17.452617      8714.565       10112.159    
     31100   304.90054     -3239.1073     -3256.7243      17.616935      9209.7206      10112.159    
     31200   301.44274     -3238.6392     -3256.0563      17.417146      9383.0067      10112.159    
     31300   299.56644     -3239.6848     -3256.9936      17.308735      9066.146       10112.159    
     31400   304.71065     -3240.8678     -3258.4738      17.605963      8578.9991      10112.159    
     31500   290.38977     -3240.926      -3257.7046      16.778513      8544.5589      10112.159    
     31600   303.2301      -3240.1302     -3257.6506      17.520419      8559.2188      10112.159    
     31700   295.05739     -3239.3416     -3256.3898      17.048205      8939.7429      10112.159    
     31800   319.24963     -3238.3781     -3256.8241      18.446016      9321.1166      10112.159    
     31900   307.00359     -3238.3813     -3256.1197      17.738448      9394.094       10112.159    
     32000   293.19474     -3240.4558     -3257.3964      16.940582      8880.5231      10112.159    
     32100   304.40959     -3240.9399     -3258.5285      17.588568      8391.4121      10112.159    
     32200   290.34839     -3240.8566     -3257.6327      16.776122      8816.7877      10112.159    
     32300   286.3998      -3239.9003     -3256.4483      16.547975      9055.023       10112.159    
     32400   323.37916     -3238.4265     -3257.1111      18.684616      9191.3013      10112.159    
     32500   311.8914      -3238.6907     -3256.7115      18.020862      9422.5326      10112.159    
     32600   307.57987     -3239.2921     -3257.0638      17.771745      9066.6874      10112.159    
     32700   315.57591     -3240.0296     -3258.2634      18.23375       8876.6351      10112.159    
     32800   271.1211      -3240.8545     -3256.5197      15.665183      9092.0737      10112.159    
     32900   303.17427     -3240.4807     -3257.9979      17.517193      8666.2296      10112.159    
     33000   297.39848     -3240.1917     -3257.3751      17.183472      8946.1251      10112.159    
     33100   316.59767     -3239.1585     -3257.4513      18.292787      8918.9497      10112.159    
     33200   307.26459     -3238.7957     -3256.5492      17.753528      9177.986       10112.159    
     33300   303.95933     -3238.9348     -3256.4974      17.562553      9242.0123      10112.159    
     33400   296.24763     -3240.2166     -3257.3336      17.116976      9055.2756      10112.159    
     33500   301.92925     -3241.0065     -3258.4518      17.445256      8986.798       10112.159    
     33600   287.75037     -3241.1819     -3257.8079      16.62601       8358.3913      10112.159    
     33700   310.46544     -3239.574      -3257.5124      17.938471      8895.5367      10112.159    
     33800   292.44266     -3239.3053     -3256.2024      16.897128      9544.987       10112.159    
     33900   311.05348     -3239.3708     -3257.3433      17.972447      8999.2505      10112.159    
     34000   297.87992     -3240.1783     -3257.3896      17.211289      9032.8194      10112.159    
     34100   290.82363     -3241.4263     -3258.2299      16.803581      8397.183       10112.159    
     34200   275.47733     -3242.3851     -3258.302       15.916883      8449.9576      10112.159    
     34300   287.67914     -3240.8293     -3257.4512      16.621895      8647.7972      10112.159    
     34400   302.07718     -3239.7038     -3257.1576      17.453804      8478.5943      10112.159    
     34500   317.74381     -3239.1576     -3257.5166      18.35901       8863.448       10112.159    
     34600   290.24591     -3239.2596     -3256.0298      16.770201      9277.5605      10112.159    
     34700   286.64581     -3240.0278     -3256.59        16.56219       9092.1798      10112.159    
     34800   303.26876     -3240.7458     -3258.2684      17.522652      8747.9708      10112.159    
     34900   294.41942     -3240.8864     -3257.8977      17.011343      8628.1125      10112.159    
     35000   302.35411     -3239.2757     -3256.7455      17.469804      9128.1856      10112.159    
     35100   314.50925     -3238.5571     -3256.7292      18.172119      9076.6649      10112.159    
     35200   315.57343     -3239.0202     -3257.2538      18.233607      9164.3821      10112.159    
     35300   285.20976     -3240.2305     -3256.7097      16.479216      9035.6231      10112.159    
     35400   284.0675      -3241.0467     -3257.4599      16.413217      8582.1966      10112.159    
     35500   308.31212     -3240.4789     -3258.2929      17.814054      8777.0479      10112.159    
     35600   303.02296     -3238.239      -3255.7475      17.50845       9426.8827      10112.159    
     35700   311.27232     -3238.597      -3256.5821      17.985092      9303.5664      10112.159    
     35800   303.59108     -3239.807      -3257.3483      17.541275      8801.4857      10112.159    
     35900   304.22901     -3240.3673     -3257.9455      17.578134      8950.5634      10112.159    
     36000   291.7553      -3240.3351     -3257.1925      16.857413      9182.4242      10112.159    
     36100   319.69261     -3238.6472     -3257.1188      18.47161       8987.2592      10112.159    
     36200   302.85365     -3238.2877     -3255.7864      17.498667      9296.5441      10112.159    
     36300   313.46397     -3239.2033     -3257.315       18.111724      8791.5929      10112.159    
     36400   298.62765     -3240.8185     -3258.073       17.254492      8726.9747      10112.159    
     36500   295.86275     -3240.5268     -3257.6216      17.094738      8583.1515      10112.159    
     36600   301.70615     -3239.5699     -3257.0022      17.432366      8943.3367      10112.159    
     36700   289.76811     -3238.9574     -3255.7         16.742594      9390.9748      10112.159    
     36800   326.83511     -3238.2429     -3257.1272      18.884299      9196.2947      10112.159    
     36900   294.97513     -3239.8653     -3256.9087      17.043452      8688.3905      10112.159    
     37000   300.49965     -3240.6595     -3258.0221      17.362655      8604.2012      10112.159    
     37100   278.33571     -3240.8023     -3256.8843      16.082039      9111.2384      10112.159    
     37200   309.96361     -3239.5434     -3257.4529      17.909476      9005.0536      10112.159    
     37300   298.58705     -3239.3146     -3256.5668      17.252146      9266.1971      10112.159    
     37400   313.26103     -3239.184      -3257.284       18.099999      8755.1392      10112.159    
     37500   312.80548     -3239.5723     -3257.646       18.073677      9107.2838      10112.159    
     37600   287.11162     -3240.128      -3256.7171      16.589104      9103.2522      10112.159    
     37700   303.90566     -3239.8798     -3257.4392      17.559452      8496.4894      10112.159    
     37800   284.85719     -3240.1088     -3256.5676      16.458845      9085.3012      10112.159    
     37900   318.77857     -3239.4175     -3257.8363      18.418798      8843.9044      10112.159    
     38000   316.80822     -3238.5235     -3256.8285      18.304952      8912.9194      10112.159    
     38100   307.09217     -3238.5647     -3256.3083      17.743566      9439.7477      10112.159    
     38200   300.54747     -3239.6885     -3257.0539      17.365418      8948.8227      10112.159    
     38300   276.19222     -3240.9396     -3256.8978      15.958189      8544.4886      10112.159    
     38400   299.87215     -3240.6627     -3257.9891      17.326398      8989.323       10112.159    
     38500   300.92374     -3239.8997     -3257.2868      17.387158      8725.4047      10112.159    
     38600   313.71406     -3238.9131     -3257.0393      18.126174      8652.9718      10112.159    
     38700   306.13565     -3238.81       -3256.4983      17.688299      9072.2814      10112.159    
     38800   317.09681     -3239.091      -3257.4127      18.321627      8894.6957      10112.159    
     38900   272.40576     -3240.2843     -3256.0237      15.73941       8903.3594      10112.159    
     39000   307.57706     -3239.9056     -3257.6772      17.771582      8603.2264      10112.159    
     39100   298.00716     -3239.8522     -3257.0709      17.218641      8867.7626      10112.159    
     39200   300.94674     -3239.8802     -3257.2687      17.388487      8680.0571      10112.159    
     39300   292.89627     -3240.0067     -3256.93        16.923337      8685.9975      10112.159    
     39400   292.21212     -3240.0682     -3256.952       16.883807      9044.8918      10112.159    
     39500   321.48501     -3239.2974     -3257.8726      18.575174      8978.9752      10112.159    
     39600   302.20822     -3239.3099     -3256.7713      17.461375      9296.5985      10112.159    
     39700   300.25307     -3239.9604     -3257.3088      17.348407      8829.6128      10112.159    
     39800   291.45586     -3240.9272     -3257.7673      16.840111      8700.9738      10112.159    
     39900   290.59185     -3241.2664     -3258.0566      16.790189      8315.3515      10112.159    
     40000   298.86968     -3240.6051     -3257.8736      17.268476      8523.9504      10112.159    
     40100   305.87921     -3239.1497     -3256.8232      17.673482      9202.5487      10112.159    
     40200   294.61239     -3239.1635     -3256.186       17.022493      9027.8993      10112.159    
     40300   320.63403     -3239.3858     -3257.9118      18.526005      9037.7386      10112.159    
     40400   283.38489     -3241.0719     -3257.4457      16.373776      8633.2778      10112.159    
     40500   274.96769     -3241.4695     -3257.3569      15.887437      9077.7635      10112.159    
     40600   307.20226     -3240.536      -3258.2859      17.749927      8649.2155      10112.159    
     40700   300.25116     -3239.9388     -3257.2871      17.348297      8843.4657      10112.159    
     40800   310.19711     -3239.444      -3257.3669      17.922967      9004.3492      10112.159    
     40900   286.72079     -3239.8989     -3256.4655      16.566522      9257.966       10112.159    
     41000   305.62196     -3240.173      -3257.8316      17.658619      8733.7994      10112.159    
     41100   298.64842     -3241.455      -3258.7107      17.255692      8503.499       10112.159    
     41200   277.93068     -3242.0481     -3258.1067      16.058636      8434.7504      10112.159    
     41300   276.79638     -3240.7826     -3256.7757      15.993097      9188.7316      10112.159    
     41400   306.7607      -3239.6686     -3257.393       17.724414      9063.0286      10112.159    
     41500   313.51686     -3239.2041     -3257.3189      18.11478       8744.3605      10112.159    
     41600   309.40346     -3239.5817     -3257.4589      17.87711       9023.1268      10112.159    
     41700   285.0629      -3240.7463     -3257.217       16.470731      8757.6346      10112.159    
     41800   297.87524     -3240.6952     -3257.9062      17.211019      8479.441       10112.159    
     41900   304.27547     -3239.6323     -3257.2131      17.580819      9119.463       10112.159    
     42000   309.87119     -3238.2011     -3256.1052      17.904136      9145.5934      10112.159    
     42100   308.88307     -3238.8488     -3256.6959      17.847043      9311.4967      10112.159    
     42200   310.95528     -3239.888      -3257.8548      17.966774      8808.3878      10112.159    
     42300   286.83017     -3240.7703     -3257.3431      16.572842      8859.2088      10112.159    
     42400   294.14919     -3240.6726     -3257.6683      16.99573       8705.0819      10112.159    
     42500   307.88052     -3239.4666     -3257.2557      17.789116      9349.3881      10112.159    
     42600   309.45218     -3238.0831     -3255.963       17.879926      9411.5454      10112.159    
     42700   314.40635     -3238.4531     -3256.6193      18.166174      8953.1735      10112.159    
     42800   291.12464     -3239.6522     -3256.4731      16.820973      9165.6439      10112.159    
     42900   312.02367     -3240.1511     -3258.1796      18.028504      8806.8154      10112.159    
     43000   301.78721     -3240.3352     -3257.7722      17.437049      8388.319       10112.159    
     43100   296.9212      -3240.1339     -3257.2898      17.155895      9183.1826      10112.159    
     43200   297.41695     -3239.8154     -3257           17.184539      8726.4966      10112.159    
     43300   310.27526     -3238.2157     -3256.1432      17.927482      9330.7751      10112.159    
     43400   321.27668     -3237.365      -3255.9281      18.563137      9457.3238      10112.159    
     43500   318.90322     -3238.671      -3257.097       18.426         9373.2722      10112.159    
     43600   298.84916     -3239.8736     -3257.1409      17.267291      8972.7445      10112.159    
     43700   285.34586     -3240.4592     -3256.9463      16.487079      8897.503       10112.159    
     43800   297.73117     -3240.3284     -3257.5311      17.202694      8803.0504      10112.159    
     43900   305.78423     -3239.4382     -3257.1062      17.667994      9064.5017      10112.159    
     44000   314.08981     -3238.1724     -3256.3202      18.147885      9209.5418      10112.159    
     44100   321.80038     -3237.8228     -3256.4162      18.593396      9537.4105      10112.159    
     44200   302.19861     -3239.8812     -3257.342       17.460819      8755.2323      10112.159    
     44300   281.02464     -3240.6446     -3256.8821      16.237403      9095.9733      10112.159    
     44400   282.53294     -3240.2275     -3256.5521      16.324551      8775.6513      10112.159    
     44500   329.74007     -3239.154      -3258.2061      19.052145      8755.2128      10112.159    
     44600   311.05886     -3239.0749     -3257.0476      17.972759      8884.5956      10112.159    
     44700   301.71646     -3239.5044     -3256.9374      17.432961      9360.75        10112.159    
     44800   271.37226     -3241.1485     -3256.8282      15.679695      9197.4803      10112.159    
     44900   304.61493     -3240.7525     -3258.3529      17.600433      8599.3175      10112.159    
     45000   304.19687     -3240.1966     -3257.7728      17.576277      8949.3315      10112.159    
     45100   302.4849      -3238.5825     -3256.0599      17.477361      9528.1788      10112.159    
     45200   306.68931     -3238.3791     -3256.0994      17.720289      9524.607       10112.159    
     45300   311.65008     -3239.2514     -3257.2584      18.006919      8777.5266      10112.159    
     45400   297.58798     -3240.2477     -3257.4421      17.194421      8821.9645      10112.159    
     45500   293.45562     -3240.5737     -3257.5293      16.955656      9024.2574      10112.159    
     45600   302.0353      -3239.7828     -3257.2342      17.451384      9013.0882      10112.159    
     45700   299.89895     -3238.5013     -3255.8293      17.327947      9384.4589      10112.159    
     45800   335.297       -3238.6453     -3258.0185      19.373221      8985.7647      10112.159    
     45900   302.52032     -3239.6511     -3257.1305      17.479408      8909.6294      10112.159    
     46000   280.96637     -3240.0792     -3256.3132      16.234036      9500.7705      10112.159    
     46100   306.0686      -3239.7265     -3257.4109      17.684425      8952.8447      10112.159    
     46200   300.11286     -3239.7117     -3257.052       17.340307      9180.7464      10112.159    
     46300   297.89831     -3240.0142     -3257.2266      17.212351      9121.0639      10112.159    
     46400   296.39089     -3240.6629     -3257.7881      17.125254      8787.0755      10112.159    
     46500   287.63108     -3241.2567     -3257.8758      16.619118      8597.0855      10112.159    
     46600   301.75628     -3240.2887     -3257.724       17.435262      8868.3498      10112.159    
     46700   298.95757     -3239.2632     -3256.5367      17.273554      9263.3065      10112.159    
     46800   291.04846     -3239.254      -3256.0706      16.816572      9689.4305      10112.159    
     46900   328.20799     -3239.1453     -3258.1089      18.963623      9033.9655      10112.159    
     47000   291.62564     -3241.0604     -3257.9104      16.849921      8596.2576      10112.159    
     47100   286.13516     -3241.4244     -3257.9571      16.532685      8557.1859      10112.159    
     47200   293.99061     -3240.6675     -3257.6541      16.986567      8649.3843      10112.159    
     47300   296.75623     -3239.7042     -3256.8506      17.146363      9492.3095      10112.159    
     47400   308.51331     -3239.1255     -3256.9512      17.825679      9228.8221      10112.159    
     47500   307.88993     -3239.2913     -3257.081       17.78966       9328.5589      10112.159    
     47600   290.92392     -3239.8877     -3256.6971      16.809376      9288.7896      10112.159    
     47700   298.70461     -3239.8454     -3257.1044      17.258939      9215.3633      10112.159    
     47800   302.19636     -3240.0532     -3257.5139      17.46069       9007.8913      10112.159    
     47900   303.0705      -3240.2903     -3257.8015      17.511197      8824.4608      10112.159    
     48000   295.75296     -3239.9153     -3257.0037      17.088395      9125.3059      10112.159    
     48100   306.80857     -3238.9039     -3256.6311      17.72718       9525.559       10112.159    
     48200   317.70751     -3238.3848     -3256.7417      18.356913      9289.2476      10112.159    
     48300   291.02828     -3239.7679     -3256.5833      16.815406      9214.2066      10112.159    
     48400   299.0386      -3240.4965     -3257.7747      17.278237      8282.8742      10112.159    
     48500   306.27612     -3240.2966     -3257.9931      17.696415      8795.7493      10112.159    
     48600   294.64918     -3240.0341     -3257.0587      17.024619      9029.2354      10112.159    
     48700   308.02701     -3239.2399     -3257.0375      17.79758       8891.1004      10112.159    
     48800   321.04905     -3237.3443     -3255.8943      18.549985      9671.8745      10112.159    
     48900   316.4933      -3237.5172     -3255.804       18.286757      9229.949       10112.159    
     49000   312.38584     -3239.1727     -3257.2222      18.049431      8761.5688      10112.159    
     49100   297.59946     -3239.9376     -3257.1327      17.195084      8835.8351      10112.159    
     49200   296.74863     -3240.2353     -3257.3813      17.145924      8848.1864      10112.159    
     49300   305.2388      -3239.9948     -3257.6313      17.636479      9022.4873      10112.159    
     49400   300.36887     -3239.5593     -3256.9144      17.355099      9108.9093      10112.159    
     49500   294.51468     -3239.3153     -3256.3322      17.016848      9080.8299      10112.159    
     49600   306.91279     -3238.7891     -3256.5223      17.733202      8798.1701      10112.159    
     49700   328.54677     -3238.9492     -3257.9324      18.983197      9020.0253      10112.159    
     49800   283.59649     -3240.451      -3256.8371      16.386003      8991.9468      10112.159    
     49900   297.94695     -3240.5372     -3257.7524      17.215162      8597.5643      10112.159    
     50000   306.55959     -3240.0812     -3257.794       17.712794      8679.7924      10112.159    
     50100   318.35618     -3238.4788     -3256.8731      18.394392      9275.8952      10112.159    
     50200   308.25774     -3238.0927     -3255.9036      17.810912      9268.5708      10112.159    
     50300   306.79886     -3239.1268     -3256.8535      17.726619      9035.452       10112.159    
     50400   293.89472     -3241.157      -3258.1381      16.981027      8657.2563      10112.159    
     50500   287.57866     -3241.1919     -3257.808       16.616089      8800.5015      10112.159    
     50600   293.15928     -3240.0785     -3257.017       16.938533      8668.0049      10112.159    
     50700   321.84292     -3239.1119     -3257.7078      18.595854      8984.1345      10112.159    
     50800   307.22882     -3239.3985     -3257.1499      17.751461      8856.2753      10112.159    
     50900   296.87636     -3239.7676     -3256.9209      17.153304      9082.9114      10112.159    
     51000   278.95289     -3241.0333     -3257.151       16.117699      8862.9003      10112.159    
     51100   295.51781     -3241.4449     -3258.5197      17.074808      8457.3607      10112.159    
     51200   302.45101     -3240.6154     -3258.0908      17.475403      8793.7892      10112.159    
     51300   310.75164     -3239.2002     -3257.1552      17.955007      8914.0111      10112.159    
     51400   291.44299     -3239.0461     -3255.8854      16.839368      9473.4295      10112.159    
     51500   287.37687     -3239.3313     -3255.9357      16.60443       9447.9696      10112.159    
     51600   307.33928     -3239.9195     -3257.6773      17.757844      8851.9521      10112.159    
     51700   298.74847     -3240.9136     -3258.175       17.261473      8455.0543      10112.159    
     51800   296.04487     -3241.4116     -3258.5169      17.105261      8567.9097      10112.159    
     51900   278.96587     -3241.9619     -3258.0803      16.118448      8453.7193      10112.159    
     52000   280.17055     -3240.9426     -3257.1306      16.188054      8583.7656      10112.159    
     52100   309.78989     -3239.3219     -3257.2214      17.899439      8808.8129      10112.159    
     52200   317.21625     -3238.9957     -3257.3243      18.328528      9094.2855      10112.159    
     52300   290.74981     -3239.888      -3256.6873      16.799316      8896.5042      10112.159    
     52400   282.22539     -3240.8384     -3257.1452      16.306781      8803.7751      10112.159    
     52500   303.18818     -3241.0887     -3258.6067      17.517996      8706.7307      10112.159    
     52600   279.6566      -3240.9478     -3257.1062      16.158358      8867.9629      10112.159    
     52700   307.96795     -3239.2863     -3257.0804      17.794168      9039.7075      10112.159    
     52800   317.23911     -3238.8223     -3257.1521      18.329849      8903.806       10112.159    
     52900   304.34937     -3239.2757     -3256.8608      17.585089      9066.3594      10112.159    
     53000   287.65865     -3240.6134     -3257.2341      16.620711      8661.4114      10112.159    
     53100   295.64765     -3241.1531     -3258.2355      17.08231       8716.1772      10112.159    
     53200   292.95676     -3240.7412     -3257.668       16.926832      8612.6345      10112.159    
     53300   287.41191     -3240.0949     -3256.7014      16.606455      8919.0469      10112.159    
     53400   305.01126     -3239.6926     -3257.316       17.623333      8840.9556      10112.159    
     53500   307.71692     -3239.6539     -3257.4336      17.779664      9252.2365      10112.159    
     53600   291.57235     -3240.0314     -3256.8782      16.846842      9038.2155      10112.159    
     53700   297.33968     -3240.4786     -3257.6587      17.180074      8756.3492      10112.159    
     53800   282.43089     -3241.3283     -3257.6469      16.318655      8515.6083      10112.159    
     53900   293.60935     -3241.1656     -3258.1302      16.964539      8628.1625      10112.159    
     54000   306.71762     -3239.702      -3257.4239      17.721925      8845.9696      10112.159    
     54100   320.09617     -3238.7563     -3257.2512      18.494928      9409.2174      10112.159    
     54200   296.67311     -3239.1655     -3256.3071      17.14156       9356.4487      10112.159    
     54300   300.2295      -3239.8163     -3257.1634      17.347046      8994.9043      10112.159    
     54400   274.25163     -3241.1503     -3256.9964      15.846063      9093.2731      10112.159    
     54500   291.81202     -3241.7599     -3258.6206      16.86069       8575.8146      10112.159    
     54600   284.95255     -3242.5902     -3259.0545      16.464354      8363.834       10112.159    
     54700   290.81227     -3241.3272     -3258.1301      16.802925      8745.2418      10112.159    
     54800   283.1588      -3240.1628     -3256.5235      16.360713      9066.9318      10112.159    
     54900   303.55133     -3239.075      -3256.6139      17.538979      9127.7474      10112.159    
     55000   311.29615     -3238.8423     -3256.8288      17.986469      9226.1988      10112.159    
     55100   310.88409     -3239.7456     -3257.7083      17.962661      8736.2814      10112.159    
     55200   289.72455     -3241.2318     -3257.9719      16.740077      8425.8217      10112.159    
     55300   278.51662     -3241.3713     -3257.4638      16.092491      8847.9624      10112.159    
     55400   290.95885     -3240.5701     -3257.3815      16.811394      8967.9566      10112.159    
     55500   313.52192     -3239.8042     -3257.9193      18.115072      8780.6282      10112.159    
     55600   293.95422     -3239.944      -3256.9285      16.984465      9143.3151      10112.159    
     55700   309.2213      -3239.3886     -3257.2552      17.866586      9017.0048      10112.159    
     55800   288.75307     -3239.0892     -3255.7732      16.683946      9358.7746      10112.159    
     55900   305.4433      -3240.0043     -3257.6526      17.648296      9050.3256      10112.159    
     56000   291.42269     -3241.3329     -3258.1711      16.838194      8481.5814      10112.159    
     56100   294.44433     -3241.0819     -3258.0947      17.012783      8617.0119      10112.159    
     56200   286.72074     -3239.8452     -3256.4117      16.566519      9077.0514      10112.159    
     56300   311.82369     -3239.2849     -3257.3018      18.01695       9025.3962      10112.159    
     56400   306.539       -3239.4918     -3257.2035      17.711604      9119.9937      10112.159    
     56500   300.32953     -3239.8878     -3257.2406      17.352825      8836.3378      10112.159    
     56600   287.56466     -3240.7695     -3257.3848      16.615281      8777.523       10112.159    
     56700   284.93716     -3241.8737     -3258.3372      16.463465      8518.7149      10112.159    
     56800   263.81803     -3242.3753     -3257.6185      15.243217      8503.2632      10112.159    
     56900   303.38528     -3240.5414     -3258.0708      17.529385      8888.4193      10112.159    
     57000   302.26046     -3239.9594     -3257.4238      17.464393      8957.8339      10112.159    
     57100   300.27336     -3239.3605     -3256.7101      17.34958       9056.2949      10112.159    
     57200   309.23922     -3238.9032     -3256.7708      17.867621      9290.4688      10112.159    
     57300   306.19426     -3239.6842     -3257.3759      17.691685      8705.309       10112.159    
     57400   290.84994     -3241.2157     -3258.0208      16.805102      8643.7524      10112.159    
     57500   288.16972     -3241.2906     -3257.9409      16.65024       8463.9452      10112.159    
     57600   299.20556     -3240.5629     -3257.8508      17.287883      8579.8387      10112.159    
     57700   286.88744     -3240.1717     -3256.7479      16.576151      8858.0472      10112.159    
     57800   310.35221     -3239.5526     -3257.4845      17.931929      8828.978       10112.159    
     57900   302.90909     -3239.5463     -3257.0482      17.501871      8989.2776      10112.159    
     58000   298.84816     -3239.6958     -3256.963       17.267233      8940.5979      10112.159    
     58100   287.57747     -3240.7919     -3257.4079      16.61602       8737.4504      10112.159    
     58200   284.21618     -3241.4281     -3257.8499      16.421808      8414.9627      10112.159    
     58300   311.32444     -3240.2995     -3258.2876      17.988103      8757.8712      10112.159    
     58400   297.01966     -3239.6443     -3256.8059      17.161583      8778.7697      10112.159    
     58500   300.25064     -3239.4043     -3256.7526      17.348267      8979.3278      10112.159    
     58600   306.69842     -3239.3767     -3257.0975      17.720815      8833.0365      10112.159    
     58700   293.72673     -3239.9578     -3256.9291      16.97132       8733.0717      10112.159    
     58800   297.61082     -3240.6011     -3257.7968      17.19574       8916.4041      10112.159    
     58900   286.45775     -3240.9982     -3257.5495      16.551324      9041.0061      10112.159    
     59000   295.35055     -3240.0005     -3257.0657      17.065144      8890.7629      10112.159    
     59100   300.552       -3238.8111     -3256.1768      17.36568       9238.6226      10112.159    
     59200   324.03365     -3238.8752     -3257.5976      18.722433      8928.9626      10112.159    
     59300   308.65103     -3239.541      -3257.3746      17.833636      8827.3073      10112.159    
     59400   292.33546     -3239.8486     -3256.7395      16.890934      8729.5462      10112.159    
     59500   290.96004     -3240.0629     -3256.8743      16.811463      8937.2413      10112.159    
     59600   304.92002     -3240.1694     -3257.7875      17.61806       8786.6774      10112.159    
     59700   284.59803     -3241.1735     -3257.6174      16.443871      8365.0055      10112.159    
     59800   285.27402     -3241.5357     -3258.0187      16.482929      8485.0895      10112.159    
     59900   297.26231     -3240.3026     -3257.4782      17.175604      8733.7462      10112.159    
     60000   309.0321      -3239.3498     -3257.2054      17.855654      8770.4043      10112.159    
     60100   300.81372     -3239.2513     -3256.6321      17.380802      9036.5705      10112.159    
     60200   295.2459      -3239.292      -3256.3511      17.059097      9025.3604      10112.159    
     60300   305.79481     -3239.6432     -3257.3118      17.668605      9070.3826      10112.159    
     60400   291.78062     -3241.1238     -3257.9826      16.858876      8237.2213      10112.159    
     60500   295.8513      -3240.9362     -3258.0303      17.094077      8696.2692      10112.159    
     60600   290.97564     -3239.9459     -3256.7583      16.812364      9135.492       10112.159    
     60700   310.70451     -3239.1123     -3257.0645      17.952284      8900.3353      10112.159    
     60800   322.09407     -3239.0342     -3257.6446      18.610365      8697.1654      10112.159    
     60900   292.23063     -3240.9092     -3257.7941      16.884877      8380.8194      10112.159    
     61000   274.20801     -3241.5585     -3257.4021      15.843543      8833.1181      10112.159    
     61100   288.15375     -3240.6582     -3257.3075      16.649318      8750.1431      10112.159    
     61200   303.66653     -3239.676      -3257.2217      17.545635      8743.0881      10112.159    
     61300   320.1681      -3239.2868     -3257.7858      18.499084      8761.9574      10112.159    
     61400   292.07511     -3239.7057     -3256.5816      16.875891      9118.6826      10112.159    
     61500   285.70003     -3240.3739     -3256.8814      16.507544      8925.0841      10112.159    
     61600   286.05083     -3241.3485     -3257.8763      16.527812      8545.4778      10112.159    
     61700   284.93538     -3242.4442     -3258.9076      16.463362      8150.9222      10112.159    
     61800   269.76215     -3241.9939     -3257.5806      15.586664      8469.4404      10112.159    
     61900   309.36157     -3240.4815     -3258.3562      17.87469       8429.5485      10112.159    
     62000   279.21665     -3240.0031     -3256.136       16.132938      9057.6963      10112.159    
     62100   316.36344     -3238.9054     -3257.1846      18.279254      9001.2066      10112.159    
     62200   305.41902     -3239.1448     -3256.7917      17.646893      8812.7403      10112.159    
     62300   287.6567      -3240.103      -3256.7236      16.620598      9096.6192      10112.159    
     62400   277.52226     -3241.6379     -3257.673       16.035037      8227.7525      10112.159    
     62500   303.30989     -3241.4947     -3259.0197      17.525029      8207.3389      10112.159    
     62600   281.48701     -3240.9651     -3257.2292      16.264118      8461.5411      10112.159    
     62700   302.01372     -3240.0953     -3257.5455      17.450137      8633.9596      10112.159    
     62800   301.23258     -3239.8702     -3257.2752      17.405003      8829.0312      10112.159    
     62900   294.98318     -3239.5978     -3256.6418      17.043917      9091.8972      10112.159    
     63000   305.56762     -3238.2985     -3255.954       17.655479      9404.9164      10112.159    
     63100   319.49865     -3237.8349     -3256.2954      18.460403      9292.4033      10112.159    
     63200   301.90681     -3239.6657     -3257.1097      17.44396       8650.2062      10112.159    
     63300   294.78704     -3240.4012     -3257.4337      17.032584      8569.1828      10112.159    
     63400   289.11546     -3240.6053     -3257.3102      16.704885      8434.8744      10112.159    
     63500   316.63425     -3239.9234     -3258.2183      18.294901      8607.8066      10112.159    
     63600   299.84455     -3238.6841     -3256.0089      17.324804      9113.3584      10112.159    
     63700   318.18844     -3237.8972     -3256.2819      18.384701      9259.8568      10112.159    
     63800   299.35011     -3238.5616     -3255.8578      17.296236      9506.976       10112.159    
     63900   299.88207     -3239.6381     -3256.965       17.326972      8772.0165      10112.159    
     64000   310.74944     -3240.0629     -3258.0178      17.954881      9102.8529      10112.159    
     64100   297.18499     -3240.2856     -3257.4567      17.171136      8995.2485      10112.159    
     64200   303.94821     -3239.7607     -3257.3226      17.56191       8943.7692      10112.159    
     64300   306.51152     -3238.6132     -3256.3232      17.710016      9483.0733      10112.159    
     64400   327.9831      -3237.7381     -3256.6887      18.950629      9025.5175      10112.159    
     64500   331.2789      -3238.1645     -3257.3055      19.141058      8681.4756      10112.159    
     64600   300.53289     -3240.1488     -3257.5134      17.364576      8859.7525      10112.159    
     64700   264.40944     -3240.9861     -3256.2635      15.277389      9071.3313      10112.159    
     64800   307.66916     -3240.1904     -3257.9673      17.776904      8961.3062      10112.159    
     64900   315.98279     -3239.585      -3257.8423      18.25726       8684.0157      10112.159    
     65000   304.3593      -3238.7613     -3256.3469      17.585663      9121.4966      10112.159    
     65100   312.86987     -3237.89       -3255.9674      18.077398      9574.4579      10112.159    
     65200   295.4234      -3238.9717     -3256.0411      17.069353      9005.9859      10112.159    
     65300   316.77358     -3239.5061     -3257.8091      18.302951      8695.4718      10112.159    
     65400   286.11123     -3240.1073     -3256.6386      16.531302      8700.8386      10112.159    
     65500   306.74235     -3239.8398     -3257.5632      17.723353      8547.7065      10112.159    
     65600   293.93496     -3239.8104     -3256.7938      16.983352      8986.4379      10112.159    
     65700   312.98669     -3239.1643     -3257.2484      18.084147      9114.8031      10112.159    
     65800   303.97166     -3239.114      -3256.6772      17.563265      9099.3482      10112.159    
     65900   299.70682     -3239.683      -3256.9998      17.316846      8963.8647      10112.159    
     66000   308.52347     -3240.5987     -3258.425       17.826265      8677.7223      10112.159    
     66100   274.32622     -3241.6448     -3257.4952      15.850373      8838.5421      10112.159    
     66200   298.50152     -3240.8204     -3258.0676      17.247204      8763.5294      10112.159    
     66300   309.2663      -3239.1237     -3256.9929      17.869185      9160.7435      10112.159    
     66400   307.84372     -3238.9847     -3256.7717      17.78699       9001.6717      10112.159    
     66500   294.37358     -3239.7609     -3256.7696      17.008695      9013.295       10112.159    
     66600   300.13047     -3240.3631     -3257.7044      17.341324      8643.7971      10112.159    
     66700   285.29132     -3240.7206     -3257.2045      16.483928      8614.3526      10112.159    
     66800   295.05159     -3239.8664     -3256.9143      17.04787       9112.6932      10112.159    
     66900   323.66557     -3238.4132     -3257.1143      18.701165      9005.4575      10112.159    
     67000   306.07555     -3238.4418     -3256.1267      17.684826      9362.8664      10112.159    
     67100   298.84242     -3239.3425     -3256.6094      17.266901      9172.5523      10112.159    
     67200   302.3062      -3240.8456     -3258.3126      17.467036      8835.1263      10112.159    
     67300   279.97135     -3240.9687     -3257.1453      16.176545      8507.1219      10112.159    
     67400   295.7318      -3240.1933     -3257.2804      17.087172      8899.4658      10112.159    
     67500   312.3244      -3239.3789     -3257.4248      18.04588       8929.6446      10112.159    
     67600   298.51145     -3239.0249     -3256.2727      17.247778      9089.8566      10112.159    
     67700   310.50288     -3237.9403     -3255.881       17.940634      9481.9428      10112.159    
     67800   315.98003     -3237.3333     -3255.5904      18.2571        9676.3319      10112.159    
     67900   313.0891      -3239.0435     -3257.1336      18.090064      9093.6576      10112.159    
     68000   284.72426     -3240.1611     -3256.6123      16.451164      9009.2402      10112.159    
     68100   304.13881     -3240.2832     -3257.8562      17.572923      8782.9383      10112.159    
     68200   290.02641     -3240.5804     -3257.338       16.757518      8981.7505      10112.159    
     68300   290.63089     -3239.8693     -3256.6618      16.792445      9159.9726      10112.159    
     68400   315.55538     -3238.4414     -3256.6739      18.232564      8718.2833      10112.159    
     68500   324.37665     -3238.583      -3257.3252      18.742251      8881.0965      10112.159    
     68600   292.26611     -3239.9136     -3256.8005      16.886927      8846.2436      10112.159    
     68700   292.0352      -3240.4019     -3257.2754      16.873585      8781.7706      10112.159    
     68800   303.60793     -3240.1489     -3257.6911      17.542249      8604.3901      10112.159    
     68900   304.6913      -3239.665      -3257.2698      17.604846      8930.6889      10112.159    
     69000   299.96258     -3239.2216     -3256.5532      17.331623      8966.0231      10112.159    
     69100   311.42024     -3238.6464     -3256.6401      17.993639      9169.2         10112.159    
     69200   299.84698     -3239.1121     -3256.4371      17.324944      9306.4761      10112.159    
     69300   307.25199     -3239.8404     -3257.5932      17.7528        8695.2318      10112.159    
     69400   287.40946     -3240.9801     -3257.5864      16.606313      8781.8579      10112.159    
     69500   280.39468     -3241.34       -3257.541       16.201004      8815.5589      10112.159    
     69600   302.56562     -3240.0309     -3257.513       17.482025      8822.8145      10112.159    
     69700   310.60288     -3238.3701     -3256.3165      17.946412      8919.3069      10112.159    
     69800   315.08943     -3238.4448     -3256.6505      18.205642      9189.8333      10112.159    
     69900   292.28213     -3239.5836     -3256.4714      16.887852      9253.9245      10112.159    
     70000   290.59451     -3240.4275     -3257.2178      16.790343      8968.9867      10112.159    
     70100   296.15664     -3240.7163     -3257.828       17.111719      8477.5965      10112.159    
     70200   298.96071     -3240.3898     -3257.6635      17.273736      8459.8017      10112.159    
     70300   306.85122     -3238.888      -3256.6177      17.729644      9177.8121      10112.159    
     70400   308.12954     -3238.4052     -3256.2087      17.803505      8985.3558      10112.159    
     70500   306.24275     -3239.3878     -3257.0823      17.694487      8929.9311      10112.159    
     70600   295.93423     -3240.3461     -3257.445       17.098868      8919.5503      10112.159    
     70700   295.67624     -3240.307      -3257.3909      17.083962      8947.4969      10112.159    
     70800   299.17973     -3239.9514     -3257.2378      17.286391      9074.3732      10112.159    
     70900   309.2163      -3239.5472     -3257.4135      17.866297      9013.5647      10112.159    
     71000   297.23634     -3239.8208     -3256.9949      17.174103      9038.181       10112.159    
     71100   294.06883     -3240.6968     -3257.6878      16.991087      8520.8135      10112.159    
     71200   273.2303      -3241.2564     -3257.0434      15.787052      8699.8991      10112.159    
     71300   297.04496     -3240.1993     -3257.3624      17.163045      8999.987       10112.159    
     71400   318.91718     -3239.2911     -3257.718       18.426807      9166.7781      10112.159    
     71500   288.46653     -3239.7076     -3256.375       16.66739       8991.0103      10112.159    
     71600   315.95734     -3239.8222     -3258.078       18.255789      8750.5022      10112.159    
     71700   272.98415     -3241.4175     -3257.1903      15.772829      8918.4894      10112.159    
     71800   295.86396     -3241.3389     -3258.4337      17.094808      8880.0006      10112.159    
     71900   304.19082     -3239.4519     -3257.0279      17.575928      8852.7273      10112.159    
     72000   320.38689     -3238.4693     -3256.9811      18.511726      9180.0504      10112.159    
     72100   298.86189     -3239.3219     -3256.5899      17.268026      9313.0293      10112.159    
     72200   297.06934     -3240.5933     -3257.7578      17.164454      8575.5529      10112.159    
     72300   296.40875     -3240.9381     -3258.0644      17.126286      8716.1416      10112.159    
     72400   305.60806     -3240.1589     -3257.8167      17.657815      8740.0464      10112.159    
     72500   292.94609     -3239.0174     -3255.9436      16.926215      9318.2522      10112.159    
     72600   320.01629     -3237.8192     -3256.3095      18.490312      9586.2788      10112.159    
     72700   309.58475     -3238.3207     -3256.2083      17.887585      8995.288       10112.159    
     72800   306.22785     -3239.4464     -3257.14        17.693626      9040.1859      10112.159    
     72900   304.51689     -3240.2867     -3257.8815      17.594768      8409.733       10112.159    
     73000   296.27923     -3240.6175     -3257.7363      17.118802      8840.5071      10112.159    
     73100   287.52423     -3240.3783     -3256.9912      16.612945      8975.779       10112.159    
     73200   317.21609     -3238.7518     -3257.0803      18.328519      8960.3805      10112.159    
     73300   295.72941     -3238.6638     -3255.7508      17.087034      9408.2989      10112.159    
     73400   314.44456     -3239.1752     -3257.3435      18.168382      8843.9136      10112.159    
     73500   289.5666      -3241.1268     -3257.8577      16.730951      8647.0752      10112.159    
     73600   295.30347     -3240.9479     -3258.0104      17.062423      8720.3441      10112.159    
     73700   296.43373     -3239.918      -3257.0458      17.127729      8855.0937      10112.159    
     73800   296.86371     -3239.2227     -3256.3753      17.152573      8661.478       10112.159    
     73900   296.00743     -3239.3387     -3256.4418      17.103098      8986.3556      10112.159    
     74000   320.54234     -3239.5495     -3258.0702      18.520707      8613.5573      10112.159    
     74100   273.26714     -3241.2802     -3257.0693      15.78918       8464.6764      10112.159    
     74200   290.30351     -3241.2183     -3257.9918      16.773529      8572.6891      10112.159    
     74300   310.90311     -3239.9753     -3257.939       17.963759      8647.2887      10112.159    
     74400   289.62768     -3239.3915     -3256.126       16.73448       9068.6887      10112.159    
     74500   301.22854     -3239.4116     -3256.8164      17.40477       9255.8038      10112.159    
     74600   300.99606     -3239.9979     -3257.3892      17.391337      8437.1839      10112.159    
     74700   280.60842     -3241.3311     -3257.5445      16.213354      8771.7028      10112.159    
     74800   279.6609      -3242.5036     -3258.6622      16.158607      8329.4047      10112.159    
     74900   282.18866     -3241.5838     -3257.8885      16.304659      8442.2263      10112.159    
     75000   305.56073     -3240.5601     -3258.2152      17.65508       8729.2337      10112.159    
     75100   291.6401      -3240.0709     -3256.9216      16.850757      8747.4173      10112.159    
     75200   305.96974     -3239.0548     -3256.7335      17.678713      9018.8347      10112.159    
     75300   303.20354     -3239.138      -3256.6569      17.518883      8928.8375      10112.159    
     75400   308.62074     -3240.0654     -3257.8973      17.831886      8442.4874      10112.159    
[...]
    281800   297.73436     -3238.8185     -3256.0214      17.202879      9372.9545      10112.159    
    281900   301.8533      -3238.3474     -3255.7883      17.440868      9514.5636      10112.159    
    282000   311.0223      -3238.889      -3256.8596      17.970646      9223.5609      10112.159    
    282100   297.2552      -3240.5167     -3257.6919      17.175193      8728.15        10112.159    
    282200   300.37862     -3240.8677     -3258.2233      17.355662      8670.0868      10112.159    
    282300   294.62396     -3240.3641     -3257.3873      17.023162      8863.2887      10112.159    
    282400   292.61042     -3239.5088     -3256.4156      16.906821      9105.1853      10112.159    
    282500   299.91968     -3239.4343     -3256.7635      17.329145      9119.6281      10112.159    
    282600   315.7904      -3239.4772     -3257.7233      18.246144      8974.5421      10112.159    
    282700   300.22685     -3239.6885     -3257.0354      17.346893      9069.7321      10112.159    
    282800   298.08065     -3239.9399     -3257.1628      17.222887      9100.3973      10112.159    
    282900   295.59377     -3240.5237     -3257.6029      17.079197      8955.8164      10112.159    
    283000   286.57406     -3241.6128     -3258.1708      16.558044      8471.2473      10112.159    
    283100   281.27001     -3242.2389     -3258.4905      16.25158       8156.8054      10112.159    
    283200   314.87704     -3240.6367     -3258.8301      18.19337       8835.8356      10112.159    
    283300   283.51196     -3240.0601     -3256.4412      16.381118      9290.4027      10112.159    
    283400   308.68635     -3239.3761     -3257.2118      17.835676      9189.1036      10112.159    
    283500   292.84519     -3239.792      -3256.7124      16.920385      8852.091       10112.159    
    283600   305.89053     -3240.2159     -3257.89        17.674136      8651.7275      10112.159    
    283700   294.22681     -3241.0326     -3258.0328      17.000215      8680.5374      10112.159    
    283800   291.12179     -3241.0285     -3257.8493      16.820809      8893.9716      10112.159    
    283900   297.33675     -3239.6446     -3256.8245      17.179905      8807.9557      10112.159    
    284000   307.31007     -3238.7794     -3256.5356      17.756156      9337.635       10112.159    
    284100   306.14866     -3239.0879     -3256.777       17.689051      9106.5321      10112.159    
    284200   304.66529     -3239.8819     -3257.4853      17.603343      8707.2908      10112.159    
    284300   304.82917     -3240.0329     -3257.6457      17.612811      8925.3325      10112.159    
    284400   285.99486     -3240.0612     -3256.5858      16.524579      9267.049       10112.159    
    284500   291.15649     -3239.8906     -3256.7134      16.822814      9027.5345      10112.159    
    284600   310.44645     -3239.6893     -3257.6267      17.937374      8762.0131      10112.159    
    284700   310.25192     -3239.3065     -3257.2327      17.926134      8978.8043      10112.159    
    284800   307.98192     -3239.0332     -3256.8282      17.794975      9186.4491      10112.159    
    284900   304.308       -3239.4856     -3257.0683      17.582699      8780.4886      10112.159    
    285000   289.52991     -3240.5906     -3257.3194      16.728831      8458.1509      10112.159    
    285100   291.15554     -3241.0921     -3257.9148      16.822759      8603.7752      10112.159    
    285200   297.53268     -3240.8089     -3258.0001      17.191226      8361.9891      10112.159    
    285300   289.22349     -3239.0973     -3255.8085      16.711127      9475.6491      10112.159    
    285400   318.9841      -3238.5538     -3256.9844      18.430673      9133.1399      10112.159    
    285500   311.26112     -3239.257      -3257.2414      17.984445      8786.7106      10112.159    
    285600   296.08077     -3240.1298     -3257.2372      17.107335      9028.2617      10112.159    
    285700   281.08894     -3241.3849     -3257.626       16.241118      9126.0264      10112.159    
    285800   294.34477     -3241.8257     -3258.8328      17.00703       8398.1842      10112.159    
    285900   296.86958     -3239.9418     -3257.0947      17.152912      8992.7691      10112.159    
    286000   290.29868     -3239.1988     -3255.972       16.77325       9358.3546      10112.159    
    286100   305.83071     -3239.2166     -3256.8873      17.67068       9106.3829      10112.159    
    286200   310.52702     -3239.9317     -3257.8737      17.942029      8741.5977      10112.159    
    286300   289.41806     -3240.9618     -3257.6841      16.722369      8878.4618      10112.159    
    286400   287.14568     -3240.849      -3257.4401      16.591072      9141.5565      10112.159    
    286500   295.13323     -3239.5105     -3256.5631      17.052587      9238.6256      10112.159    
    286600   329.00705     -3238.4537     -3257.4635      19.009792      9339.6401      10112.159    
    286700   302.7555      -3238.899      -3256.392       17.492996      9249.5501      10112.159    
    286800   299.11229     -3239.5536     -3256.8361      17.282494      8991.6277      10112.159    
    286900   289.10532     -3240.1822     -3256.8865      16.704298      8949.4168      10112.159    
    287000   289.06297     -3240.4273     -3257.1292      16.701851      8985.5335      10112.159    
    287100   304.95347     -3240.8333     -3258.4533      17.619994      8767.4141      10112.159    
    287200   285.23934     -3241.4509     -3257.9318      16.480925      8704.472       10112.159    
    287300   292.48637     -3240.6074     -3257.507       16.899653      8753.3534      10112.159    
    287400   305.27211     -3239.3394     -3256.9778      17.638404      8869.9031      10112.159    
    287500   307.24748     -3238.9632     -3256.7158      17.75254       9298.6394      10112.159    
    287600   303.17327     -3239.1888     -3256.706       17.517135      9067.5234      10112.159    
    287700   295.30084     -3240.9144     -3257.9766      17.062272      9040.8359      10112.159    
    287800   271.25454     -3241.8366     -3257.5095      15.672893      8560.0596      10112.159    
    287900   297.40676     -3240.8161     -3258.0001      17.18395       8731.8302      10112.159    
    288000   305.79125     -3239.7201     -3257.3885      17.6684        8631.6574      10112.159    
    288100   294.3475      -3239.4154     -3256.4226      17.007188      8910.794       10112.159    
    288200   312.85105     -3239.3326     -3257.4089      18.07631       8931.4241      10112.159    
    288300   295.49733     -3240.5135     -3257.5871      17.073624      8783.2212      10112.159    
    288400   285.11022     -3242.1525     -3258.626       16.473465      7975.4715      10112.159    
    288500   277.86659     -3241.6778     -3257.7328      16.054933      8635.3063      10112.159    
    288600   293.90357     -3240.5754     -3257.557       16.981538      9135.5449      10112.159    
    288700   306.04747     -3239.6653     -3257.3485      17.683204      8879.3692      10112.159    
    288800   301.36978     -3239.2015     -3256.6145      17.41293       8760.0384      10112.159    
    288900   320.86703     -3238.9141     -3257.4535      18.539468      9048.4814      10112.159    
    289000   280.4922      -3240.4967     -3256.7033      16.206638      8692.5017      10112.159    
    289100   302.11432     -3240.937      -3258.393       17.455949      8764.6491      10112.159    
    289200   285.61067     -3240.8689     -3257.3713      16.50238       8649.1794      10112.159    
    289300   300.19673     -3239.2116     -3256.5568      17.345152      9018.6115      10112.159    
    289400   314.15788     -3238.5901     -3256.7419      18.151818      9096.4914      10112.159    
    289500   302.54145     -3239.1914     -3256.672       17.480629      9138.9389      10112.159    
    289600   306.40285     -3239.9739     -3257.6776      17.703738      8761.5997      10112.159    
    289700   283.44972     -3240.8896     -3257.2671      16.377522      8652.8171      10112.159    
    289800   283.87298     -3240.6585     -3257.0605      16.401978      9231.4414      10112.159    
    289900   302.40203     -3240.3002     -3257.7728      17.472573      8804.1256      10112.159    
    290000   305.31422     -3239.8807     -3257.5215      17.640837      8850.2378      10112.159    
    290100   304.17815     -3239.2638     -3256.839       17.575196      8943.0616      10112.159    
    290200   311.05281     -3238.6713     -3256.6437      17.972409      9294.6696      10112.159    
    290300   306.76534     -3238.6406     -3256.3653      17.724682      9060.2132      10112.159    
    290400   309.90522     -3239.6637     -3257.5698      17.906102      8667.8795      10112.159    
    290500   294.57807     -3240.8075     -3257.828       17.02051       9036.6956      10112.159    
    290600   287.78806     -3241.0721     -3257.7003      16.628188      8627.6231      10112.159    
    290700   298.81234     -3240.0506     -3257.3158      17.265163      8773.6258      10112.159    
    290800   310.79936     -3238.4263     -3256.384       17.957765      9367.6693      10112.159    
    290900   309.91278     -3238.7575     -3256.664       17.906539      9372.354       10112.159    
    291000   293.43782     -3239.7263     -3256.6809      16.954628      9342.8505      10112.159    
    291100   282.68492     -3240.5662     -3256.8995      16.333333      8873.6408      10112.159    
    291200   305.32018     -3240.4967     -3258.1379      17.641182      8689.506       10112.159    
    291300   304.39737     -3240.1933     -3257.7812      17.587863      8820.7097      10112.159    
    291400   296.50683     -3239.8889     -3257.0208      17.131952      8987.5868      10112.159    
    291500   287.04937     -3240.0246     -3256.6101      16.585507      8850.6688      10112.159    
    291600   310.17205     -3239.9477     -3257.8692      17.921519      8889.035       10112.159    
    291700   296.89163     -3240.0035     -3257.1577      17.154186      8807.9205      10112.159    
    291800   301.63748     -3239.4975     -3256.9259      17.428398      9140.0962      10112.159    
    291900   300.43402     -3239.1906     -3256.5495      17.358863      9307.2415      10112.159    
    292000   303.35145     -3238.8603     -3256.3878      17.52743       9437.2999      10112.159    
    292100   295.94724     -3239.8469     -3256.9465      17.09962       9148.1444      10112.159    
    292200   296.59177     -3240.9404     -3258.0772      17.13686       8787.5874      10112.159    
    292300   291.34123     -3240.9944     -3257.8279      16.833488      8675.9855      10112.159    
    292400   295.48705     -3239.9367     -3257.0098      17.07303       9292.7533      10112.159    
    292500   322.73368     -3238.2881     -3256.9355      18.647321      9218.1146      10112.159    
    292600   293.42641     -3238.6704     -3255.6244      16.953968      9377.816       10112.159    
    292700   301.71388     -3239.5438     -3256.9766      17.432812      9202.0917      10112.159    
    292800   306.32636     -3240.632      -3258.3313      17.699318      8550.3304      10112.159    
    292900   294.75272     -3240.929      -3257.9596      17.030601      8697.0732      10112.159    
    293000   307.56544     -3239.9436     -3257.7146      17.770911      8759.7508      10112.159    
    293100   309.08402     -3238.8437     -3256.7024      17.858653      9010.9716      10112.159    
    293200   295.66782     -3238.9303     -3256.0138      17.083475      9124.8123      10112.159    
    293300   304.82112     -3239.0392     -3256.6515      17.612346      9289.3149      10112.159    
    293400   305.32157     -3239.671      -3257.3122      17.641262      9110.9709      10112.159    
    293500   297.78647     -3240.7041     -3257.91        17.205889      8443.0434      10112.159    
    293600   284.81643     -3241.1753     -3257.6318      16.45649       8597.7793      10112.159    
    293700   296.53647     -3239.9108     -3257.0444      17.133665      9151.932       10112.159    
    293800   308.37934     -3238.8427     -3256.6607      17.817938      9038.8023      10112.159    
    293900   311.48872     -3239.0156     -3257.0132      17.997595      9110.7705      10112.159    
    294000   305.62477     -3239.6273     -3257.286       17.658781      9155.7586      10112.159    
    294100   284.65762     -3241.0969     -3257.5442      16.447314      8850.5509      10112.159    
    294200   279.7205      -3241.5061     -3257.6681      16.162051      8787.8853      10112.159    
    294300   300.48532     -3240.8605     -3258.2223      17.361827      8661.4588      10112.159    
    294400   306.39271     -3240.2013     -3257.9045      17.703152      8736.4384      10112.159    
    294500   292.38862     -3239.8156     -3256.7096      16.894005      9077.4076      10112.159    
    294600   305.3833      -3239.1388     -3256.7836      17.644828      9342.4551      10112.159    
    294700   309.77595     -3238.5637     -3256.4624      17.898633      9250.0506      10112.159    
    294800   316.54265     -3238.5221     -3256.8117      18.289608      8824.6718      10112.159    
    294900   285.03661     -3239.9607     -3256.4299      16.469211      9207.7056      10112.159    
    295000   304.65957     -3240.5725     -3258.1756      17.603012      8754.5025      10112.159    
    295100   292.16084     -3241.1005     -3257.9813      16.880844      8990.9756      10112.159    
    295200   283.16159     -3240.2187     -3256.5796      16.360874      9245.7931      10112.159    
    295300   310.51563     -3238.7356     -3256.6769      17.941371      9044.361       10112.159    
    295400   298.96982     -3239.5654     -3256.8397      17.274262      9019.5929      10112.159    
    295500   314.45376     -3240.0443     -3258.2132      18.168913      8857.6559      10112.159    
    295600   288.69865     -3240.7392     -3257.42        16.680801      8913.385       10112.159    
    295700   297.5017      -3240.8376     -3258.0271      17.189435      8773.019       10112.159    
    295800   278.85463     -3239.8685     -3255.9805      16.112021      9023.0666      10112.159    
    295900   308.91097     -3238.3443     -3256.193       17.848655      9404.0031      10112.159    
    296000   322.63342     -3238.8554     -3257.497       18.641528      9197.084       10112.159    
    296100   301.90442     -3239.9859     -3257.4298      17.443822      8910.3728      10112.159    
    296200   306.12602     -3240.0205     -3257.7083      17.687743      8484.7893      10112.159    
    296300   292.00677     -3240.4419     -3257.3139      16.871943      9160.2105      10112.159    
    296400   291.50014     -3241.0656     -3257.9082      16.84267       8686.8919      10112.159    
    296500   284.12394     -3240.7731     -3257.1896      16.416478      8777.9758      10112.159    
    296600   309.59285     -3239.2651     -3257.1531      17.888054      9183.1334      10112.159    
    296700   295.67244     -3239.0168     -3256.1005      17.083742      9207.6604      10112.159    
    296800   315.01215     -3239.1511     -3257.3523      18.201177      8874.6144      10112.159    
    296900   291.68524     -3240.7462     -3257.5996      16.853364      9040.0021      10112.159    
    297000   287.58813     -3241.4538     -3258.0705      16.616636      8821.7678      10112.159    
    297100   289.43488     -3241.1032     -3257.8266      16.72334       8650.9331      10112.159    
    297200   306.65616     -3240.1712     -3257.8895      17.718373      9034.1648      10112.159    
    297300   296.86015     -3239.8427     -3256.9951      17.152367      9035.5826      10112.159    
    297400   297.00608     -3239.3924     -3256.5532      17.160799      9144.3023      10112.159    
    297500   300.65995     -3239.3233     -3256.6953      17.371917      9100.1545      10112.159    
    297600   299.42061     -3240.416      -3257.7164      17.300309      9121.6713      10112.159    
    297700   280.98624     -3241.6239     -3257.8591      16.235184      8692.0782      10112.159    
    297800   286.60629     -3241.1359     -3257.6958      16.559906      8881.8553      10112.159    
    297900   316.3366      -3239.8809     -3258.1586      18.277702      9011.5522      10112.159    
    298000   289.51442     -3239.7418     -3256.4698      16.727936      8966.9018      10112.159    
    298100   308.21181     -3239.3256     -3257.1339      17.808258      9299.9228      10112.159    
    298200   298.956       -3239.814      -3257.0874      17.273464      8915.5675      10112.159    
    298300   294.06579     -3240.6932     -3257.6841      16.990911      9069.9627      10112.159    
    298400   281.32241     -3241.7724     -3258.027       16.254608      8689.891       10112.159    
    298500   280.95974     -3241.9669     -3258.2006      16.233653      8359.8965      10112.159    
    298600   295.24887     -3240.1452     -3257.2045      17.059268      8855.767       10112.159    
    298700   298.12051     -3239.2172     -3256.4424      17.22519       9316.5644      10112.159    
    298800   304.26765     -3239.2194     -3256.7998      17.580367      9243.6036      10112.159    
    298900   315.77339     -3239.9958     -3258.241       18.245161      8981.6742      10112.159    
    299000   288.03169     -3241.1509     -3257.7932      16.642265      8737.2121      10112.159    
    299100   269.51513     -3241.1239     -3256.6963      15.572391      9309.8293      10112.159    
    299200   318.70357     -3239.044      -3257.4584      18.414464      8870.5882      10112.159    
    299300   311.97697     -3239.0204     -3257.0463      18.025806      8976.321       10112.159    
    299400   305.07278     -3239.5402     -3257.1671      17.626887      9309.6514      10112.159    
    299500   278.11701     -3240.8741     -3256.9435      16.069402      9048.9559      10112.159    
    299600   301.79321     -3240.9019     -3258.3393      17.437396      8615.0318      10112.159    
    299700   301.90002     -3240.0323     -3257.4759      17.443567      8878.2341      10112.159    
    299800   303.3068      -3239.1694     -3256.6942      17.52485       9014.0718      10112.159    
    299900   306.59813     -3239.2073     -3256.9224      17.715021      9264.4786      10112.159    
    300000   318.81563     -3239.687      -3258.1079      18.420939      8508.749       10112.159    
Loop time of 2281.83 on 20 procs for 300000 steps with 448 atoms

Performance: 11.359 ns/day, 2.113 hours/ns, 131.473 timesteps/s, 58.900 katom-step/s
99.9% CPU use with 20 MPI tasks x 1 OpenMP threads

MPI task timing breakdown:
Section |  min time  |  avg time  |  max time  |%varavg| %total
---------------------------------------------------------------
Pair    | 1717.8     | 2000.8     | 2179.2     | 397.9 | 87.68
Neigh   | 19.909     | 28.033     | 34.813     | 116.2 |  1.23
Comm    | 64.523     | 249.82     | 541.25     |1164.5 | 10.95
Output  | 0.35651    | 0.57538    | 0.64085    |   7.6 |  0.03
Modify  | 2.0819     | 2.3054     | 2.4907     |   7.9 |  0.10
Other   |            | 0.2887     |            |       |  0.01

Nlocal:           22.4 ave          24 max          17 min
Histogram: 1 0 2 0 1 3 0 0 2 11
Nghost:          497.2 ave         524 max         465 min
Histogram: 4 0 0 2 6 0 0 0 2 6
Neighs:              0 ave           0 max           0 min
Histogram: 20 0 0 0 0 0 0 0 0 0
FullNghs:       1283.6 ave        1385 max         974 min
Histogram: 1 0 2 0 1 3 0 1 1 11

Total # of neighbors = 25672
Ave neighs/atom = 57.303571
Neighbor list builds = 300000
Dangerous builds not checked
Total wall time: 0:38:01
