LAMMPS (27 Jun 2024)
OMP_NUM_THREADS environment is not set. Defaulting to 1 thread. (src/comm.cpp:98)
  using 1 OpenMP thread(s) per MPI task
Reading data file ...
  orthogonal box = (0 0 0) to (44.844435 44.38448 40.643788)
  5 by 2 by 2 MPI processor grid
  reading atoms ...
  3584 atoms
  read_data CPU = 0.021 seconds
**************** Begin of POD Potentials ****************
species: Hf 
periodic boundary conditions: 1 1 1
number of environment clusters: 8
number of principal compoments: 2
inner cut-off radius: 1
outer cut-off radius: 5
cut-off function type: 1
gaussian_exponents: 
polynomial_degrees: 
bessel polynomial degree: 4
inverse polynomial degree: 10
one-body potential: 1
two-body radial basis functions: 8
three-body radial basis functions: 8
three-body angular degree: 6
four-body radial basis functions: 7
four-body angular degree: 5
five-body radial basis functions: 0
five-body angular degree: 0
six-body radial basis functions: 0
six-body angular degree: 0
seven-body radial basis functions: 0
seven-body angular degree: 0
number of local descriptors per element for one-body potential: 1
number of local descriptors per element for two-body potential: 8
number of local descriptors per element for three-body potential: 56
number of local descriptors per element for four-body potential: 112
number of local descriptors per element for five-body potential: 0
number of local descriptors per element for six-body potential: 0
number of local descriptors per element for seven-body potential: 0
number of local descriptors per element for all potentials: 177
number of global descriptors: 1409
**************** End of POD Potentials ****************

**************** Begin of Model Coefficients ****************
total number of coefficients for POD potential: 1409
total number of elements for PCA projection matrix: 352
total number of elements for PCA centroids: 16
**************** End of Model Coefficients ****************


CITE-CITE-CITE-CITE-CITE-CITE-CITE-CITE-CITE-CITE-CITE-CITE-CITE

Your simulation uses code contributions which should be cited:
- Type Label Framework: https://doi.org/10.1021/acs.jpcb.3c08419
The log file lists these citations in BibTeX format.

CITE-CITE-CITE-CITE-CITE-CITE-CITE-CITE-CITE-CITE-CITE-CITE-CITE

Neighbor list info ...
  update: every = 1 steps, delay = 0 steps, check = no
  max neighbors/atom: 2000, page size: 100000
  master list distance cutoff = 7
  ghost atom cutoff = 7
  binsize = 3.5, bins = 13 13 12
  1 neighbor lists, perpetual/occasional/extra = 1 0 0
  (1) pair pod, perpetual
      attributes: full, newton on
      pair build: full/bin/atomonly
      stencil: full/bin/3d
      bin: standard
Setting up Verlet run ...
  Unit style    : metal
  Current step  : 0
  Time step     : 0.001
Per MPI rank memory allocation (min/avg/max) = 2.609 | 2.609 | 2.613 Mbytes
   Step          Temp          TotEng         PotEng         KinEng         Press          Volume    
         0   300           -26078.873     -26217.815      138.94173      5068.3643      80897.271    
       100   125.73015     -26075.082     -26133.312      58.230547      4482.329       80897.271    
       200   162.55558     -26057.609     -26132.895      75.285847      5310.2359      80897.271    
       300   206.07568     -26037.561     -26133.002      95.441706      5237.5363      80897.271    
       400   272.12599     -26016.246     -26142.278      126.03218      5052.9403      80897.271    
       500   291.84141     -25995.364     -26130.528      135.16317      5782.3478      80897.271    
       600   269.4587      -25976.732     -26101.529      124.79686      6805.4251      80897.271    
       700   283.24389     -25962.222     -26093.403      131.18132      7465.3159      80897.271    
       800   305.02963     -25954.316     -26095.588      141.27115      7325.895       80897.271    
       900   323.34972     -25954.183     -26103.939      149.7559       7022.1091      80897.271    
      1000   311.89927     -25963.165     -26107.617      144.45275      6878.8054      80897.271    
      1100   292.72202     -25970.53      -26106.101      135.57101      6930.4046      80897.271    
      1200   286.86885     -25971.496     -26104.356      132.86018      7028.6229      80897.271    
      1300   284.59102     -25968.932     -26100.737      131.80523      7043.8172      80897.271    
      1400   314.0627      -25960.339     -26105.793      145.45471      7096.9122      80897.271    
      1500   309.06098     -25958.288     -26101.426      143.13822      7018.4972      80897.271    
      1600   304.64175     -25960.295     -26101.387      141.09151      7090.6532      80897.271    
      1700   299.44139     -25964.48      -26103.163      138.68302      7090.0231      80897.271    
      1800   285.68418     -25969.154     -26101.465      132.31151      6986.0141      80897.271    
      1900   302.07786     -25968.532     -26108.436      139.90407      6860.7873      80897.271    
      2000   299.95772     -25966.565     -26105.487      138.92215      6874.5146      80897.271    
      2100   306.68408     -25960.722     -26102.759      142.03739      7070.3164      80897.271    
      2200   299.70077     -25958.611     -26097.414      138.80315      7251.1444      80897.271    
      2300   299.61415     -25960.806     -26099.569      138.76303      7239.5105      80897.271    
      2400   302.26764     -25965.889     -26105.881      139.99196      6872.5474      80897.271    
      2500   295.26997     -25969.759     -26106.51       136.75107      6745.5032      80897.271    
      2600   300.49197     -25968.325     -26107.495      139.16958      6887.4949      80897.271    
      2700   293.51615     -25965.2       -26101.139      135.93881      7089.5568      80897.271    
      2800   299.2284      -25961.013     -26099.597      138.58437      7237.4069      80897.271    
      2900   306.81998     -25959.541     -26101.641      142.10033      7102.8023      80897.271    
      3000   306.15015     -25961.454     -26103.244      141.7901       7053.7806      80897.271    
      3100   299.34902     -25965.863     -26104.504      138.64024      6965.1357      80897.271    
      3200   293.8929      -25968.127     -26104.24       136.11329      6994.4916      80897.271    
      3300   295.56132     -25966.955     -26103.841      136.886        7053.8114      80897.271    
      3400   298.13554     -25965.191     -26103.269      138.07823      6973.9428      80897.271    
      3500   306.26        -25961.599     -26103.44       141.84098      7038.2719      80897.271    
      3600   300.58995     -25961.121     -26100.336      139.21496      7075.1489      80897.271    
      3700   301.70851     -25962.491     -26102.224      139.73301      7104.0301      80897.271    
      3800   299.57504     -25965.177     -26103.922      138.74491      6938.5854      80897.271    
      3900   292.63804     -25968.001     -26103.533      135.53212      7051.7695      80897.271    
      4000   297.09701     -25968.038     -26105.635      137.59724      6960.9165      80897.271    
      4100   304.66565     -25964.335     -26105.437      141.10257      6967.7656      80897.271    
      4200   300.1217      -25961.867     -26100.865      138.9981       7110.4763      80897.271    
      4300   302.88706     -25961.273     -26101.552      140.27884      7132.1164      80897.271    
      4400   295.29536     -25963.308     -26100.071      136.76283      7103.6524      80897.271    
      4500   304.63979     -25964.899     -26105.99       141.0906       6891.1674      80897.271    
      4600   300.32696     -25966.754     -26105.847      139.09316      6850.5697      80897.271    
      4700   295.77947     -25967.609     -26104.596      136.98704      6988.5067      80897.271    
      4800   295.39157     -25966.055     -26102.862      136.80739      6999.2296      80897.271    
      4900   299.3153      -25962.671     -26101.296      138.62462      6964.6738      80897.271    
      5000   304.07616     -25959.833     -26100.662      140.82956      7206.659       80897.271    
      5100   303.875       -25960.833     -26101.569      140.7364       7167.6106      80897.271    
      5200   299.68393     -25965.19      -26103.986      138.79534      6993.4955      80897.271    
      5300   297.68154     -25968.019     -26105.887      137.86796      6897.8262      80897.271    
      5400   296.36934     -25967.865     -26105.126      137.26023      6931.72        80897.271    
      5500   299.60894     -25964.958     -26103.718      138.76061      6995.5252      80897.271    
      5600   301.31232     -25961.663     -26101.213      139.54952      7151.3614      80897.271    
      5700   305.09325     -25960.785     -26102.086      141.30061      7137.5551      80897.271    
      5800   300.07178     -25963.814     -26102.789      138.97497      6945.9149      80897.271    
      5900   294.72137     -25966.433     -26102.93       136.49699      7007.0963      80897.271    
      6000   297.0787      -25966.05      -26103.638      137.58876      7011.9799      80897.271    
      6100   304.4431      -25961.877     -26102.877      140.9995       7050.363       80897.271    
      6200   306.78793     -25958.145     -26100.231      142.08549      7173.8006      80897.271    
      6300   307.67317     -25959.015     -26101.511      142.49547      7100.1227      80897.271    
      6400   298.33003     -25963.433     -26101.601      138.1683       7016.3051      80897.271    
      6500   303.62255     -25964.036     -26104.655      140.61947      7028.9887      80897.271    
      6600   293.22376     -25966.049     -26101.852      135.80339      7143.9756      80897.271    
      6700   301.78288     -25965.356     -26105.124      139.76745      6902.7305      80897.271    
      6800   301.67748     -25963.357     -26103.076      139.71864      7133.6944      80897.271    
      6900   301.63814     -25961.197     -26100.898      139.70042      7076.4167      80897.271    
      7000   299.07124     -25962.822     -26101.333      138.51159      7177.9164      80897.271    
      7100   299.58407     -25967.94      -26106.69       138.7491       6892.8612      80897.271    
      7200   299.86288     -25968.404     -26107.282      138.87822      6919.4231      80897.271    
      7300   290.99334     -25966.986     -26101.757      134.7704       7042.2406      80897.271    
      7400   305.13956     -25963.131     -26104.453      141.32206      7003.0187      80897.271    
      7500   297.53549     -25963.585     -26101.386      137.80032      7189.7172      80897.271    
      7600   298.41241     -25964.264     -26102.47       138.20645      7104.9853      80897.271    
      7700   307.9268      -25963.573     -26106.186      142.61294      6960.3552      80897.271    
      7800   290.71259     -25964.199     -26098.839      134.64037      7231.4997      80897.271    
      7900   299.98447     -25965.209     -26104.143      138.93454      7045.4564      80897.271    
      8000   300.24996     -25966.346     -26105.403      139.05749      6972.6494      80897.271    
      8100   297.05449     -25966.165     -26103.743      137.57755      7027.5813      80897.271    
      8200   298.45412     -25964.62      -26102.846      138.22577      7012.803       80897.271    
      8300   302.66254     -25961.119     -26101.294      140.17486      7217.1231      80897.271    
      8400   300.80317     -25960.433     -26099.747      139.31371      7236.02        80897.271    
      8500   302.38163     -25963.363     -26103.408      140.04476      7126.607       80897.271    
      8600   298.15214     -25967.551     -26105.637      138.08591      6926.675       80897.271    
      8700   298.99095     -25967.459     -26105.933      138.4744       6932.2265      80897.271    
      8800   295.4509      -25965.091     -26101.926      136.83487      7077.1487      80897.271    
      8900   303.99532     -25961.128     -26101.92       140.79212      7199.7331      80897.271    
      9000   301.23441     -25962.03      -26101.544      139.51343      7087.5625      80897.271    
      9100   301.74189     -25964.5       -26104.248      139.74847      7133.4096      80897.271    
      9200   298.61154     -25966.363     -26104.662      138.29868      7010.178       80897.271    
      9300   293.83274     -25966.464     -26102.55       136.08543      7080.1462      80897.271    
      9400   304.01658     -25964.739     -26105.541      140.80196      6956.811       80897.271    
      9500   298.40028     -25964.926     -26103.127      138.20084      7043.8814      80897.271    
      9600   298.50541     -25964.253     -26102.503      138.24953      7063.4764      80897.271    
      9700   305.8348      -25961.853     -26103.497      141.64405      7143.4829      80897.271    
      9800   301.50459     -25960.456     -26100.095      139.63856      7168.4625      80897.271    
      9900   299.2911      -25962.265     -26100.879      138.61341      7140.6393      80897.271    
     10000   300.12254     -25965.91      -26104.908      138.99848      7012.9399      80897.271    
     10100   297.72461     -25967.256     -26105.144      137.88791      6986.2956      80897.271    
     10200   301.72906     -25965.594     -26105.337      139.74252      7044.5499      80897.271    
     10300   298.63864     -25961.183     -26099.494      138.31123      7177.0993      80897.271    
     10400   312.16774     -25958.166     -26102.743      144.57709      7114.3039      80897.271    
     10500   303.40466     -25960.409     -26100.928      140.51856      7186.64        80897.271    
     10600   296.8888      -25963.027     -26100.528      137.50081      7149.957       80897.271    
     10700   297.07075     -25965.756     -26103.341      137.58508      7021.1664      80897.271    
     10800   302.42666     -25966.136     -26106.202      140.06561      7047.2291      80897.271    
     10900   296.48479     -25965.802     -26103.115      137.3137       7017.8133      80897.271    
     11000   299.40361     -25963.897     -26102.563      138.66552      7133.5463      80897.271    
     11100   299.94778     -25963.814     -26102.731      138.91754      7110.9063      80897.271    
     11200   301.77894     -25963.477     -26103.242      139.76563      7069.5915      80897.271    
     11300   298.35126     -25963.94      -26102.118      138.17813      7111.461       80897.271    
     11400   303.82226     -25964.437     -26105.149      140.71197      6986.4568      80897.271    
     11500   300.43068     -25966.622     -26105.763      139.1412       6947.7512      80897.271    
     11600   291.1546      -25970.148     -26104.993      134.84508      6933.5785      80897.271    
     11700   298.03464     -25968.099     -26106.13       138.0315       6976.0209      80897.271    
     11800   296.98196     -25965.021     -26102.565      137.54396      7063.6658      80897.271    
     11900   301.42671     -25963.624     -26103.226      139.6025       7142.6603      80897.271    
     12000   301.47113     -25963.316     -26102.939      139.62307      7092.9646      80897.271    
     12100   304.99874     -25963.768     -26105.025      141.25684      7106.6093      80897.271    
     12200   290.49899     -25967.098     -26101.639      134.54144      7089.5876      80897.271    
     12300   298.82054     -25967.446     -26105.841      138.39548      7077.3862      80897.271    
     12400   297.23394     -25966.727     -26104.388      137.66066      7029.6352      80897.271    
     12500   310.37163     -25961.796     -26105.541      143.74524      7035.7929      80897.271    
     12600   298.56389     -25961.723     -26100          138.27661      7298.1414      80897.271    
     12700   297.90018     -25963.145     -26101.115      137.96922      7192.3083      80897.271    
     12800   304.36292     -25966.37      -26107.332      140.96237      6953.2263      80897.271    
     12900   297.07519     -25969.219     -26106.806      137.58714      6978.8913      80897.271    
     13000   296.94461     -25967.912     -26105.438      137.52666      6980.5597      80897.271    
     13100   293.62757     -25965.153     -26101.143      135.99041      7184.8014      80897.271    
     13200   302.2339      -25962.659     -26102.635      139.97634      7184.9286      80897.271    
     13300   306.21147     -25963.137     -26104.956      141.81851      7092.4935      80897.271    
     13400   296.30615     -25966.459     -26103.69       137.23096      7040.6452      80897.271    
     13500   298.85858     -25966.907     -26105.32       138.41309      7065.4941      80897.271    
     13600   301.75826     -25962.307     -26102.063      139.75605      7124.0092      80897.271    
     13700   306.11981     -25958.667     -26100.443      141.77605      7291.6414      80897.271    
     13800   305.16041     -25960.475     -26101.807      141.33172      7176.0885      80897.271    
     13900   304.31823     -25963.941     -26104.883      140.94167      6993.408       80897.271    
     14000   295.53568     -25965.972     -26102.846      136.87413      7120.2275      80897.271    
     14100   296.20747     -25965.682     -26102.867      137.18526      7061.4996      80897.271    
     14200   303.9681      -25963.009     -26103.788      140.77951      7066.13        80897.271    
     14300   306.15368     -25960.368     -26102.16       141.79174      7256.343       80897.271    
     14400   302.81422     -25960.266     -26100.511      140.24511      7175.5877      80897.271    
     14500   300.20269     -25962.996     -26102.032      139.0356       7131.5869      80897.271    
     14600   298.80537     -25966.74      -26105.129      138.38845      6992.0084      80897.271    
     14700   295.32785     -25967.846     -26104.624      136.77787      7026.54        80897.271    
     14800   301.05281     -25964.98      -26104.41       139.42933      7044.9769      80897.271    
     14900   304.50025     -25962.228     -26103.253      141.02597      7186.7023      80897.271    
     15000   300.40917     -25962.007     -26101.138      139.13123      7192.9162      80897.271    
     15100   303.7315      -25962.772     -26103.442      140.66993      7057.497       80897.271    
     15200   295.72794     -25965.564     -26102.527      136.96317      7037.4661      80897.271    
     15300   302.44842     -25965.779     -26105.855      140.07569      6993.2075      80897.271    
     15400   298.99905     -25965.674     -26104.152      138.47815      7031.6909      80897.271    
     15500   301.00928     -25961.467     -26100.877      139.40916      7255.4465      80897.271    
     15600   308.52283     -25958.772     -26101.661      142.88898      7184.9721      80897.271    
     15700   301.36199     -25961.81      -26101.383      139.57252      7160.5161      80897.271    
     15800   298.16624     -25964.764     -26102.857      138.09244      7031.8053      80897.271    
     15900   298.57769     -25965.318     -26103.601      138.283        7057.3084      80897.271    
     16000   300.00214     -25964.91      -26103.852      138.94272      7050.8291      80897.271    
     16100   301.63648     -25965.38      -26105.08       139.69965      7017.036       80897.271    
     16200   292.24127     -25969.277     -26104.626      135.34836      7019.5548      80897.271    
     16300   295.1046      -25968.85      -26105.525      136.67448      6908.3425      80897.271    
     16400   300.8537      -25964.249     -26103.586      139.33711      7080.7559      80897.271    
     16500   302.11542     -25962.991     -26102.912      139.92146      7089.2779      80897.271    
     16600   304.59534     -25963.171     -26104.241      141.07001      7120.3501      80897.271    
     16700   295.8989      -25965.475     -26102.518      137.04235      7118.1979      80897.271    
     16800   293.16854     -25968.337     -26104.115      135.77782      7037.0197      80897.271    
     16900   297.51376     -25968.522     -26106.313      137.79025      6958.2223      80897.271    
     17000   305.74158     -25964.844     -26106.445      141.60088      6975.0859      80897.271    
     17100   300.80315     -25962.399     -26101.712      139.3137       7112.5766      80897.271    
     17200   300.98714     -25961.425     -26100.824      139.39891      7260.6821      80897.271    
     17300   301.98896     -25962.897     -26102.76       139.86289      7083.4747      80897.271    
     17400   293.06214     -25967.909     -26103.637      135.72853      7067.9158      80897.271    
     17500   299.80633     -25967.764     -26106.616      138.85203      6993.2683      80897.271    
     17600   300.60599     -25965.557     -26104.779      139.22239      7021.6298      80897.271    
     17700   297.39747     -25962.701     -26100.438      137.7364       7135.3144      80897.271    
     17800   302.3099      -25961.621     -26101.632      140.01153      7256.8267      80897.271    
     17900   300.8183      -25963.26      -26102.581      139.32072      7173.7031      80897.271    
     18000   300.03477     -25964.718     -26103.676      138.95783      7165.5413      80897.271    
     18100   302.9421      -25965.8       -26106.104      140.30433      6983.2605      80897.271    
     18200   293.02112     -25969.297     -26105.006      135.70954      6957.5317      80897.271    
     18300   287.18193     -25970.889     -26103.895      133.00518      7001.7642      80897.271    
     18400   298.22488     -25965.96      -26104.08       138.1196       7002.2318      80897.271    
     18500   305.38243     -25962.883     -26104.317      141.43454      6987.0557      80897.271    
     18600   298.66435     -25963.554     -26101.877      138.32314      7075.388       80897.271    
     18700   297.58525     -25964.419     -26102.243      137.82337      7039.6411      80897.271    
     18800   304.74161     -25964.478     -26105.616      141.13775      7045.7445      80897.271    
     18900   292.2025      -25966.756     -26102.086      135.3304       7132.2056      80897.271    
     19000   298.48855     -25966.739     -26104.981      138.24172      6983.8324      80897.271    
     19100   299.11823     -25966.334     -26104.867      138.53335      7032.7839      80897.271    
     19200   308.06266     -25961.546     -26104.222      142.67586      7089.7614      80897.271    
     19300   300.95002     -25961.688     -26101.069      139.38172      7132.9999      80897.271    
     19400   296.19497     -25964.16      -26101.34       137.17947      7185.1461      80897.271    
     19500   294.87876     -25966.413     -26102.983      136.56989      7062.5444      80897.271    
     19600   302.52507     -25966.269     -26106.38       140.11119      6901.6439      80897.271    
     19700   303.90247     -25962.694     -26103.443      140.74912      7115.8821      80897.271    
     19800   299.17533     -25959.894     -26098.453      138.55979      7301.4849      80897.271    
     19900   307.22931     -25959.171     -26101.461      142.28991      7167.701       80897.271    
     20000   301.74413     -25963.869     -26103.619      139.74951      7125.8898      80897.271    
     20100   296.5906      -25965.111     -26102.473      137.36271      6998.1504      80897.271    
     20200   304.30036     -25963.687     -26104.62       140.93339      7006.8006      80897.271    
     20300   298.9792      -25963.948     -26102.417      138.46896      7102.3096      80897.271    
     20400   301.48321     -25965.465     -26105.093      139.62866      7109.1693      80897.271    
     20500   288.76875     -25968.76      -26102.5        133.7401       6982.1939      80897.271    
     20600   303.16772     -25966.832     -26107.241      140.40882      6908.8363      80897.271    
     20700   305.01092     -25963.383     -26104.645      141.26248      7053.5993      80897.271    
     20800   298.52833     -25960.967     -26099.227      138.26014      7182.0994      80897.271    
     20900   303.13404     -25961.965     -26102.359      140.39322      7192.5118      80897.271    
     21000   299.82008     -25964.28      -26103.139      138.8584       7020.806       80897.271    
     21100   300.96624     -25965.55      -26104.939      139.38924      7039.7889      80897.271    
     21200   295.93536     -25966.263     -26103.323      137.05924      7082.843       80897.271    
     21300   307.08713     -25961.48      -26103.704      142.22406      7083.5993      80897.271    
     21400   302.18386     -25959.161     -26099.114      139.95316      7183.4867      80897.271    
     21500   300.60347     -25960.328     -26099.549      139.22122      7178.9286      80897.271    
     21600   301.985       -25965.22      -26105.081      139.86106      7061.6759      80897.271    
     21700   300.41351     -25966.246     -26105.379      139.13324      7042.0865      80897.271    
     21800   298.6572      -25965.418     -26103.738      138.31982      7038.6218      80897.271    
     21900   299.26356     -25962.97      -26101.571      138.60066      7166.3296      80897.271    
     22000   300.40818     -25961.022     -26100.153      139.13078      7233.5912      80897.271    
     22100   310.32299     -25960.179     -26103.901      143.72271      7070.9498      80897.271    
     22200   300.60083     -25964.674     -26103.894      139.22         7041.666       80897.271    
     22300   298.85167     -25967.015     -26105.425      138.4099       6962.699       80897.271    
     22400   292.56187     -25967.357     -26102.854      135.49684      7040.0002      80897.271    
     22500   301.76834     -25963.646     -26103.407      139.76072      7059.3038      80897.271    
     22600   305.21319     -25960.72      -26102.076      141.35616      7047.7487      80897.271    
     22700   301.11781     -25961.77      -26101.229      139.45943      7165.4324      80897.271    
     22800   300.83469     -25963.327     -26102.656      139.32831      7051.9935      80897.271    
     22900   297.75327     -25965.077     -26102.979      137.90118      7027.2588      80897.271    
     23000   296.75189     -25966.728     -26104.166      137.4374       6926.7023      80897.271    
     23100   301.20489     -25968.119     -26107.619      139.49976      6917.9474      80897.271    
     23200   292.71442     -25968.619     -26104.186      135.56749      6978.6438      80897.271    
     23300   295.38976     -25965.316     -26102.123      136.80655      7056.2166      80897.271    
     23400   303.29188     -25962.098     -26102.564      140.46633      7136.5663      80897.271    
     23500   303.75763     -25961.495     -26102.177      140.68204      7115.5913      80897.271    
     23600   300.61032     -25963.822     -26103.046      139.2244       7088.4903      80897.271    
     23700   294.38323     -25967.659     -26104          136.34038      6951.0978      80897.271    
     23800   301.7248      -25967.107     -26106.847      139.74055      6912.6642      80897.271    
     23900   294.76187     -25965.661     -26102.177      136.51575      6962.3707      80897.271    
     24000   301.54852     -25963.712     -26103.371      139.65891      7052.1925      80897.271    
     24100   300.98359     -25963.994     -26103.391      139.39727      7058.1505      80897.271    
     24200   299.52853     -25964.368     -26103.091      138.72337      7078.8446      80897.271    
     24300   298.12071     -25964.888     -26102.959      138.07136      7047.15        80897.271    
     24400   303.65861     -25965.466     -26106.102      140.63618      7008.0878      80897.271    
     24500   293.66542     -25966.449     -26102.457      136.00794      7044.0916      80897.271    
     24600   298.87808     -25964.894     -26103.316      138.42212      7080.7769      80897.271    
     24700   301.98211     -25961.985     -26101.845      139.85972      7183.4707      80897.271    
     24800   302.30451     -25959.67      -26099.679      140.00904      7277.982       80897.271    
     24900   305.46983     -25961.288     -26102.763      141.47502      7152.9551      80897.271    
     25000   298.01509     -25966.596     -26104.618      138.02244      7065.5621      80897.271    
     25100   296.81517     -25967.622     -26105.089      137.46671      6952.6092      80897.271    
     25200   301.60307     -25965.331     -26105.015      139.68417      6989.7018      80897.271    
     25300   296.33497     -25963.399     -26100.644      137.24431      7247.9435      80897.271    
     25400   301.97791     -25961.711     -26101.569      139.85778      7050.1053      80897.271    
     25500   306.90459     -25961.755     -26103.895      142.13952      7081.6389      80897.271    
     25600   295.99822     -25967.599     -26104.687      137.08835      6951.1831      80897.271    
     25700   300.5336      -25967.56      -26106.749      139.18886      7013.5956      80897.271    
     25800   298.31206     -25965.425     -26103.585      138.15998      7052.178       80897.271    
     25900   301.13661     -25961.915     -26101.383      139.46814      7218.0651      80897.271    
     26000   302.57424     -25961.914     -26102.048      140.13396      7078.8078      80897.271    
     26100   303.98234     -25962.713     -26103.499      140.78611      7057.016       80897.271    
     26200   300.92055     -25964.047     -26103.415      139.36807      7032.8385      80897.271    
     26300   301.98702     -25964.354     -26104.216      139.862        7115.919       80897.271    
     26400   299.48149     -25965.098     -26103.799      138.70159      7041.109       80897.271    
     26500   297.01414     -25966.304     -26103.863      137.55886      6950.6389      80897.271    
     26600   294.39038     -25967.812     -26104.156      136.34369      6936.93        80897.271    
     26700   305.75673     -25965.578     -26107.186      141.6079       6964.9779      80897.271    
     26800   298.37713     -25964.056     -26102.246      138.19011      7060.1881      80897.271    
     26900   304.3843      -25961.354     -26102.326      140.97227      7203.8168      80897.271    
     27000   298.37311     -25962.071     -26100.259      138.18825      7239.0934      80897.271    
     27100   298.36263     -25966.495     -26104.678      138.1834       6991.6003      80897.271    
     27200   298.97691     -25968.091     -26106.559      138.4679       7034.7112      80897.271    
     27300   296.39969     -25967.461     -26104.735      137.27429      7024.4657      80897.271    
     27400   293.43566     -25965.802     -26101.703      135.90153      7134.2571      80897.271    
     27500   302.6506      -25963.784     -26103.954      140.16933      7044.7635      80897.271    
     27600   304.11291     -25963.492     -26104.339      140.84658      7131.169       80897.271    
     27700   302.72653     -25964.451     -26104.655      140.20449      7039.4369      80897.271    
     27800   294.52856     -25968.443     -26104.85       136.40769      6979.9951      80897.271    
     27900   288.52327     -25972.024     -26105.65       133.62641      6957.8818      80897.271    
     28000   294.38831     -25969.252     -26105.594      136.34274      6880.9754      80897.271    
     28100   300.18251     -25966.297     -26105.324      139.02626      7004.7253      80897.271    
     28200   306.31854     -25964.332     -26106.2        141.86809      6929.5481      80897.271    
     28300   296.99538     -25964.159     -26101.709      137.55017      7132.7908      80897.271    
     28400   297.96649     -25962.329     -26100.329      137.99993      7129.141       80897.271    
     28500   306.96702     -25959.441     -26101.61       142.16843      7102.4584      80897.271    
     28600   306.61952     -25960.918     -26102.925      142.00749      7089.2538      80897.271    
     28700   299.77231     -25966.046     -26104.883      138.83628      6989.5257      80897.271    
     28800   297.67496     -25966.843     -26104.708      137.86491      6990.178       80897.271    
     28900   298.08564     -25964.226     -26102.281      138.05511      7127.1242      80897.271    
     29000   301.1623      -25961.867     -26101.347      139.48004      7167.0356      80897.271    
     29100   302.40606     -25962.839     -26102.895      140.05607      7080.5448      80897.271    
     29200   301.45178     -25964.658     -26104.272      139.61411      7034.895       80897.271    
     29300   299.92027     -25965.027     -26103.931      138.90481      7095.7971      80897.271    
     29400   296.3199      -25964.998     -26102.235      137.23733      7067.344       80897.271    
     29500   295.44601     -25967.018     -26103.851      136.8326       7022.9102      80897.271    
     29600   304.4011      -25965.719     -26106.699      140.98005      7003.1737      80897.271    
     29700   296.06094     -25964.079     -26101.196      137.1174       7179.4911      80897.271    
     29800   298.44036     -25961.756     -26099.976      138.2194       7139.3039      80897.271    
     29900   308.52829     -25960.071     -26102.963      142.89151      7114.196       80897.271    
     30000   296.90364     -25963.905     -26101.413      137.50769      7138.7649      80897.271    
     30100   297.40737     -25967.236     -26104.977      137.74098      7006.6078      80897.271    
     30200   297.18555     -25966.882     -26104.52       137.63825      7004.6271      80897.271    
     30300   297.54925     -25965.638     -26103.445      137.80669      7045.8631      80897.271    
     30400   300.61248     -25964.165     -26103.391      139.22539      7120.6712      80897.271    
     30500   307.08655     -25963.208     -26105.432      142.22379      7046.5571      80897.271    
     30600   297.04948     -25963.383     -26100.958      137.57523      7175.1684      80897.271    
     30700   296.78914     -25964.134     -26101.589      137.45466      7148.8659      80897.271    
     30800   299.80002     -25964.686     -26103.535      138.84911      7082.2858      80897.271    
     30900   301.21567     -25963.915     -26103.42       139.50475      7189.5017      80897.271    
     31000   303.42015     -25961.182     -26101.708      140.52574      7228.7399      80897.271    
     31100   299.81971     -25960.751     -26099.609      138.85823      7190.4228      80897.271    
     31200   304.14141     -25963.202     -26104.062      140.85978      7046.8953      80897.271    
     31300   298.12886     -25967.078     -26105.153      138.07513      7045.6723      80897.271    
     31400   296.84582     -25967.638     -26105.119      137.48091      6921.7866      80897.271    
     31500   297.66538     -25966.148     -26104.008      137.86047      7074.4987      80897.271    
     31600   303.35905     -25964.14      -26104.637      140.49744      7113.9125      80897.271    
     31700   295.53055     -25964.115     -26100.987      136.87175      7189.9966      80897.271    
     31800   302.51615     -25962.865     -26102.973      140.10706      7179.2668      80897.271    
     31900   301.7344      -25963.843     -26103.588      139.745        7091.2254      80897.271    
     32000   290.9796      -25968.864     -26103.628      134.76403      6937.0192      80897.271    
     32100   296.09174     -25968.821     -26105.952      137.13166      6934.6196      80897.271    
     32200   298.72539     -25966.405     -26104.757      138.35141      7056.1453      80897.271    
     32300   302.36958     -25964.623     -26104.662      140.03917      7061.1005      80897.271    
     32400   296.42963     -25964.363     -26101.651      137.28815      7119.8315      80897.271    
     32500   300.53766     -25962.623     -26101.814      139.19074      7193.1759      80897.271    
     32600   302.67293     -25961.612     -26101.792      140.17967      7174.4172      80897.271    
     32700   299.25459     -25964.328     -26102.925      138.5965       7128.7246      80897.271    
     32800   296.2488      -25967.343     -26104.547      137.2044       7033.5033      80897.271    
     32900   299.25094     -25966.495     -26105.089      138.59481      7066.7192      80897.271    
     33000   300.59647     -25963.148     -26102.366      139.21798      7159.6197      80897.271    
     33100   308.27149     -25959.158     -26101.93       142.77258      7171.5584      80897.271    
     33200   304.568       -25960.459     -26101.517      141.05735      7258.8166      80897.271    
     33300   298.87364     -25962.135     -26100.555      138.42007      7210.6671      80897.271    
     33400   300.03736     -25963.121     -26102.08       138.95903      7161.9953      80897.271    
     33500   298.00401     -25965.6       -26103.618      138.01731      7095.7172      80897.271    
     33600   295.55286     -25968.677     -26105.559      136.88208      6965.663       80897.271    
     33700   299.34597     -25968.576     -26107.214      138.63882      6919.0892      80897.271    
     33800   298.27389     -25963.023     -26101.165      138.1423       7197.0473      80897.271    
     33900   306.75461     -25960.498     -26102.568      142.07005      7264.7287      80897.271    
     34000   300.80533     -25962.909     -26102.223      139.31471      7088.6488      80897.271    
     34100   300.60958     -25965.268     -26104.492      139.22405      7030.9685      80897.271    
     34200   299.14462     -25966.271     -26104.817      138.54557      7000.4355      80897.271    
     34300   299.9064      -25965.409     -26104.308      138.89838      7010.9694      80897.271    
     34400   305.51277     -25959.721     -26101.216      141.49491      7244.5024      80897.271    
     34500   302.81067     -25959.693     -26099.937      140.24346      7228.3228      80897.271    
     34600   300.31379     -25963.048     -26102.135      139.08706      7176.6262      80897.271    
     34700   299.91305     -25966.386     -26105.287      138.90146      7068.0633      80897.271    
     34800   302.25131     -25966.414     -26106.399      139.9844       6900.9196      80897.271    
     34900   295.91337     -25965.336     -26102.386      137.04905      7133.1954      80897.271    
     35000   304.04906     -25961.827     -26102.644      140.81701      7191.6613      80897.271    
     35100   295.89525     -25961.749     -26098.79       137.04066      7217.4381      80897.271    
     35200   302.01714     -25962.409     -26102.284      139.87595      7151.3293      80897.271    
     35300   303.22879     -25962.991     -26103.428      140.43711      7074.3878      80897.271    
     35400   300.20399     -25964.137     -26103.173      139.0362       6984.6952      80897.271    
     35500   299.10866     -25965.517     -26104.046      138.52892      7075.005       80897.271    
     35600   290.28083     -25968.467     -26102.907      134.4404       7021.4969      80897.271    
     35700   301.29534     -25967.54      -26107.082      139.54165      6820.1733      80897.271    
     35800   302.69025     -25962.745     -26102.933      140.18769      7136.9286      80897.271    
     35900   304.3619      -25960.959     -26101.921      140.9619       7204.7765      80897.271    
     36000   301.57896     -25962.419     -26102.092      139.67301      7189.7025      80897.271    
     36100   293.50985     -25965.476     -26101.411      135.93589      7142.5751      80897.271    
     36200   308.99616     -25965.432     -26108.54       143.1082       7001.0126      80897.271    
     36300   292.82952     -25966.372     -26101.992      135.6208       7048.5988      80897.271    
     36400   297.35766     -25964.954     -26102.672      137.71796      7124.5825      80897.271    
     36500   303.00574     -25964.522     -26104.856      140.33381      7051.4204      80897.271    
     36600   300.78465     -25964.314     -26103.619      139.30513      7064.6535      80897.271    
     36700   297.26681     -25963.942     -26101.618      137.67588      7071.3272      80897.271    
     36800   299.83138     -25964.181     -26103.045      138.86363      7162.9894      80897.271    
     36900   303.16579     -25964.054     -26104.462      140.40793      7077.0298      80897.271    
     37000   300.54546     -25964.885     -26104.079      139.19436      7008.4499      80897.271    
     37100   298.67615     -25966.495     -26104.824      138.3286       7031.2323      80897.271    
     37200   294.23404     -25967.847     -26104.118      136.27129      6963.8461      80897.271    
     37300   303.98413     -25963.999     -26104.786      140.78693      7029.5404      80897.271    
     37400   299.96588     -25961.987     -26100.913      138.92593      7205.1747      80897.271    
     37500   305.18523     -25961.525     -26102.869      141.34321      7102.9235      80897.271    
     37600   299.69466     -25964.434     -26103.234      138.80032      7121.7364      80897.271    
     37700   290.02193     -25970.586     -26104.907      134.3205       7003.2226      80897.271    
     37800   299.09777     -25968.548     -26107.072      138.52387      6978.8576      80897.271    
     37900   307.13787     -25964.078     -26106.326      142.24756      7064.7387      80897.271    
     38000   292.89058     -25963.306     -26098.955      135.64908      7221.7009      80897.271    
     38100   301.74438     -25961.699     -26101.449      139.74962      7168.8645      80897.271    
     38200   301.32144     -25964.185     -26103.738      139.55374      7083.0801      80897.271    
     38300   300.09485     -25967.441     -26106.426      138.98566      6988.8998      80897.271    
     38400   295.05312     -25967.025     -26103.676      136.65064      7046.5471      80897.271    
     38500   295.36611     -25965.107     -26101.903      136.79559      7145.7522      80897.271    
     38600   302.41616     -25964.34      -26104.401      140.06075      7090.0111      80897.271    
     38700   301.53455     -25963.824     -26103.477      139.65244      7070.4074      80897.271    
     38800   300.28934     -25963.65      -26102.726      139.07573      7128.6364      80897.271    
     38900   295.6543      -25964.208     -26101.137      136.92907      7117.7499      80897.271    
     39000   303.58102     -25963.58      -26104.181      140.60024      7104.4891      80897.271    
     39100   298.45008     -25966.471     -26104.695      138.2239       7000.2424      80897.271    
     39200   295.87911     -25968.088     -26105.122      137.03319      6984.0297      80897.271    
     39300   298.54402     -25966.283     -26104.551      138.26741      7034.5295      80897.271    
     39400   296.30192     -25963.809     -26101.038      137.229        7094.8365      80897.271    
     39500   306.83451     -25960.506     -26102.613      142.10706      7219.3627      80897.271    
     39600   303.98784     -25961.544     -26102.333      140.78866      7124.8956      80897.271    
     39700   299.27561     -25965.081     -26103.687      138.60623      7025.2318      80897.271    
     39800   290.82666     -25969.741     -26104.434      134.6932       6952.5118      80897.271    
     39900   293.16258     -25972.168     -26107.943      135.77505      6858.8065      80897.271    
     40000   292.1389      -25970.54      -26105.841      135.30095      6863.4656      80897.271    
     40100   298.66407     -25966.356     -26104.679      138.32301      7054.6199      80897.271    
     40200   302.31262     -25962.767     -26102.78       140.01279      7090.6608      80897.271    
     40300   298.51293     -25961.681     -26099.934      138.25301      7215.3518      80897.271    
     40400   303.59024     -25962.098     -26102.702      140.60451      7151.3797      80897.271    
     40500   300.27231     -25966.226     -26105.294      139.06785      6909.8478      80897.271    
     40600   297.20196     -25967.726     -26105.372      137.64585      6954.7585      80897.271    
     40700   297.29993     -25966.634     -26104.325      137.69122      7103.668       80897.271    
     40800   293.22361     -25965.48      -26101.284      135.80332      7073.573       80897.271    
     40900   305.14812     -25963.854     -26105.18       141.32603      7071.5031      80897.271    
     41000   301.10916     -25964.444     -26103.9        139.45543      7003.9726      80897.271    
     41100   306.60043     -25963.674     -26105.672      141.99865      7080.4066      80897.271    
     41200   289.26633     -25965.205     -26099.175      133.97055      7176.9234      80897.271    
     41300   301.72327     -25966.673     -26106.413      139.73984      6978.9886      80897.271    
     41400   296.41604     -25968.354     -26105.636      137.28186      6914.1381      80897.271    
     41500   301.36185     -25965.398     -26104.971      139.57246      7075.2433      80897.271    
     41600   299.49895     -25961.951     -26100.661      138.70967      7181.3489      80897.271    
     41700   304.57107     -25960.62      -26101.679      141.05877      7238.195       80897.271    
     41800   303.00077     -25962.448     -26102.779      140.3315       7103.9586      80897.271    
     41900   299.69202     -25963.596     -26102.395      138.79909      7074.5417      80897.271    
     42000   299.07314     -25964.823     -26103.335      138.51247      7021.2484      80897.271    
     42100   293.40219     -25966.462     -26102.348      135.88603      7108.3603      80897.271    
     42200   299.48831     -25965.609     -26104.314      138.70475      7060.6651      80897.271    
     42300   305.9399      -25962.526     -26104.219      141.69273      7165.542       80897.271    
     42400   302.40542     -25961.477     -26101.533      140.05577      7128.9529      80897.271    
     42500   298.33456     -25962.89      -26101.061      138.1704       7169.1114      80897.271    
     42600   301.11912     -25965.904     -26105.364      139.46004      6975.7629      80897.271    
     42700   295.12829     -25969.402     -26106.088      136.68545      6908.0631      80897.271    
     42800   299.01078     -25967.173     -26105.657      138.48358      6970.2126      80897.271    
     42900   300.77551     -25964.677     -26103.978      139.3009       7038.4684      80897.271    
     43000   303.39305     -25963.747     -26104.26       140.51318      7056.8669      80897.271    
     43100   299.54719     -25963.784     -26102.516      138.73202      7133.359       80897.271    
     43200   299.47423     -25962.512     -26101.21       138.69823      7209.4748      80897.271    
     43300   305.96044     -25960.528     -26102.23       141.70224      7113.7434      80897.271    
     43400   305.99162     -25961.764     -26103.48       141.71668      7047.3323      80897.271    
     43500   298.91112     -25965.51      -26103.948      138.43743      7057.6206      80897.271    
     43600   293.48669     -25967.687     -26103.612      135.92516      6983.4138      80897.271    
     43700   298.48014     -25966.321     -26104.559      138.23782      7000.6754      80897.271    
     43800   304.05204     -25962.247     -26103.066      140.81839      7192.9946      80897.271    
     43900   301.48954     -25961.068     -26100.699      139.6316       7174.1238      80897.271    
     44000   301.4279      -25961.764     -26101.367      139.60305      7243.0151      80897.271    
     44100   303.17309     -25963.834     -26104.245      140.41131      7048.0608      80897.271    
     44200   297.93291     -25966.673     -26104.657      137.98438      7019.281       80897.271    
     44300   294.00909     -25967.602     -26103.769      136.1671       7103.1801      80897.271    
     44400   297.95105     -25963.861     -26101.854      137.99278      7151.089       80897.271    
     44500   308.45056     -25960.214     -26103.069      142.85552      7076.5481      80897.271    
     44600   299.82801     -25962.901     -26101.763      138.86208      7191.5001      80897.271    
     44700   300.43513     -25965.2       -26104.343      139.14325      6977.4076      80897.271    
     44800   294.22152     -25967.941     -26104.206      136.26549      7105.8216      80897.271    
     44900   296.41213     -25966.824     -26104.104      137.28005      7015.4864      80897.271    
     45000   305.38257     -25962.047     -26103.481      141.43461      7204.6868      80897.271    
     45100   297.05693     -25962.155     -26099.734      137.57868      7243.9419      80897.271    
     45200   302.47033     -25962.472     -26102.558      140.08584      7178.4296      80897.271    
     45300   298.7627      -25966.149     -26104.517      138.36869      7087.1173      80897.271    
     45400   298.47903     -25967.009     -26105.246      138.23731      6986.0974      80897.271    
     45500   296.12499     -25966.331     -26103.478      137.14706      6982.0735      80897.271    
     45600   299.90442     -25964.624     -26103.521      138.89746      7079.0466      80897.271    
     45700   298.45354     -25964.744     -26102.97       138.2255       7115.7987      80897.271    
     45800   302.72835     -25964.321     -26104.527      140.20533      7028.3891      80897.271    
     45900   297.81829     -25963.568     -26101.5        137.9313       7131.7771      80897.271    
     46000   304.76495     -25960.091     -26101.239      141.14856      7224.8192      80897.271    
     46100   301.53822     -25960.039     -26099.693      139.65414      7195.4376      80897.271    
     46200   301.05539     -25965.259     -26104.69       139.43052      7050.9524      80897.271    
     46300   298.14557     -25967.326     -26105.409      138.08287      6965.4616      80897.271    
     46400   298.51053     -25966.17      -26104.421      138.2519       6982.3345      80897.271    
     46500   302.05538     -25963.63      -26103.524      139.89366      7081.8115      80897.271    
     46600   299.38921     -25962.052     -26100.711      138.65885      7129.6409      80897.271    
     46700   306.50253     -25956.816     -26098.77       141.9533       7356.1907      80897.271    
     46800   304.6857      -25956.802     -26097.914      141.11186      7332.2093      80897.271    
     46900   304.47976     -25960.96      -26101.976      141.01648      7105.066       80897.271    
     47000   307.7563      -25963.229     -26105.763      142.53398      7034.4543      80897.271    
     47100   294.85452     -25965.886     -26102.444      136.55866      7027.4418      80897.271    
     47200   299.02134     -25965.51      -26103.998      138.48847      7110.4854      80897.271    
     47300   302.63267     -25964.1       -26104.261      140.16102      7033.1428      80897.271    
     47400   299.4398      -25961.228     -26099.91       138.68228      7189.1318      80897.271    
     47500   308.92643     -25958.774     -26101.85       143.07591      7284.2392      80897.271    
     47600   301.84785     -25962.542     -26102.34       139.79754      7134.5024      80897.271    
     47700   297.5438      -25966.489     -26104.294      137.80417      6943.259       80897.271    
     47800   299.95948     -25966.389     -26105.312      138.92296      6990.3172      80897.271    
     47900   299.45933     -25964.825     -26103.516      138.69133      7181.4132      80897.271    
     48000   302.2935      -25961.087     -26101.091      140.00394      7181.1012      80897.271    
     48100   304.20126     -25959.171     -26100.058      140.8875       7236.1325      80897.271    
     48200   301.90076     -25961.798     -26101.62       139.82205      7144.6056      80897.271    
     48300   302.17958     -25964.771     -26104.722      139.95118      7059.3413      80897.271    
     48400   297.42515     -25965.416     -26103.165      137.74922      6974.9129      80897.271    
     48500   298.70293     -25964.701     -26103.042      138.34101      7059.291       80897.271    
     48600   306.55992     -25962.794     -26104.774      141.97988      7143.2265      80897.271    
     48700   304.5803      -25962.167     -26103.23       141.06305      7130.7155      80897.271    
     48800   296.47824     -25964.198     -26101.509      137.31066      7129.2941      80897.271    
     48900   295.78714     -25967.794     -26104.784      136.99059      6937.1167      80897.271    
     49000   300.80862     -25968.332     -26107.648      139.31623      6908.3031      80897.271    
     49100   295.81905     -25965.69      -26102.695      137.00537      7045.5902      80897.271    
     49200   302.96354     -25960.577     -26100.891      140.31426      7178.8606      80897.271    
     49300   305.49953     -25961.579     -26103.067      141.48878      7117.3756      80897.271    
     49400   297.77641     -25964.776     -26102.688      137.9119       7035.0963      80897.271    
     49500   300.55764     -25965.908     -26105.108      139.2          7025.7931      80897.271    
     49600   295.5491      -25967.11      -26103.99       136.88034      6973.1119      80897.271    
     49700   305.6297      -25964.386     -26105.935      141.54906      7069.4704      80897.271    
     49800   298.90766     -25962.142     -26100.578      138.43583      7215.0571      80897.271    
     49900   303.19472     -25959.719     -26100.14       140.42133      7160.5657      80897.271    
     50000   309.76193     -25959.568     -26103.031      143.46286      7129.0304      80897.271    
     50100   297.30931     -25965.354     -26103.05       137.69557      6961.6441      80897.271    
     50200   300.17679     -25965.866     -26104.89       139.02361      6980.0277      80897.271    
     50300   294.63782     -25965.205     -26101.663      136.45829      7073.0539      80897.271    
     50400   306.0597      -25962.034     -26103.782      141.74821      7033.9407      80897.271    
     50500   302.64338     -25961.503     -26101.669      140.16598      7057.6246      80897.271    
     50600   302.97587     -25961.718     -26102.038      140.31997      7146.3252      80897.271    
     50700   301.38466     -25965.249     -26104.832      139.58302      7034.503       80897.271    
     50800   293.50732     -25968.484     -26104.419      135.93471      6995.7638      80897.271    
     50900   300.24186     -25967.693     -26106.747      139.05375      6930.0767      80897.271    
     51000   301.98284     -25963.678     -26103.538      139.86006      7058.1818      80897.271    
     51100   300.93038     -25961.726     -26101.098      139.37263      7148.8963      80897.271    
     51200   299.72645     -25963.309     -26102.124      138.81504      7110.9038      80897.271    
     51300   302.28001     -25964.589     -26104.586      139.99769      7004.7913      80897.271    
     51400   292.3942      -25966.681     -26102.1        135.41919      7026.4576      80897.271    
     51500   296.18383     -25968.562     -26105.736      137.17431      6909.4746      80897.271    
     51600   296.51266     -25969.015     -26106.341      137.32661      6900.4289      80897.271    
     51700   295.90901     -25965.259     -26102.306      137.04703      7094.0509      80897.271    
     51800   308.48741     -25962.197     -26105.07       142.87258      7055.1839      80897.271    
     51900   295.43442     -25963.538     -26100.366      136.82723      7208.8334      80897.271    
     52000   297.86548     -25964.23      -26102.183      137.95315      7147.0031      80897.271    
     52100   297.27943     -25967.375     -26105.057      137.68173      7002.8391      80897.271    
     52200   298.65377     -25969.959     -26108.277      138.31824      6850.3809      80897.271    
     52300   294.64857     -25969.581     -26106.044      136.46327      6986.3444      80897.271    
     52400   295.80165     -25964.38      -26101.377      136.99731      7190.0923      80897.271    
     52500   304.02382     -25962.073     -26102.878      140.80532      7088.6205      80897.271    
     52600   304.95478     -25963.21      -26104.447      141.23648      7086.9476      80897.271    
     52700   298.22816     -25965.568     -26103.689      138.12112      7039.912       80897.271    
     52800   295.76859     -25966.102     -26103.084      136.982        7111.4819      80897.271    
     52900   297.68369     -25966.431     -26104.3        137.86896      7118.9284      80897.271    
     53000   302.10083     -25965.338     -26105.253      139.91471      6898.1838      80897.271    
     53100   299.26812     -25962.666     -26101.269      138.60277      7160.9611      80897.271    
     53200   305.68808     -25960.375     -26101.951      141.5761       7212.9984      80897.271    
     53300   297.36294     -25963.367     -26101.088      137.7204       7200.2254      80897.271    
     53400   295.90844     -25966.612     -26103.659      137.04677      7016.0381      80897.271    
     53500   304.80681     -25966.023     -26107.191      141.16795      7013.5082      80897.271    
     53600   299.14756     -25965.737     -26104.284      138.54693      7001.1824      80897.271    
     53700   294.89118     -25963.605     -26100.18       136.57564      7172.141       80897.271    
     53800   308.19031     -25959.509     -26102.244      142.73498      7199.8819      80897.271    
     53900   304.14876     -25960.61      -26101.473      140.86318      7242.7398      80897.271    
     54000   302.21214     -25962.764     -26102.731      139.96626      7054.4459      80897.271    
     54100   298.84667     -25964.52      -26102.928      138.40758      7087.7256      80897.271    
     54200   298.26223     -25965.51      -26103.647      138.1369       7058.967       80897.271    
     54300   299.5913      -25965.272     -26104.025      138.75244      6974.8902      80897.271    
     54400   309.01233     -25961.097     -26104.213      143.11569      7172.1114      80897.271    
     54500   302.91367     -25958.712     -26099.003      140.29116      7198.6712      80897.271    
     54600   304.0903      -25959.966     -26100.802      140.83611      7222.6921      80897.271    
     54700   300.58487     -25965.664     -26104.877      139.21261      7050.7129      80897.271    
     54800   297.6681      -25966.595     -26104.457      137.86174      7022.6297      80897.271    
     54900   299.14193     -25965.04      -26103.585      138.54432      7089.8444      80897.271    
     55000   301.3003      -25962.808     -26102.351      139.54395      7120.3799      80897.271    
     55100   304.69718     -25960.381     -26101.498      141.11718      7203.2104      80897.271    
     55200   308.44755     -25959.272     -26102.126      142.85412      7144.1544      80897.271    
     55300   295.67456     -25964.777     -26101.715      136.93845      7133.7605      80897.271    
     55400   296.71838     -25966.817     -26104.239      137.42188      7041.5529      80897.271    
     55500   301.61839     -25966.473     -26106.165      139.69127      6915.1047      80897.271    
     55600   304.90747     -25963.093     -26104.307      141.21457      7052.2499      80897.271    
     55700   301.99947     -25961.162     -26101.03       139.86776      7153.9057      80897.271    
     55800   297.76729     -25962.64      -26100.548      137.90767      7164.8346      80897.271    
     55900   303.65927     -25963.829     -26104.466      140.63648      7133.7342      80897.271    
     56000   298.09333     -25965.114     -26103.173      138.05868      7065.8999      80897.271    
     56100   303.23497     -25964.377     -26104.817      140.43997      7001.129       80897.271    
     56200   295.06269     -25965.21      -26101.865      136.65507      7149.2749      80897.271    
     56300   300.52848     -25964.985     -26104.172      139.18649      6995.5361      80897.271    
     56400   302.76143     -25964.162     -26104.383      140.22066      7008.5393      80897.271    
     56500   298.33858     -25964.26      -26102.433      138.17226      7050.0274      80897.271    
     56600   298.99081     -25964.184     -26102.659      138.47433      7104.7672      80897.271    
     56700   302.49724     -25964.444     -26104.542      140.0983       7029.3524      80897.271    
     56800   299.70168     -25966.274     -26105.078      138.80356      6994.4388      80897.271    
     56900   296.68235     -25967.696     -26105.101      137.4052       7014.126       80897.271    
     57000   298.80927     -25965.995     -26104.385      138.39025      7022.7345      80897.271    
     57100   304.87981     -25961.9       -26103.102      141.20176      7097.7617      80897.271    
     57200   302.37333     -25960.574     -26100.615      140.04091      7177.3515      80897.271    
     57300   296.58        -25962.028     -26099.386      137.35779      7192.5555      80897.271    
     57400   300.06158     -25967.475     -26106.445      138.97025      6874.1004      80897.271    
     57500   293.11532     -25969.277     -26105.031      135.75317      6959.8116      80897.271    
     57600   305.29671     -25965.496     -26106.89       141.39485      6984.7194      80897.271    
     57700   293.97487     -25963.645     -26099.796      136.15126      7131.5015      80897.271    
     57800   303.12288     -25961.139     -26101.527      140.38806      7182.2117      80897.271    
     57900   302.70074     -25962.576     -26102.769      140.19255      7061.2128      80897.271    
     58000   300.44594     -25966.724     -26105.872      139.14826      6915.1129      80897.271    
     58100   298.08922     -25968.377     -26106.434      138.05677      6955.3564      80897.271    
     58200   288.90933     -25967.344     -26101.15       133.80521      7139.8799      80897.271    
     58300   302.74953     -25963.662     -26103.877      140.21514      7130.4769      80897.271    
     58400   303.29419     -25962.957     -26103.425      140.4674       7064.3861      80897.271    
     58500   298.89757     -25964.05      -26102.481      138.43115      7160.8119      80897.271    
     58600   297.68648     -25966.725     -26104.596      137.87025      7039.9201      80897.271    
     58700   298.78161     -25969.407     -26107.785      138.37745      6922.8048      80897.271    
     58800   293.03408     -25969.254     -26104.97       135.71554      6993.2296      80897.271    
     58900   298.94861     -25963.712     -26102.166      138.45479      7183.1586      80897.271    
     59000   302.96224     -25961.91      -26102.223      140.31366      7221.4677      80897.271    
     59100   302.84501     -25962.514     -26102.774      140.25937      7162.123       80897.271    
     59200   299.49263     -25965.723     -26104.43       138.70674      7101.0176      80897.271    
     59300   295.86596     -25968.749     -26105.776      137.02709      7004.2037      80897.271    
     59400   296.96602     -25967.548     -26105.085      137.53658      6881.6913      80897.271    
     59500   299.20769     -25966.038     -26104.613      138.57478      7171.457       80897.271    
     59600   298.56493     -25964.702     -26102.979      138.27709      7080.9508      80897.271    
     59700   301.93362     -25962.589     -26102.426      139.83727      7128.2368      80897.271    
     59800   304.24803     -25961.714     -26102.624      140.90916      7221.1427      80897.271    
     59900   298.7206      -25963.473     -26101.822      138.34919      7121.4117      80897.271    
     60000   297.85385     -25967.718     -26105.666      137.94777      6969.4527      80897.271    
     60100   297.48973     -25968.627     -26106.406      137.77913      6993.6954      80897.271    
     60200   300.77676     -25965.778     -26105.079      139.30148      6946.4905      80897.271    
     60300   302.34264     -25963.467     -26103.494      140.0267       7085.5634      80897.271    
     60400   299.51476     -25962.921     -26101.638      138.717        7080.6358      80897.271    
     60500   301.48555     -25963.31      -26102.939      139.62975      7065.4977      80897.271    
     60600   301.5928      -25965.206     -26104.885      139.67942      7006.5268      80897.271    
     60700   292.23396     -25969.329     -26104.674      135.34497      7012.8377      80897.271    
     60800   296.75554     -25970.738     -26108.177      137.43909      6873.9991      80897.271    
     60900   295.0516      -25965.615     -26102.265      136.64993      7116.6872      80897.271    
     61000   302.5492      -25962.302     -26102.424      140.12236      7042.2988      80897.271    
     61100   304.31807     -25961.427     -26102.368      140.9416       7113.2339      80897.271    
     61200   299.63063     -25962.515     -26101.285      138.77066      7228.7681      80897.271    
     61300   300.02072     -25966.363     -26105.315      138.95132      6954.5738      80897.271    
     61400   296.00562     -25967.511     -26104.602      137.09178      7005.0417      80897.271    
     61500   297.32204     -25966.057     -26103.759      137.70146      7141.9107      80897.271    
     61600   300.61299     -25964.541     -26103.767      139.22563      7097.3998      80897.271    
     61700   306.21852     -25962.654     -26104.476      141.82177      7064.5745      80897.271    
     61800   307.40262     -25957.798     -26100.169      142.37017      7188.4431      80897.271    
     61900   299.83761     -25957.62      -26096.487      138.86652      7388.103       80897.271    
     62000   302.66436     -25961.706     -26101.881      140.1757       7149.4747      80897.271    
     62100   302.76035     -25964.43      -26104.65       140.22015      7030.3066      80897.271    
     62200   297.77256     -25966.542     -26104.452      137.91011      7007.803       80897.271    
     62300   298.35841     -25966.178     -26104.36       138.18145      7002.4656      80897.271    
     62400   301.32761     -25961.831     -26101.388      139.5566       7160.1164      80897.271    
     62500   305.28206     -25959.322     -26100.71       141.38806      7178.5785      80897.271    
     62600   303.68419     -25961.29      -26101.938      140.64802      7141.3067      80897.271    
     62700   303.25666     -25963.719     -26104.169      140.45002      7067.571       80897.271    
     62800   300.5643      -25965.358     -26104.561      139.20308      7008.9099      80897.271    
     62900   297.37091     -25966.09      -26103.814      137.7241       7016.9834      80897.271    
     63000   300.4049      -25963.612     -26102.741      139.12926      7049.7782      80897.271    
     63100   304.12307     -25959.986     -26100.837      140.85128      7136.0372      80897.271    
     63200   306.7272      -25961.122     -26103.179      142.05736      7075.1688      80897.271    
     63300   298.29205     -25964.858     -26103.009      138.15071      7027.661       80897.271    
     63400   296.23318     -25966.423     -26103.621      137.19717      7041.6458      80897.271    
     63500   302.11602     -25965.548     -26105.47       139.92174      6931.4769      80897.271    
     63600   297.40431     -25964.441     -26102.181      137.73957      7099.9528      80897.271    
     63700   302.23089     -25962.641     -26102.616      139.97494      7121.0094      80897.271    
     63800   297.9232      -25964.035     -26102.014      137.97988      7042.5931      80897.271    
     63900   294.78295     -25969.177     -26105.703      136.52551      6906.1306      80897.271    
     64000   299.45213     -25968.954     -26107.642      138.68799      6879.7392      80897.271    
     64100   298.41689     -25965.382     -26103.59       138.20853      7091.05        80897.271    
     64200   298.16252     -25962.218     -26100.309      138.09072      7210.4555      80897.271    
     64300   303.29235     -25962.178     -26102.645      140.46655      7153.1102      80897.271    
     64400   301.88201     -25964.883     -26104.697      139.81336      7006.2876      80897.271    
     64500   299.18361     -25966.619     -26105.183      138.56363      7049.089       80897.271    
     64600   296.18366     -25965.365     -26102.539      137.17423      7164.8081      80897.271    
     64700   302.46981     -25962.075     -26102.16       140.0856       7228.292       80897.271    
     64800   301.13412     -25961.801     -26101.268      139.46699      7139.9795      80897.271    
     64900   304.93256     -25962.57      -26103.797      141.22619      7050.0074      80897.271    
     65000   298.96948     -25965.309     -26103.774      138.46445      7033.6934      80897.271    
     65100   296.61189     -25966.921     -26104.294      137.37256      6970.3362      80897.271    
     65200   298.60966     -25966.512     -26104.81       138.29781      7039.3992      80897.271    
     65300   301.76803     -25963.473     -26103.234      139.76057      7085.5204      80897.271    
     65400   304.81122     -25960.498     -26101.668      141.16999      7182.3495      80897.271    
     65500   298.0456      -25961.845     -26099.882      138.03657      7213.7636      80897.271    
     65600   300.18587     -25964.177     -26103.204      139.02781      7006.6047      80897.271    
     65700   292.70544     -25970.567     -26106.13       135.56333      6832.9163      80897.271    
     65800   297.71169     -25969.461     -26107.343      137.88193      6969.5599      80897.271    
     65900   296.41187     -25966.169     -26103.449      137.27993      7048.5727      80897.271    
     66000   297.21509     -25962.983     -26100.635      137.65193      7107.6733      80897.271    
     66100   311.69612     -25959.98      -26104.339      144.35866      7131.1951      80897.271    
     66200   300.09243     -25962.726     -26101.71       138.98454      7129.1043      80897.271    
     66300   297.83986     -25964.346     -26102.287      137.94128      7128.3687      80897.271    
     66400   300.10799     -25964.865     -26103.856      138.99174      7056.3714      80897.271    
     66500   302.6078      -25965.432     -26105.581      140.1495       6890.0147      80897.271    
     66600   294.51369     -25967.037     -26103.438      136.4008       7036.7463      80897.271    
     66700   293.06393     -25967.94      -26103.669      135.72937      7013.2172      80897.271    
     66800   300.76088     -25965.299     -26104.593      139.29412      7035.6576      80897.271    
     66900   301.64749     -25962.422     -26102.127      139.70475      7081.3768      80897.271    
     67000   301.91406     -25961.78      -26101.608      139.82821      7199.8131      80897.271    
     67100   297.70894     -25964.107     -26101.987      137.88065      7128.978       80897.271    
     67200   292.5758      -25969.044     -26104.547      135.50329      6930.2958      80897.271    
     67300   301.94123     -25968.264     -26108.105      139.84079      6826.7214      80897.271    
     67400   295.03917     -25965.271     -26101.915      136.64418      7053.7834      80897.271    
     67500   305.40119     -25963.426     -26104.869      141.44323      7067.9068      80897.271    
     67600   290.88901     -25965.653     -26100.375      134.72208      7108.4989      80897.271    
     67700   306.47779     -25964.338     -26106.28       141.94185      7007.0537      80897.271    
     67800   297.44587     -25964.906     -26102.665      137.75881      7055.309       80897.271    
     67900   302.87719     -25962.87      -26103.145      140.27427      7075.6085      80897.271    
     68000   298.73504     -25961.911     -26100.267      138.35588      7257.4483      80897.271    
     68100   306.12752     -25962.219     -26103.999      141.77963      7063.0031      80897.271    
     68200   296.87021     -25965.626     -26103.119      137.4922       6969.9161      80897.271    
     68300   295.06407     -25968.116     -26104.772      136.65571      7026.0281      80897.271    
     68400   297.69613     -25968.018     -26105.893      137.87472      6962.1117      80897.271    
     68500   299.31436     -25962.924     -26101.548      138.62418      7163.7433      80897.271    
     68600   300.85593     -25960.711     -26100.049      139.33815      7230.7512      80897.271    
     68700   308.36863     -25960.947     -26103.765      142.81757      7077.0075      80897.271    
     68800   302.40152     -25964.491     -26104.545      140.05397      7015.5965      80897.271    
     68900   291.80012     -25967.662     -26102.806      135.14404      7103.5073      80897.271    
     69000   297.96612     -25966.583     -26104.583      137.99976      7065.5267      80897.271    
     69100   298.52781     -25965.515     -26103.775      138.2599       6953.0214      80897.271    
     69200   304.9362      -25962.897     -26104.124      141.22788      7032.1656      80897.271    
     69300   299.11093     -25962.143     -26100.673      138.52997      7100.683       80897.271    
     69400   296.34421     -25964.082     -26101.33       137.24859      7160.5771      80897.271    
     69500   300.02586     -25969.234     -26108.188      138.95371      6809.3492      80897.271    
     69600   291.34801     -25970.574     -26105.509      134.93466      6962.2734      80897.271    
     69700   296.99211     -25966.499     -26104.048      137.54866      7064.6871      80897.271    
     69800   297.92712     -25964.27      -26102.252      137.9817       7138.0576      80897.271    
     69900   303.55946     -25962.482     -26103.072      140.59025      7048.0239      80897.271    
     70000   300.86743     -25962.958     -26102.302      139.34347      7036.8717      80897.271    
     70100   293.9866      -25966.964     -26103.12       136.15669      7118.4524      80897.271    
     70200   292.68452     -25969.625     -26105.178      135.55364      7004.4225      80897.271    
     70300   299.26049     -25967.279     -26105.879      138.59923      6861.691       80897.271    
     70400   302.633       -25961.68      -26101.841      140.16117      7130.7823      80897.271    
     70500   304.25032     -25961.782     -26102.692      140.91022      7148.9779      80897.271    
     70600   297.50404     -25964.365     -26102.151      137.78575      7029.7065      80897.271    
     70700   298.41075     -25966.43      -26104.636      138.20569      7004.5578      80897.271    
     70800   299.52667     -25968.136     -26106.858      138.72251      6882.2029      80897.271    
     70900   299.009       -25967.572     -26106.055      138.48276      6949.5713      80897.271    
     71000   296.76719     -25963.389     -26100.833      137.44449      7123.3894      80897.271    
     71100   304.69586     -25961.505     -26102.622      141.11657      7063.1385      80897.271    
     71200   298.0993      -25963.282     -26101.343      138.06144      7159.6271      80897.271    
     71300   303.62017     -25964.164     -26104.783      140.61837      7009.3755      80897.271    
     71400   293.69616     -25968.387     -26104.409      136.02218      6946.5275      80897.271    
     71500   291.43405     -25969.777     -26104.751      134.9745       6993.5138      80897.271    
     71600   304.81409     -25965.567     -26106.739      141.17132      7002.4302      80897.271    
     71700   297.14075     -25963.987     -26101.604      137.6175       7094.6132      80897.271    
     71800   307.14726     -25962.28      -26104.532      142.25191      7106.2083      80897.271    
     71900   294.83983     -25964.148     -26100.7        136.55185      7236.2962      80897.271    
     72000   299.48711     -25964.514     -26103.218      138.70419      7034.6554      80897.271    
     72100   299.02011     -25965.116     -26103.604      138.4879       7041.9106      80897.271    
     72200   302.34136     -25967.332     -26107.358      140.0261       6887.2167      80897.271    
     72300   292.35477     -25968.624     -26104.025      135.40092      6966.7127      80897.271    
     72400   300.27033     -25965.064     -26104.131      139.06693      6991.3683      80897.271    
     72500   296.4753      -25962.146     -26099.455      137.3093       7167.5009      80897.271    
     72600   306.22741     -25960.995     -26102.821      141.82589      7169.7465      80897.271    
     72700   301.62985     -25962.93      -26102.626      139.69658      7120.6481      80897.271    
     72800   298.64834     -25964.959     -26103.275      138.31572      7020.9609      80897.271    
     72900   300.85179     -25965.347     -26104.683      139.33622      7022.6661      80897.271    
     73000   297.39906     -25965.02      -26102.757      137.73713      7094.5424      80897.271    
     73100   295.20657     -25964.722     -26101.444      136.7217       7056.9388      80897.271    
     73200   305.90598     -25963.923     -26105.6        141.67702      7050.1369      80897.271    
     73300   297.70914     -25964.443     -26102.324      137.88074      7113.4938      80897.271    
     73400   302.95432     -25963.003     -26103.313      140.30999      7055.9048      80897.271    
     73500   299.19163     -25962.919     -26101.486      138.56734      7235.0079      80897.271    
     73600   296.35737     -25965.67      -26102.924      137.25468      7076.6244      80897.271    
     73700   295.28091     -25969.051     -26105.807      136.75614      6965.0551      80897.271    
     73800   297.19002     -25968.37      -26106.01       137.64032      6901.3591      80897.271    
     73900   300.73372     -25963.072     -26102.354      139.28155      7104.0603      80897.271    
     74000   302.14133     -25962.255     -26102.188      139.93346      7158.5859      80897.271    
     74100   297.3412      -25963.859     -26101.569      137.71034      7123.9619      80897.271    
     74200   302.88789     -25965.553     -26105.832      140.27922      7010.1434      80897.271    
     74300   295.74216     -25968.165     -26105.135      136.96976      6951.002       80897.271    
     74400   298.3553      -25966.889     -26105.069      138.18001      6939.6465      80897.271    
     74500   299.55337     -25961.962     -26100.697      138.73488      7155.1649      80897.271    
     74600   301.77932     -25960.425     -26100.191      139.7658       7210.9409      80897.271    
     74700   304.17168     -25961.98      -26102.854      140.8738       7108.5682      80897.271    
     74800   300.8081      -25964.669     -26103.985      139.31599      6970.9112      80897.271    
     74900   299.46614     -25965.743     -26104.438      138.69448      6986.9172      80897.271    
     75000   296.09444     -25965.79      -26102.923      137.13291      7063.0021      80897.271    
     75100   302.26309     -25964.628     -26104.618      139.98985      6959.529       80897.271    
     75200   302.16972     -25962.515     -26102.462      139.94661      7048.868       80897.271    
     75300   305.81033     -25959.626     -26101.259      141.63272      7237.7611      80897.271    
     75400   303.77087     -25962.2       -26102.888      140.68817      7110.2441      80897.271    
[...]
    181800   301.89006     -25962.597     -26102.414      139.81709      7096.4548      80897.271    
    181900   302.28866     -25961.526     -26101.528      140.0017       7216.349       80897.271    
    182000   302.01532     -25962.922     -26102.797      139.8751       7138.2699      80897.271    
    182100   301.23414     -25965         -26104.513      139.51331      7054.6259      80897.271    
    182200   300.41238     -25966.105     -26105.238      139.13272      6938.1309      80897.271    
    182300   293.02675     -25968.448     -26104.16       135.71215      6968.5222      80897.271    
    182400   295.03962     -25971.258     -26107.903      136.64438      6863.3146      80897.271    
    182500   293.42154     -25969.075     -26104.97       135.89499      6953.4299      80897.271    
    182600   300.55649     -25964.743     -26103.942      139.19946      7187.4545      80897.271    
    182700   299.2054      -25963.589     -26102.163      138.57372      7163.514       80897.271    
    182800   303.80809     -25962.792     -26103.498      140.7054       7039.8118      80897.271    
    182900   304.76094     -25963.619     -26104.765      141.14671      7078.3346      80897.271    
    183000   288.9348      -25967.956     -26101.773      133.81701      7080.7108      80897.271    
    183100   299.03306     -25967.248     -26105.742      138.4939       6969.6649      80897.271    
    183200   301.60926     -25964.607     -26104.295      139.68704      7046.9404      80897.271    
    183300   299.554       -25961.207     -26099.942      138.73517      7201.4796      80897.271    
    183400   302.40102     -25960.531     -26100.585      140.05374      7159.7067      80897.271    
    183500   300.67889     -25962.32      -26101.576      139.25615      7247.8817      80897.271    
    183600   299.84264     -25964.972     -26103.841      138.86885      7052.1008      80897.271    
    183700   300.34397     -25966.225     -26105.326      139.10104      6877.7269      80897.271    
    183800   297.64985     -25966.537     -26104.391      137.85328      7061.2102      80897.271    
    183900   298.57855     -25965.339     -26103.623      138.2834       6950.3769      80897.271    
    184000   301.06417     -25961.85      -26101.284      139.43459      7186.8265      80897.271    
    184100   305.65677     -25960.274     -26101.836      141.5616       7210.7902      80897.271    
    184200   305.75645     -25962.839     -26104.447      141.60777      7073.5151      80897.271    
    184300   293.02978     -25967.269     -26102.983      135.71355      7028.2189      80897.271    
    184400   298.25451     -25965.573     -26103.706      138.13333      7042.1577      80897.271    
    184500   298.71663     -25963.995     -26102.343      138.34735      7006.7969      80897.271    
    184600   302.85104     -25961.908     -26102.17       140.26216      7197.2279      80897.271    
    184700   305.94922     -25959.687     -26101.384      141.69705      7133.8857      80897.271    
    184800   295.68337     -25964.166     -26101.109      136.94253      7118.3667      80897.271    
    184900   297.51744     -25966.4       -26104.192      137.79196      7049.1018      80897.271    
    185000   301.01636     -25966.678     -26106.09       139.41244      6992.7796      80897.271    
    185100   297.9306      -25965.565     -26103.548      137.98331      6928.1929      80897.271    
    185200   305.24937     -25961.159     -26102.532      141.37292      7180.4874      80897.271    
    185300   304.03645     -25961.834     -26102.645      140.81117      7142.7084      80897.271    
    185400   300.65757     -25964.379     -26103.626      139.24628      7130.067       80897.271    
    185500   296.29644     -25965.789     -26103.015      137.22647      6976.8026      80897.271    
    185600   301.65252     -25964.797     -26104.504      139.70707      7089.2556      80897.271    
    185700   300.43897     -25964.748     -26103.893      139.14504      7036.6631      80897.271    
    185800   295.90271     -25964.475     -26101.519      137.04411      7193.116       80897.271    
    185900   300.9131      -25962.249     -26101.613      139.36462      7172.4786      80897.271    
    186000   303.48087     -25959.879     -26100.433      140.55386      7313.5146      80897.271    
    186100   311.25103     -25958.663     -26102.816      144.15252      7063.6051      80897.271    
    186200   298.12607     -25963.003     -26101.077      138.07384      7133.5382      80897.271    
    186300   296.50443     -25965.421     -26102.744      137.3228       7069.8047      80897.271    
    186400   298.13077     -25966.669     -26104.745      138.07602      7044.6569      80897.271    
    186500   303.53881     -25965.529     -26106.11       140.58069      6928.3313      80897.271    
    186600   302.48546     -25960.876     -26100.969      140.09284      7171.0156      80897.271    
    186700   302.27211     -25958.652     -26098.646      139.99404      7350.6254      80897.271    
    186800   305.42906     -25960.15      -26101.606      141.45614      7175.4776      80897.271    
    186900   300.18936     -25963.678     -26102.707      139.02943      7049.85        80897.271    
    187000   302.28007     -25964.637     -26104.635      139.99772      7049.3727      80897.271    
    187100   297.15141     -25965.257     -26102.879      137.62244      7086.8682      80897.271    
    187200   296.83045     -25965.879     -26103.353      137.47379      7137.0679      80897.271    
    187300   305.75479     -25964.08      -26105.687      141.607        7011.882       80897.271    
    187400   302.35421     -25962.295     -26102.327      140.03205      7129.0282      80897.271    
    187500   302.03697     -25962.018     -26101.903      139.88513      7190.2682      80897.271    
    187600   302.47753     -25964.301     -26104.39       140.08917      7080.0234      80897.271    
    187700   294.69995     -25968.326     -26104.813      136.48707      7041.4885      80897.271    
    187800   299.79036     -25967.007     -26105.851      138.84464      7060.6715      80897.271    
    187900   295.62108     -25964.872     -26101.786      136.91368      7175.2637      80897.271    
    188000   296.35552     -25963.888     -26101.142      137.25383      7147.0928      80897.271    
    188100   308.9677      -25962.877     -26105.972      143.09502      7113.0856      80897.271    
    188200   298.54604     -25964.218     -26102.486      138.26835      7100.4407      80897.271    
    188300   294.71973     -25965.018     -26101.514      136.49623      7152.2308      80897.271    
    188400   298.63575     -25965.069     -26103.379      138.30989      7009.1623      80897.271    
    188500   304.4364      -25965.198     -26106.194      140.9964       6979.5891      80897.271    
    188600   300.73266     -25964.706     -26103.987      139.28105      7029.9702      80897.271    
    188700   300.8773      -25962.935     -26102.283      139.34804      7148.6285      80897.271    
    188800   298.63723     -25962.155     -26100.466      138.31058      7182.3271      80897.271    
    188900   303.21316     -25961.114     -26101.544      140.42987      7145.0686      80897.271    
    189000   302.28323     -25963.174     -26103.173      139.99918      7103.4877      80897.271    
    189100   299.95617     -25966.538     -26105.459      138.92143      6893.7582      80897.271    
    189200   289.86928     -25967.428     -26101.678      134.2498       7139.9008      80897.271    
    189300   304.52777     -25963.86      -26104.898      141.03872      7079.1952      80897.271    
    189400   301.60548     -25962.674     -26102.36       139.68529      7101.5535      80897.271    
    189500   300.53968     -25962.648     -26101.839      139.19168      7181.3284      80897.271    
    189600   296.26424     -25963.429     -26100.64       137.21155      7193.0416      80897.271    
    189700   302.75219     -25963.812     -26104.028      140.21638      7094.7911      80897.271    
    189800   294.07126     -25966.772     -26102.968      136.1959       7080.8149      80897.271    
    189900   297.85246     -25969.389     -26107.336      137.94712      6920.2623      80897.271    
    190000   292.4704      -25970.783     -26106.237      135.45448      6955.0279      80897.271    
    190100   301.53829     -25965.56      -26105.214      139.65417      7119.5306      80897.271    
    190200   296.97661     -25963.996     -26101.538      137.54148      7171.1977      80897.271    
    190300   305.70071     -25961.771     -26103.353      141.58195      7109.5904      80897.271    
    190400   303.34631     -25962.753     -26103.244      140.49154      7195.7947      80897.271    
    190500   296.19431     -25966.939     -26104.118      137.17917      7063.9972      80897.271    
    190600   290.56467     -25968.713     -26103.284      134.57186      7058.8116      80897.271    
    190700   304.89654     -25965.327     -26106.536      141.20951      7063.8002      80897.271    
    190800   304.47539     -25960.387     -26101.402      141.01446      7193.3692      80897.271    
    190900   301.75494     -25959.583     -26099.338      139.75451      7251.36        80897.271    
    191000   301.42411     -25961.632     -26101.233      139.60129      7226.4747      80897.271    
    191100   299.86147     -25965.108     -26103.985      138.87757      7076.4384      80897.271    
    191200   297.07408     -25967.032     -26104.619      137.58662      7090.5416      80897.271    
    191300   297.12711     -25966.735     -26104.346      137.61118      6975.4834      80897.271    
    191400   303.59334     -25963.173     -26103.779      140.60594      7112.5095      80897.271    
    191500   304.28179     -25960.339     -26101.264      140.9248       7272.5066      80897.271    
    191600   300.9101      -25961.885     -26101.248      139.36323      7129.1376      80897.271    
    191700   297.54725     -25963.973     -26101.779      137.80577      7137.1109      80897.271    
    191800   302.69535     -25963.84      -26104.03       140.19005      7057.8801      80897.271    
    191900   298.72197     -25964.216     -26102.566      138.34983      7179.9252      80897.271    
    192000   298.19514     -25964.686     -26102.792      138.10583      7124.8725      80897.271    
    192100   296.86858     -25967.041     -26104.533      137.49145      7018.3301      80897.271    
    192200   299.24449     -25968.761     -26107.353      138.59182      6934.0941      80897.271    
    192300   295.10293     -25968.546     -26105.22       136.6737       7011.2799      80897.271    
    192400   295.30826     -25963.929     -26100.698      136.7688       7197.9671      80897.271    
    192500   303.72164     -25961.434     -26102.099      140.66537      7179.9517      80897.271    
    192600   308.02007     -25962.057     -26104.714      142.65614      7122.8427      80897.271    
    192700   293.6097      -25966.012     -26101.994      135.98213      7094.6713      80897.271    
    192800   301.03905     -25966.089     -26105.512      139.42295      7121.8036      80897.271    
    192900   296.7982      -25965.471     -26102.93       137.45885      7100.2261      80897.271    
    193000   302.05615     -25962.839     -26102.733      139.89401      7137.4194      80897.271    
    193100   306.13367     -25960.72      -26102.503      141.78247      7178.8487      80897.271    
    193200   308.213       -25958.016     -26100.761      142.74549      7274.1929      80897.271    
    193300   298.78577     -25960.394     -26098.773      138.37937      7306.3947      80897.271    
    193400   301.46239     -25964.184     -26103.803      139.61902      7060.7681      80897.271    
    193500   301.22583     -25965.858     -26105.367      139.50946      7062.3909      80897.271    
    193600   293.41874     -25966.82      -26102.714      135.89369      7089.9806      80897.271    
    193700   305.96697     -25964.035     -26105.74       141.70527      7055.8522      80897.271    
    193800   304.45411     -25959.989     -26100.994      141.0046       7250.5637      80897.271    
    193900   304.77675     -25959.588     -26100.742      141.15403      7289.8068      80897.271    
    194000   301.97138     -25962.975     -26102.83       139.85475      7137.2273      80897.271    
    194100   298.05721     -25964.573     -26102.615      138.04195      7162.2653      80897.271    
    194200   301.69163     -25964.468     -26104.194      139.72519      7123.5584      80897.271    
    194300   303.27647     -25964.465     -26104.925      140.45919      6935.3121      80897.271    
    194400   299.69077     -25964.838     -26103.636      138.79851      7068.8493      80897.271    
    194500   296.89017     -25964.529     -26102.031      137.50145      7190.9673      80897.271    
    194600   300.88055     -25963.313     -26102.663      139.34955      7087.2596      80897.271    
    194700   303.07083     -25962.154     -26102.518      140.36395      7175.6518      80897.271    
    194800   297.85459     -25963.005     -26100.953      137.94811      7149.3199      80897.271    
    194900   298.73687     -25965.553     -26103.909      138.35673      7067.9263      80897.271    
    195000   292.43887     -25969.064     -26104.504      135.43987      6934.3484      80897.271    
    195100   299.62542     -25968.086     -26106.854      138.76825      6948.2983      80897.271    
    195200   296.42279     -25963.795     -26101.08       137.28498      7122.7652      80897.271    
    195300   306.05659     -25962.18      -26103.927      141.74677      7030.107       80897.271    
    195400   302.71465     -25963.94      -26104.139      140.19899      7097.3787      80897.271    
    195500   295.42534     -25966.815     -26103.638      136.82302      7180.9541      80897.271    
    195600   292.23295     -25967.855     -26103.199      135.34451      7035.0039      80897.271    
    195700   303.76715     -25963.786     -26104.472      140.68644      7032.3329      80897.271    
    195800   300.79076     -25961.754     -26101.062      139.30796      7174.5267      80897.271    
    195900   303.29274     -25962.229     -26102.695      140.46673      7123.7148      80897.271    
    196000   302.9257      -25964.174     -26104.471      140.29674      7096.2139      80897.271    
    196100   299.55895     -25965.481     -26104.218      138.73746      7065.6594      80897.271    
    196200   292.96612     -25965.743     -26101.427      135.68406      7124.6256      80897.271    
    196300   304.52234     -25964.802     -26105.838      141.0362       7019.6876      80897.271    
    196400   298.44236     -25965.277     -26103.498      138.22033      7059.0024      80897.271    
    196500   300.15307     -25963.58      -26102.593      139.01262      7160.2492      80897.271    
    196600   302.25845     -25960.881     -26100.868      139.98771      7215.4551      80897.271    
    196700   302.62188     -25959.242     -26099.398      140.15602      7259.1926      80897.271    
    196800   308.31214     -25960.103     -26102.895      142.79141      7145.0695      80897.271    
    196900   293.33993     -25964.827     -26100.684      135.85719      7092.5039      80897.271    
    197000   301.96828     -25965.235     -26105.088      139.85332      6968.5776      80897.271    
    197100   300.00258     -25966.227     -26105.17       138.94293      6996.457       80897.271    
    197200   303.32916     -25965.505     -26105.989      140.48359      6937.6546      80897.271    
    197300   292.7023      -25964.038     -26099.599      135.56188      7216.0829      80897.271    
    197400   305.15916     -25959.89      -26101.221      141.33114      7220.6257      80897.271    
    197500   304.87905     -25960.556     -26101.758      141.20141      7142.4108      80897.271    
    197600   297.32564     -25963.316     -26101.019      137.70313      7176.5499      80897.271    
    197700   305.30708     -25964.306     -26105.705      141.39965      7135.7143      80897.271    
    197800   297.89991     -25965.92      -26103.889      137.9691       7002.2903      80897.271    
    197900   300.99289     -25965.274     -26104.676      139.40158      7107.6248      80897.271    
    198000   297.25612     -25964.664     -26102.335      137.67093      7177.9474      80897.271    
    198100   307.39682     -25959.398     -26101.766      142.36748      7164.5375      80897.271    
    198200   310.0759      -25957.835     -26101.443      143.60827      7182.7447      80897.271    
    198300   301.085       -25961.43      -26100.874      139.44424      7190.699       80897.271    
    198400   300.76193     -25964.211     -26103.505      139.29461      7088.2892      80897.271    
    198500   302.88856     -25965.013     -26105.292      140.27953      7041.9299      80897.271    
    198600   296.74509     -25966.191     -26103.625      137.43425      7066.7011      80897.271    
    198700   297.10772     -25965.677     -26103.279      137.6022       7113.8317      80897.271    
    198800   297.57497     -25962.295     -26100.113      137.8186       7156.8477      80897.271    
    198900   307.17857     -25960.165     -26102.431      142.26641      7216.21        80897.271    
    199000   303.27562     -25961.295     -26101.753      140.4588       7180.3017      80897.271    
    199100   294.16001     -25966.728     -26102.965      136.237        7113.594       80897.271    
    199200   300.77342     -25967.557     -26106.857      139.29993      6944.1577      80897.271    
    199300   295.58692     -25967.031     -26103.929      136.89786      7020.004       80897.271    
    199400   301.40882     -25962.551     -26102.146      139.59421      7218.0864      80897.271    
    199500   301.55039     -25962.414     -26102.074      139.65978      7216.3248      80897.271    
    199600   301.2367      -25963.363     -26102.878      139.51449      7180.2134      80897.271    
    199700   297.10613     -25965.812     -26103.413      137.60146      7151.6515      80897.271    
    199800   298.09736     -25967.891     -26105.952      138.06054      6944.7532      80897.271    
    199900   306.65397     -25964.274     -26106.297      142.02345      7138.1301      80897.271    
    200000   293.63678     -25962.484     -26098.479      135.99467      7159.1905      80897.271    
Loop time of 11860.8 on 20 procs for 200000 steps with 3584 atoms

Performance: 1.457 ns/day, 16.473 hours/ns, 16.862 timesteps/s, 60.434 katom-step/s
99.9% CPU use with 20 MPI tasks x 1 OpenMP threads

MPI task timing breakdown:
Section |  min time  |  avg time  |  max time  |%varavg| %total
---------------------------------------------------------------
Pair    | 9555.9     | 10716      | 11584      | 697.8 | 90.35
Neigh   | 114.36     | 130.82     | 143.8      |  81.6 |  1.10
Comm    | 98.859     | 946.43     | 2177       |2459.2 |  7.98
Output  | 0.32018    | 0.36039    | 0.41896    |   4.7 |  0.00
Modify  | 12.299     | 65.884     | 156.02     | 674.3 |  0.56
Other   |            | 0.8927     |            |       |  0.01

Nlocal:          179.2 ave         192 max         160 min
Histogram: 4 0 1 1 1 3 1 1 0 8
Nghost:         1123.5 ave        1212 max        1082 min
Histogram: 8 1 2 4 1 0 0 0 0 4
Neighs:              0 ave           0 max           0 min
Histogram: 20 0 0 0 0 0 0 0 0 0
FullNghs:      10242.6 ave       11012 max        9122 min
Histogram: 4 0 0 3 2 1 1 1 0 8

Total # of neighbors = 204852
Ave neighs/atom = 57.157366
Neighbor list builds = 200000
Dangerous builds not checked
Total wall time: 3:17:40
