(written by ASE)

4861 atoms
2 atom types

0.0      48.302314085994816  xlo xhi
0.0      50.197237398508086  ylo yhi
0.0      45.139087810335219  zlo zhi

Masses

     1      178.48999995408445 # Hf
     2      15.998999995884349 # O

Atoms # atomic

     1   1      3.2062452251300502      1.8350952575407999      1.2686487745820401
     2   1        1.59617860884679     0.90552378626429997      3.7763577915413502
     3   1      48.288429279195803        3.69423786300045      3.7763591088338999
     4   1        1.59617956503105      4.6238132874198303      1.2686504923669499
     5   1      3.2062396979182699        1.83509740307553      6.2840681121385602
     6   1        1.59617343498679     0.90552512942178998        8.79178476066852
     7   1      48.288429285016498        3.69423348502372      8.7917854250552008
     8   1         1.5961768636106      4.6238123574736898      6.2840695888303904
     9   1      3.2062260606260802      1.8350966338283401      11.299503311552799
    10   1      1.5961642674701699     0.90552235369396605        13.8072339230926
    11   1      48.288429293211003        3.69422107107291        13.8072336879411
    12   1        1.59617004112348      4.6238045067243201        11.2995042766774
    13   1      3.2062072173339899      1.8350910805626599      16.314967021822799
    14   1      1.5961548671016601        0.90551331417837      18.822713175078601
    15   1      48.288429299931401      3.6942024888584402      18.822711962345199
    16   1        1.59616050218419      4.6237898581739403      16.314966898820799
    17   1      3.2061940992042199      1.8350805442459801      21.330460582999699
    18   1      1.5961523320698601     0.90550221891420202      23.838212498787701
    19   1      48.288429301379999      3.6941882676203299        23.8382113200825
    20   1        1.59615352568129      4.6237735236959399      21.330459301707801
    21   1        3.20619770922587      1.8350723768334201      26.345963049280499
    22   1      1.5961589620199901     0.90549913076460298      28.853705200849099
    23   1      48.288429296670799      3.6941913200927399      28.853705584233602
    24   1      1.5961547869398101      4.6237672343213303      26.345962134477301
    25   1      3.2062151424356999        1.83507434031538      31.361444858846799
    26   1      1.5961690925534999     0.90550545841678198      33.869170088637397
    27   1      48.288429288595701      3.6942084009304801      33.869171848876498
    28   1         1.5961636079785      4.6237775379209296      31.361445457693499
    29   1      3.2062328464734802      1.8350826857701901      36.376894274530002
    30   1      1.5961765198812901     0.90551388957124201      38.884606967532797
    31   1      48.288429281330501        3.69422531143758      38.884609083679202
    32   1      1.5961728858767501      4.6237946019732599      36.376895864996698
    33   1        3.20624307306643      1.8350904548897999        41.3923202096422
    34   1      1.5961795918495301     0.90552009327197602      43.900027836384197
    35   1      48.288429277840699      3.6942352063919901      43.900029662157003
    36   1      1.5961783312854101      4.6238075148668001        41.3923220377376
    37   1         3.2062421965293      7.4125311437893604        1.26865158518222
    38   1      1.5961759793183801      6.4829531867779604        3.77635913348694
    39   1        48.2884292848223      9.2716731317385701      3.7763589642837001
    40   1        1.59617664515938        10.2012594711169      1.2686528284843701
    41   1      3.2062367615879701      7.4125265830618998      6.2840668351725002
    42   1        1.59617020734354      6.4829430824048098      8.7917831422724095
    43   1      48.288429294191701      9.2716584059494291      8.7917805244128697
    44   1        1.59617376441368      10.201252953330201      6.2840658739041402
    45   1      3.2062224214293402      7.4125102970574304        11.2994984242344
    46   1      1.5961590829669201        6.48292081228516        13.8072298690329
    47   1      48.288429307351301      9.2716282622952697        13.8072257991524
    48   1        1.59616573178671      10.201233000093399        11.2994957321967
    49   1        3.20620160642255        7.41248412189855        16.3149602494493
    50   1        1.59614621590992      6.4828919353131802        18.8227085845608
    51   1      48.288429318113202      9.2715913415889908      18.822705333220501
    52   1      1.5961535966912199        10.2012028115942      16.314957010130499
    53   1      3.2061854134796501      7.4124594189249704      21.330456250923501
    54   1        1.59614097042509      6.4828737643974703      23.838211083346199
    55   1      48.288429320379997      9.2715703296641205      23.838211260243099
    56   1      1.5961436636070501      10.201176769369299        21.3304546043939
    57   1      3.2061868081926201      7.4124547145051096      26.345966214435801
    58   1      1.5961487677511099      6.4828833813708702        28.8537096570678
    59   1        48.2884293127603      9.2715853788805696        28.8537143262879
    60   1        1.59614356506493        10.2011741154455      26.345968301200301
    61   1      3.2062064561306598      7.4124764812133996        31.3614543878837
    62   1      1.5961625134212001      6.4829123062966199      33.869177644095998
    63   1      48.288429299780503      9.2716237409703695      33.869183979389199
    64   1        1.59615517141721         10.201200081699        31.3614595216997
    65   1      3.2062272831817298      7.4125051558198001      36.376904256896403
    66   1        1.59617253864013      6.4829381061083904      38.884613823036503
    67   1      48.288429288143298      9.2716564159660209      38.884618877009899
    68   1      1.5961677106277801        10.2012321729734      36.376909471060998
    69   1      3.2062393322639902      7.4125243454756804      41.392327113538698
    70   1        1.59617674524835      6.4829516325059497      43.900032159683498
    71   1      48.288429282587501      9.2716725959357902      43.900034716725003
    72   1      1.5961748488543299      10.201252892676999      41.392330614576899
    73   1        3.20623365096443      12.989988608448201        1.26865330527169
    74   1        1.59617098000407        12.0603967255522      3.7763571538521199
    75   1      48.288429293234501      14.849128763007799      3.7763543619956299
    76   1      1.5961712332348801         15.778731959041        1.26865265247321
    77   1      3.2062273198978901      12.989979555495401      6.2840596124246302
    78   1      1.5961639821175799      12.060377344041701      8.7917744123686301
    79   1      48.288429307959298        14.8491063149879      8.7917672426018694
    80   1        1.59616756335571        15.7787222773203      6.2840546465737201
    81   1      3.2062086684996198      12.989954097049299      11.299484734405601
    82   1      1.5961493051779401        12.0603387395412      13.807217611313799
    83   1      48.288429328712503        14.8490622121697        13.8072085281869
    84   1      1.5961563089852799        15.7786977098403        11.2994766256266
    85   1        3.20617916988276      12.989916200691599      16.314945762269701
    86   1      1.5961303378060201      12.060292219118301      18.822699519083301
    87   1      48.288429345747701      14.849009788896099        18.8226931445537
    88   1      1.5961378993595201        15.7786629598665        16.3149377337188
    89   1      3.2061536457937598      12.989885012861199      21.330450557148101
    90   1      1.5961196190069999      12.060267780411801      23.838212376040399
    91   1      48.288429349457303        14.8489859086664        23.8382136061288
    92   1      1.5961210158699199      15.778637286574201      21.330447788333501
    93   1      3.2061508267956902      12.989883566074701        26.3459769631563
    94   1      1.5961292792672399      12.060289930390301      28.853723560037501
    95   1      48.288429337570101      14.849014899157201      28.853732823674999
    96   1         1.5961184056991        15.7786401284656        26.3459821061791
    97   1      3.2061801832516701      12.989918600854001        31.3614760787611
    98   1      1.5961502108180501      12.060339396451999      33.869195374192003
    99   1      48.288429317113902      14.849070533527399      33.869206444243702
   100   1        1.59613729520679      15.778673522038901      31.361485394248302
   101   1      3.2062118542801201        12.9899583161737      36.376923935359201
   102   1        1.59616524098002      12.060378998562999      38.884627154315901
   103   1      48.288429298687603        14.8491124130232      38.884634870789696
   104   1      1.5961575370315599        15.7787079679005        36.3769319054908
   105   1        3.20622919968931      12.989982088644799      41.392338512461301
   106   1        1.59617144544783        12.0603974088125      43.900038017878501
   107   1      48.288429289813202        14.8491308495247      43.900040505715801
   108   1        1.59616843021073        15.7787276136222      41.392342456145002
   109   1      3.2062210900796799      18.567477966894799        1.26864994143039
   110   1        1.59616437433173      17.637866963464798      3.7763484333595501
   111   1        48.2884293004944        20.4266157370608      3.7763408962351899
   112   1        1.59616477936868      21.356236894700199        1.26864518761891
   113   1      3.2062119141999901        18.5674679075799      6.2840411129865803
   114   1        1.59615426754642        17.6378420420677      8.7917543886220901
   115   1      48.288429319823997      20.426591251022199      8.7917400030858897
   116   1      1.5961588095061101        21.3562298051759      6.2840309782440196
   117   1      3.2061835735855899        18.5674442827316        11.2994552299724
   118   1      1.5961315415403301      17.637792695463698        13.8071926449615
   119   1      48.288429347243003        20.4265435553014        13.8071738336072
   120   1      1.5961402184500999      21.356216988080099      11.299439263133401
   121   1      3.2061348281008901        18.5674121263717        16.3149164677233
   122   1      1.5960990729796101      17.637734039503901      18.822682130868198
   123   1      48.288429369896001        20.4264904338085      18.822669085816401
   124   1      1.5961048528199699        21.3562026156172        16.3149004092509
   125   1        3.20608733711751      18.567390013857999      21.330441207685201
   126   1        1.59607970781853      17.637711586057101      23.838216276567302
   127   1      48.288429375050598      20.426476393916001      23.838220936818001
   128   1      1.5960697843965099      21.356195461324301         21.330438442542
   129   1      3.2060801877095502      18.567394365184299      26.345998443567598
   130   1      1.5960972292161899      17.637748887122399        28.8537488816274
   131   1      48.288429359578799        20.4265157170435        28.8537653117356
   132   1      1.5960701036070699        21.3562026168686        26.3460096200265
   133   1      3.2061336645921301      18.567428568775401      31.361512308969498
   134   1      1.5961327740645199      17.637810763837699        33.8692240051247
   135   1      48.288429332615699      20.426571948360198      33.869238445693803
   136   1        1.59610978121945      21.356221034675801      31.361524014970499
   137   1      3.2061869216507999      18.567459637701301      36.376952726664904
   138   1      1.5961560240450801        17.6378533624945      38.884646070467497
   139   1        48.2884293081365        20.4266079529541      38.884653249603701
   140   1        1.59614433555979      21.356233064770201      36.376958318634699
   141   1      3.2062143728692698      18.567475691645701      41.392351723904198
   142   1        1.59616504136545      17.637870610758402      43.900043019165402
   143   1      48.288429296183899      20.426620868588699      43.900042694677701
   144   1        1.59616097223986      21.356238112097198      41.392351745661699
   145   1        3.20620992423544        24.1449985622789      1.2686380160465101
   146   1      1.5961588047456099      23.215372252754801      3.7763302425847902
   147   1      48.288429301481898      26.004136160573701        3.77632571390376
   148   1      1.5961616937549199      26.933761212092499      1.2686346149788099
   149   1        3.20619147950721      24.144997972412099        6.28401196690226
   150   1      1.5961399694293801        23.2153529288329      8.7917186138155294
   151   1      48.288429321435899      26.004128267100398      8.7917139704415099
   152   1      1.5961518632373499      26.933768400300998      6.2840153039911204
   153   1      3.2061316118061498      24.145002383713301        11.2994062650299
   154   1      1.5960923295709699        23.2153174526104        13.8071438734076
   155   1      48.288429349959102      26.004116755133399        13.8071398249498
   156   1        1.59611985916676      26.933792739325298      11.299417813946899
   157   1      3.2060104149385702      24.145012661433999        16.3148648317656
   158   1      1.5960238883637301        23.2152830236017      18.822650494563799
   159   1      48.288429373723197        26.0041123706253      18.822651213700802
   160   1      1.5960547959965401      26.933832157344199      16.314882405358802
   161   1      3.2059040623697102      24.145020945634101        21.3304337487073
   162   1        1.59600210500635      23.215277910667101        23.8382330329989
   163   1      48.288429379392902      26.004117179447299        23.8382362247348
   164   1        1.59600210536391      26.933861040694701      21.330442218570099
   165   1      3.2059363654211999      24.145024762883899        26.3460397057225
   166   1      1.5960547955881299      23.215306794376598      28.853792846401699
   167   1      48.288429363533403      26.004127084842398      28.853791198319499
   168   1      1.5960238885884901        26.9338559280549      26.346024756942501
   169   1      3.2060727425917199      24.145021858901799        31.3615551240716
   170   1        1.59611985881507        23.2153462131573      33.869257438031198
   171   1      48.288429335517897      26.004136562308801        33.8692532904373
   172   1        1.59609232965359      26.933821499812801      31.361531378188999
   173   1      3.2061670736770802      24.145009964761499         36.376973455801
   174   1        1.59615186300145      23.215370552928299      38.884659948135599
   175   1      48.288429309896998        26.0041406546129      38.884655056572598
   176   1         1.5961399694262        26.9337860243843      36.376956637986503
   177   1      3.2062037226442701      24.145002237154699      41.392354664672197
   178   1      1.5961616936534699      23.215377741568101      43.900040637162199
   179   1      48.288429297222002      26.004139995831501      43.900035795829197
   180   1         1.5961588047463      26.933766700916799      41.392345009426997
   181   1        3.20621035445226      29.722520808132401      1.2686302725255301
   182   1        1.59616097240684        28.7929008414667      3.7763235064502401
   183   1        48.2884292952698      31.581659324099899      3.7763282264276099
   184   1      1.5961650416073601      32.511268342136297        1.26863223252848
   185   1        3.20618997938656      29.722534986237399      6.2840138672969497
   186   1        1.59614433582259      28.792905888249201      8.7917169334508607
   187   1      48.288429311313998        31.5816730180048      8.7917319861398902
   188   1      1.5961560244594999      32.511285589765102      6.2840291814046898
   189   1      3.2061329808672299      29.722574976623399      11.299423903838001
   190   1      1.5961097815244401      28.792917917576801      13.807151236913599
   191   1      48.288429334453497      31.581699009691999        13.8071748219593
   192   1      1.5961327746840299      32.511328187467001      11.299451246651101
   193   1      3.2060327744374102      29.722640288690801      16.314897314122302
   194   1        1.59607010388003      28.792936334756199      18.822665631569599
   195   1      48.288429353902202      31.581727840529801      18.822683531313402
   196   1      1.5960972299876599      32.511390063290797      16.314926369816199
   197   1      3.2059697514567098      29.722684736718801      21.330452544360998
   198   1        1.59606978457226      28.792943490198599      23.838236808810201
   199   1      48.288429358746498      31.581734158692001      23.838231594212701
   200   1      1.5960797086030301      32.511427364025899      21.330458974454999
   201   1      3.2060186260231598      29.722666290204302      26.346013299293599
   202   1      1.5961048528862301        28.7929363364109        28.8537748420285
   203   1      48.288429346048602        31.5817160937161      28.853751628137299
   204   1        1.59609907362334      32.511404911045297      26.345993119845499
   205   1        3.20611649249261      29.722604370585799      31.361510882162602
   206   1        1.59614021844471      28.792921964733299      33.869235988281702
   207   1      48.288429323350499        31.5816882001231      33.869213000527402
   208   1        1.59613154196667      32.511346256085602      31.361482605716901
   209   1      3.2061809481610299        29.7225518599009        36.3769425961775
   210   1        1.59615880950039      28.792909148283499      38.884644273440898
   211   1        48.2884293024659      31.581667036267699      38.884629840952499
   212   1        1.59615426778498      32.511296910453197      36.376920862299698
   213   1      3.2062075760152098      29.722525968889499      41.392337450809002
   214   1        1.59616477943006        28.7929020590222        43.9000300643375
   215   1      48.288429292013397      31.581657643642099      43.900025149582298
   216   1      1.5961643745026199      32.511271989541598      41.392326817967003
   217   1      3.2062216568697299      35.300011946866299      1.2686329987956899
   218   1      1.5961684304794399      34.370411339117602      3.7763327954486599
   219   1      48.288429286453102        37.1591518048672      3.7763396767362698
   220   1      1.5961714457330201      38.088741543019097      1.2686372330592099
   221   1        3.20620661132347      35.300032052490899      6.2840351966271299
   222   1      1.5961575374486801      34.370430984114101      8.7917433461710193
   223   1      48.288429296902798      37.159172716691103      8.7917570255950004
   224   1        1.59616524143334      38.088759952508298      6.2840480968304098
   225   1      3.2061688479253698        35.3000786184394        11.2994609701831
   226   1      1.5961372957467199        34.3704654290812        13.8071898571623
   227   1      48.288429312097598          37.15920685815        13.8072060718619
   228   1      1.5961502114966399         38.088799553445        11.2994798768317
   229   1      3.2061142500951001      35.300141806388098      16.314935559175101
   230   1      1.5961184062807501      34.370498822018497      18.822693144783798
   231   1      48.288429324979397      37.159236917760801      18.822702078414601
   232   1        1.59612928012079      38.088849018411999      16.314951690579999
   233   1      3.2060900799446301      35.300173477076598      21.330460556728699
   234   1         1.5961210163894      34.370501663922603        23.8382274621767
   235   1      48.288429328305803      37.159237092677202      23.838223306729802
   236   1        1.59611961990232      38.088871167961102      21.330462874054799
   237   1      3.2061202953383598        35.3001444844191      26.345985127857698
   238   1      1.5961378997387301      34.370475991314002      28.853737516566198
   239   1      48.288429320042198        37.1592106151544      28.853725252399698
   240   1         1.5961303385765         38.088846729783      26.345975730648099
   241   1      3.2061688496579901      35.300085826310998      31.361471616437299
   242   1        1.59615630921436      34.370441242284201      33.869198624785597
   243   1      48.288429305134699      37.159177289675497      33.869186284539701
   244   1      1.5961493057134499        38.0888002105578        31.3614576383813
   245   1        3.20620441945213      35.300037970391699        36.3769119989892
   246   1      1.5961675635052399        34.3704166755196         38.884620604218
   247   1        48.2884292913701        37.1591543931372        38.8846130857386
   248   1      1.5961639824441001      38.088761607247498      36.376900837638402
   249   1      3.2062207714034301      35.300014021719598      41.392322403365597
   250   1      1.5961712334017299      34.370406994005101      43.900022598787203
   251   1      48.288429284414697      37.159146065931701        43.9000219392357
   252   1      1.5961709802358199      38.088742226376198      41.392318096642697
   253   1      3.2062340021783902      40.877469311008397        1.26863960259752
   254   1      1.5961748491035299      39.947886058964798        3.77634463625321
   255   1      48.288429279940097        42.7366106457564      3.7763498804596201
   256   1      1.5961767454634499      43.666187318471799      1.2686430906114201
   257   1      3.2062238785750501        40.8774866937732      6.2840532317691604
   258   1      1.5961677110075301      39.947906777772403      8.7917657797857593
   259   1      48.288429286244799        42.7366277210566      8.7917745822610698
   260   1        1.59617253898154      43.666200844112602      6.2840614273355797
   261   1      3.2061994781319201      40.877522834324701      11.299486552737401
   262   1      1.5961551719251501      39.947938867938099        13.8072157288514
   263   1        48.2884292954163         42.736652322504      13.807225209694099
   264   1      1.5961625139309199      43.666226642634903      11.299497606069099
   265   1        3.20616538393769      40.877566671499203      16.314956813269202
   266   1        1.59614356562728      39.947964833396398      18.822706948849099
   267   1      48.288429303195798      42.736670166184197      18.822711494318401
   268   1      1.5961487683928399        43.6662555662786      16.314965592680601
   269   1      3.2061476098867798      40.877584329800399      21.330463378546501
   270   1        1.59614366412381      39.947962179472299      23.838220645189601
   271   1      48.288429305204602      42.736665713912302        23.8382178589003
   272   1      1.5961409710924499        43.6662651826664        21.3304641659659
   273   1      3.2061628949662202      40.877560265572903      26.345972478904098
   274   1      1.5961535970810099      39.947936138062701      28.853718239256999
   275   1      48.288429300222703      42.736644591072299      28.853711560837599
   276   1        1.59614621647552      43.666247012220602        26.3459666645231
   277   1      3.2061945163417902      40.877518607624197      31.361453166645902
   278   1      1.5961657320357601      39.947905950724902        33.8691795173673
   279   1      48.288429291221199        42.7366221386592      33.869173387429598
   280   1        1.59615908335709      43.666218136509301        31.3614453801321
   281   1        3.20622009100863        40.8774851852152      36.376897685517399
   282   1        1.59617376457584      39.947885998383803      38.884609376096698
   283   1      48.288429282906002      42.736608088176702      38.884606328290197
   284   1        1.59617020757829        43.6661958677442      36.376892107244799
   285   1      3.2062327172029201      40.877468960489402      41.392317499789399
   286   1      1.5961766453261601      39.947879480889497        43.9000224220175
   287   1      48.288429278708499      42.736604317439102      43.900023413003296
   288   1      1.5961759794921699      43.666185764184704      41.392316116473502
   289   1      3.2062423582653201      46.454904629723799      1.2686450844536501
   290   1      1.5961783314161899      45.525331435918297        3.77635321246091
   291   1      48.288429277520102      48.314046916813197      3.7763562743216101
   292   1      1.5961795919339099      49.243618857428302         1.2686474135901
   293   1      3.2062353916852002      46.454914837942603      6.2840640031660904
   294   1        1.59617288608049      45.525344347834803      8.7917793850798809
   295   1      48.288429282295802      48.314054075684801      8.7917837020085194
   296   1         1.5961765200367      49.243625060481499        6.28406828230478
   297   1      3.2062185456247398      46.454932998659999        11.2994999957718
   298   1        1.59616360823709      45.525361410583201        13.8072297920395
   299   1      48.288429289123698      48.314061132964198        13.8072338250951
   300   1          1.596169092774      49.243633490385498      11.299505160880599
   301   1      3.2061952932291198      46.454952473615698        16.3149665448957
   302   1      1.5961547872105299        45.5253717131747      18.822713114836201
   303   1        48.2884292948224      48.314061723933897      18.822714337598299
   304   1        1.59615896227426      49.243639816673898        16.3149700483138
   305   1        3.20618081445491        46.4549572366844      21.330463323732999
   306   1        1.59615352590211      45.525365423669101      23.838215947313401
   307   1      48.288429296184098      48.314053296813697        23.8382138304896
   308   1      1.5961523323020199      49.243636727772703      21.330462750147898
   309   1      3.2061880083249501      46.454942170252302        26.3459655579864
   310   1        1.59616050232122      45.525349090029003        28.8537083501813
   311   1      48.288429292389203      48.314043694835398      28.853705167110402
   312   1        1.59615486726236      49.243625632817398      26.345962073880901
   313   1      3.2062098010844098      46.454921394232997        31.3614448998432
   314   1      1.5961700411855699      45.525334442796201      33.869170972587703
   315   1      48.288429285674297      48.314039379055899      33.869168785128799
   316   1      1.5961642675471099      49.243616594493403        31.3614413261222
   317   1        3.20622978574408      46.454907368437802        36.3768924370045
   318   1      1.5961768636445099      45.525326593159001      38.884605660842197
   319   1      48.288429279540601        48.3140395290404      38.884605204806597
   320   1      1.5961734350210499      49.243613820157201      36.376890488918299
   321   1      3.2062405647235899      46.454902208865001      41.392317291511198
   322   1      1.5961795650950601      45.525325663676199      43.900024757671297
   323   1      48.288429276506903        48.3140421362491      43.900026103354001
   324   1        1.59617860888316      49.243615164259502      41.392317458334198
   325   1      6.4263793979777901      1.8350904769418199        1.26864763953495
   326   1      4.8163075703191902     0.90552415139293696      3.7763555080601998
   327   1      3.2062405645104399      3.6942367416881998        3.77635795839947
   328   1      4.8163103209496496      4.6238079735067297        1.26864978830147
   329   1      6.4263690895571397        1.83509074260889      6.2840624790070301
   330   1      4.8162923411488503     0.90552511198354502      8.7917795988551095
   331   1        3.20622978546041        3.69423158115131      8.7917828125273498
   332   1      4.8163024571809396      4.6238055383320997      6.2840655912162404
   333   1      6.4263431639341704      1.8350860947188199      11.299493943390001
   334   1      4.8162649921698701        0.90552173827172      13.807227265943499
   335   1      3.2062098005936002      3.6942175538681998        13.8072303493273
   336   1      4.8162825159262104      4.6237939251386804        11.2994977126818
   337   1      6.4263063357351999      1.8350751606732401        16.3149577476354
   338   1      4.8162366898337297     0.90551193628834403      18.822708801651999
   339   1      3.2061880075792999        3.69419677653261      18.822709691029502
   340   1      4.8162542188927997      4.6237732492225598        16.3149603771062
   341   1      6.4262801303549004        1.83506124766766      21.330458081388102
   342   1      4.8162292819814496     0.90550092893021805        23.8382139435925
   343   1      3.2061808135395098      3.6941817096743099      23.838211925403101
   344   1      4.8162332390626297      4.6237517589418999      21.330457321436601
   345   1      6.4262873071444702        1.83505534918399      26.345969600123901
   346   1      4.8162496175290199     0.90549909850438204      28.853711277198499
   347   1        3.20619529232212      3.6941864734684202      28.853708704587898
   348   1      4.8162371249224103      4.6237462276667696      26.345966662616998
   349   1      6.4263217821712599        1.83506327690514      31.361455084192499
   350   1      4.8162799627697597     0.90550646722821504      33.869176429796902
   351   1      3.2062185448852198      3.6942059498564799      33.869175254101101
   352   1        4.81626367094551      4.6237629540312302      31.361452996903498
   353   1      6.4263559938449299        1.83507624140771      36.376902126960502
   354   1      4.8163017071922702       0.905514958488009         38.884610852521
   355   1      3.2062353911896899      3.6942241119533601      38.884611246969101
   356   1      4.8162910041557296      4.6237859664243697      36.376901886857198
   357   1      6.4263753421060397      1.8350858364818501      41.392323642804499
   358   1      4.8163105130870996     0.90552082043845505      43.900028643507802