LAMMPS (27 Jun 2024)
OMP_NUM_THREADS environment is not set. Defaulting to 1 thread. (src/comm.cpp:98)
  using 1 OpenMP thread(s) per MPI task
Reading data file ...
  orthogonal box = (0 0 0) to (44.844435 44.38448 40.643788)
  5 by 2 by 2 MPI processor grid
  reading atoms ...
  3584 atoms
  read_data CPU = 0.021 seconds
**************** Begin of POD Potentials ****************
species: Hf 
periodic boundary conditions: 1 1 1
number of environment clusters: 8
number of principal compoments: 2
inner cut-off radius: 1
outer cut-off radius: 5
cut-off function type: 1
gaussian_exponents: 
polynomial_degrees: 
bessel polynomial degree: 4
inverse polynomial degree: 10
one-body potential: 1
two-body radial basis functions: 8
three-body radial basis functions: 8
three-body angular degree: 6
four-body radial basis functions: 7
four-body angular degree: 5
five-body radial basis functions: 0
five-body angular degree: 0
six-body radial basis functions: 0
six-body angular degree: 0
seven-body radial basis functions: 0
seven-body angular degree: 0
number of local descriptors per element for one-body potential: 1
number of local descriptors per element for two-body potential: 8
number of local descriptors per element for three-body potential: 56
number of local descriptors per element for four-body potential: 112
number of local descriptors per element for five-body potential: 0
number of local descriptors per element for six-body potential: 0
number of local descriptors per element for seven-body potential: 0
number of local descriptors per element for all potentials: 177
number of global descriptors: 1409
**************** End of POD Potentials ****************

**************** Begin of Model Coefficients ****************
total number of coefficients for POD potential: 1409
total number of elements for PCA projection matrix: 352
total number of elements for PCA centroids: 16
**************** End of Model Coefficients ****************


CITE-CITE-CITE-CITE-CITE-CITE-CITE-CITE-CITE-CITE-CITE-CITE-CITE

Your simulation uses code contributions which should be cited:
- Type Label Framework: https://doi.org/10.1021/acs.jpcb.3c08419
The log file lists these citations in BibTeX format.

CITE-CITE-CITE-CITE-CITE-CITE-CITE-CITE-CITE-CITE-CITE-CITE-CITE

Neighbor list info ...
  update: every = 1 steps, delay = 0 steps, check = no
  max neighbors/atom: 2000, page size: 100000
  master list distance cutoff = 7
  ghost atom cutoff = 7
  binsize = 3.5, bins = 13 13 12
  1 neighbor lists, perpetual/occasional/extra = 1 0 0
  (1) pair pod, perpetual
      attributes: full, newton on
      pair build: full/bin/atomonly
      stencil: full/bin/3d
      bin: standard
Setting up Verlet run ...
  Unit style    : metal
  Current step  : 0
  Time step     : 0.001
Per MPI rank memory allocation (min/avg/max) = 2.609 | 2.609 | 2.613 Mbytes
   Step          Temp          TotEng         PotEng         KinEng         Press          Volume    
         0   300           -26078.873     -26217.815      138.94173      5068.3643      80897.271    
       100   123.87525     -26075.114     -26132.486      57.371473      4560.9173      80897.271    
       200   165.72098     -26057.673     -26134.425      76.751864      5092.9356      80897.271    
       300   209.62291     -26037.554     -26134.639      97.084567      5192.6975      80897.271    
       400   272.81066     -26016.214     -26142.563      126.34928      5097.5592      80897.271    
       500   292.48619     -25995.29      -26130.752      135.46179      5649.9344      80897.271    
       600   270.47738     -25976.439     -26101.708      125.26865      6749.8048      80897.271    
       700   287.21836     -25961.962     -26094.984      133.02205      7461.7935      80897.271    
       800   299.46981     -25954.71      -26093.406      138.69618      7260.6076      80897.271    
       900   328.5493      -25952.963     -26105.127      152.16403      6948.4678      80897.271    
      1000   306.84052     -25962.89      -26105          142.10984      6879.3431      80897.271    
      1100   293.59839     -25970.006     -26105.983      135.9769       6790.8979      80897.271    
      1200   288.53989     -25971.195     -26104.829      133.6341       6929.0614      80897.271    
      1300   288.616       -25968.091     -26101.76       133.66935      6845.9347      80897.271    
      1400   313.53016     -25960.902     -26106.11       145.20807      7007.7664      80897.271    
      1500   307.34871     -25959.874     -26102.219      142.3452       7043.3382      80897.271    
      1600   309.26022     -25960.92      -26104.151      143.2305       6932.3914      80897.271    
      1700   295.28843     -25965.567     -26102.326      136.75962      6955.9686      80897.271    
      1800   284.05919     -25969.057     -26100.616      131.55892      6995.5992      80897.271    
      1900   304.49821     -25966.493     -26107.518      141.02503      6869.6006      80897.271    
      2000   303.73877     -25964.057     -26104.73       140.6733       6779.379       80897.271    
      2100   312.52209     -25959.125     -26103.866      144.7412       7054.6972      80897.271    
      2200   297.6095      -25959.283     -26097.118      137.8346       7151.5079      80897.271    
      2300   293.84108     -25963.314     -26099.404      136.08929      7132.0362      80897.271    
      2400   305.24559     -25967.274     -26108.645      141.37117      6779.3409      80897.271    
      2500   297.59962     -25969.844     -26107.674      137.83002      6695.552       80897.271    
      2600   300.57128     -25966.614     -26105.821      139.20631      6868.9723      80897.271    
      2700   292.02395     -25963.22      -26098.468      135.24771      7116.4049      80897.271    
      2800   307.42169     -25959.383     -26101.762      142.37901      7087.008       80897.271    
      2900   303.48672     -25961.053     -26101.61       140.55657      7058.5874      80897.271    
      3000   299.81158     -25964.498     -26103.352      138.85447      6932.3318      80897.271    
      3100   298.50134     -25967.112     -26105.359      138.24764      6993.1266      80897.271    
      3200   291.6762      -25968.504     -26103.591      135.08665      6924.0885      80897.271    
      3300   305.66847     -25965.148     -26106.715      141.56702      6924.8343      80897.271    
      3400   300.43629     -25962.786     -26101.93       139.14379      7099.4902      80897.271    
      3500   302.09985     -25960.458     -26100.372      139.91425      7104.5379      80897.271    
      3600   304.44202     -25960.595     -26101.594      140.999        7052.675       80897.271    
      3700   301.08852     -25963.411     -26102.856      139.44587      7047.9307      80897.271    
      3800   298.29785     -25966.366     -26104.519      138.1534       6924.2872      80897.271    
      3900   295.76604     -25968.375     -26105.356      136.98082      6892.9307      80897.271    
      4000   295.71934     -25967.726     -26104.685      136.95919      6926.4453      80897.271    
      4100   300.10369     -25964.205     -26103.195      138.98975      6919.3721      80897.271    
      4200   305.24211     -25960.231     -26101.6        141.36956      7070.2698      80897.271    
      4300   300.74101     -25959.924     -26099.209      139.28492      7248.1899      80897.271    
      4400   294.17214     -25963.632     -26099.875      136.24262      7070.6538      80897.271    
      4500   307.39899     -25965.21      -26107.579      142.36849      6872.9316      80897.271    
      4600   292.42291     -25967.635     -26103.067      135.43249      6917.8323      80897.271    
      4700   300.08778     -25966.28      -26105.263      138.98239      7008.231       80897.271    
      4800   301.12365     -25965.143     -26104.606      139.46214      6979.724       80897.271    
      4900   300.56441     -25963.202     -26102.405      139.20313      7005.018       80897.271    
      5000   302.33806     -25961.074     -26101.099      140.02458      7093.7981      80897.271    
      5100   303.79881     -25961.156     -26101.858      140.70111      7130.4839      80897.271    
      5200   299.01129     -25963.942     -26102.425      138.48382      6993.9389      80897.271    
      5300   297.96768     -25967.314     -26105.314      138.00048      6854.6212      80897.271    
      5400   295.79055     -25968.332     -26105.324      136.99217      6886.4694      80897.271    
      5500   294.18003     -25966.466     -26102.712      136.24627      6932.8574      80897.271    
      5600   305.2253      -25962.389     -26103.751      141.36177      7051.79        80897.271    
      5700   302.71315     -25961.887     -26102.086      140.1983       7108.9058      80897.271    
      5800   298.32112     -25963.445     -26101.609      138.16417      6990.1557      80897.271    
      5900   298.07622     -25964.83      -26102.881      138.05075      6998.8861      80897.271    
      6000   297.98497     -25966.406     -26104.415      138.00849      7025.5429      80897.271    
      6100   293.64376     -25967.901     -26103.899      135.99791      6918.325       80897.271    
      6200   299.18245     -25967.863     -26106.426      138.56309      6903.4824      80897.271    
      6300   298.55532     -25965.159     -26103.432      138.27264      6943.5681      80897.271    
      6400   306.64941     -25961.284     -26103.305      142.02133      7007.6848      80897.271    
      6500   298.64718     -25962.625     -26100.94       138.31519      7080.4465      80897.271    
      6600   299.70623     -25964.129     -26102.935      138.80567      6985.5168      80897.271    
      6700   301.20488     -25966.559     -26106.058      139.49976      6954.6403      80897.271    
      6800   292.32164     -25970.994     -26106.379      135.38558      6783.6481      80897.271    
      6900   296.03014     -25968.96      -26106.063      137.10313      6810.0792      80897.271    
      7000   296.10501     -25966.344     -26103.482      137.13781      6928.4661      80897.271    
      7100   304.39979     -25963.331     -26104.311      140.97944      7001.9523      80897.271    
      7200   298.31198     -25963.432     -26101.592      138.15994      7069.5         80897.271    
      7300   301.49465     -25963.842     -26103.476      139.63396      6961.0568      80897.271    
      7400   301.48633     -25965.358     -26104.988      139.63011      6997.1567      80897.271    
      7500   290.60576     -25968.724     -26103.315      134.59089      7065.0584      80897.271    
      7600   295.01422     -25968.22      -26104.853      136.63262      6892.2811      80897.271    
      7700   303.74811     -25963.913     -26104.59       140.67762      7043.2402      80897.271    
      7800   303.41617     -25962.167     -26102.691      140.52389      7092.1316      80897.271    
      7900   303.45739     -25963.535     -26104.078      140.54298      7153.2969      80897.271    
      8000   293.84095     -25965.268     -26101.357      136.08923      7067.2758      80897.271    
      8100   302.09041     -25964.73      -26104.64       139.90988      7107.3371      80897.271    
      8200   298.66391     -25965.114     -26103.437      138.32294      7055.1242      80897.271    
      8300   304.84563     -25964.161     -26105.347      141.18593      6912.1407      80897.271    
      8400   294.7709      -25963.968     -26100.488      136.51993      7197.5397      80897.271    
      8500   307.97867     -25960.753     -26103.39       142.63696      7071.9568      80897.271    
      8600   306.86341     -25958.113     -26100.233      142.12044      7107.9203      80897.271    
      8700   308.10927     -25957.717     -26100.415      142.69745      7229.3464      80897.271    
      8800   300.31245     -25963.01      -26102.096      139.08644      7126.3709      80897.271    
      8900   298.1906      -25965.435     -26103.539      138.10373      7008.1426      80897.271    
      9000   304.79692     -25965.217     -26106.381      141.16337      6873.9573      80897.271    
      9100   293.2996      -25965.746     -26101.584      135.83851      7132.6419      80897.271    
      9200   304.23155     -25963.053     -26103.954      140.90153      7012.6882      80897.271    
      9300   301.85571     -25960.706     -26100.507      139.80118      7107.0552      80897.271    
      9400   306.97047     -25960.943     -26103.113      142.17003      7100.9633      80897.271    
      9500   297.81999     -25966.299     -26104.231      137.93208      6935.6189      80897.271    
      9600   295.00182     -25967.403     -26104.029      136.62688      6961.8406      80897.271    
      9700   296.86109     -25965.132     -26102.62       137.48798      6998.8101      80897.271    
      9800   303.87084     -25962.093     -26102.828      140.73447      7085.6836      80897.271    
      9900   299.29021     -25961.988     -26100.601      138.613        7127.9879      80897.271    
     10000   302.00434     -25963.04      -26102.91       139.87002      7090.0425      80897.271    
     10100   298.96979     -25964.397     -26102.862      138.4646       6934.4255      80897.271    
     10200   300.87373     -25965.116     -26104.463      139.34639      7016.4042      80897.271    
     10300   297.96587     -25965.702     -26103.702      137.99964      6974.2949      80897.271    
     10400   300.58852     -25963.309     -26102.523      139.2143       7061.3784      80897.271    
     10500   304.76755     -25959.846     -26100.995      141.14977      7164.0621      80897.271    
     10600   307.65236     -25959.283     -26101.769      142.48584      7106.3407      80897.271    
     10700   297.82978     -25963.768     -26101.705      137.93662      7109.6124      80897.271    
     10800   300.63621     -25965.492     -26104.729      139.23639      7000.2572      80897.271    
     10900   296.17377     -25966.322     -26103.492      137.16965      6988.5993      80897.271    
     11000   300.9816      -25964.142     -26103.539      139.39635      7032.1094      80897.271    
     11100   305.67752     -25960.573     -26102.144      141.57121      7174.1076      80897.271    
     11200   299.52479     -25961.304     -26100.026      138.72164      7162.1035      80897.271    
     11300   297.01175     -25967.959     -26105.517      137.55775      6997.1866      80897.271    
     11400   298.44358     -25969.643     -26107.864      138.22089      6830.0401      80897.271    
     11500   295.17749     -25967.114     -26103.822      136.70824      7021.932       80897.271    
     11600   297.12313     -25963.33      -26100.939      137.60934      7140.4923      80897.271    
     11700   305.26035     -25962.224     -26103.602      141.378        7079.3991      80897.271    
     11800   299.66294     -25964.511     -26103.296      138.78562      7027.2325      80897.271    
     11900   296.78799     -25967.123     -26104.577      137.45412      6962.2201      80897.271    
     12000   294.37611     -25970.237     -26106.574      136.33709      6796.998       80897.271    
     12100   293.46035     -25970.907     -26106.82       135.91296      6876.7259      80897.271    
     12200   298.36447     -25965.624     -26103.809      138.18425      7154.4238      80897.271    
     12300   293.31467     -25963.372     -26099.218      135.84549      7180.5979      80897.271    
     12400   308.27744     -25960.668     -26103.444      142.77534      7140.0722      80897.271    
     12500   307.29602     -25961.843     -26104.164      142.3208       7087.251       80897.271    
     12600   301.65922     -25965.714     -26105.424      139.71018      6975.3752      80897.271    
     12700   291.26748     -25968.269     -26103.167      134.89736      7041.0942      80897.271    
     12800   298.56        -25966.888     -26105.163      138.27481      7006.4414      80897.271    
     12900   301.34872     -25964.751     -26104.317      139.56637      6949.7118      80897.271    
     13000   301.39116     -25962.615     -26102.201      139.58603      7031.2755      80897.271    
     13100   297.26361     -25961.653     -26099.327      137.6744       7260.1636      80897.271    
     13200   306.55072     -25959.999     -26101.975      141.97563      7190.6071      80897.271    
     13300   300.36801     -25962.14      -26101.252      139.11217      7096.4816      80897.271    
     13400   302.53561     -25965.425     -26105.541      140.11607      6987.7716      80897.271    
     13500   294.38441     -25968.127     -26104.468      136.34093      6952.2386      80897.271    
     13600   302.98853     -25965.612     -26105.938      140.32584      6989.2273      80897.271    
     13700   294.4052      -25964.156     -26100.506      136.35056      7125.1438      80897.271    
     13800   301.51119     -25963.039     -26102.681      139.64162      7083.8344      80897.271    
     13900   304.19853     -25964.286     -26105.172      140.88623      7028.6304      80897.271    
     14000   300.69733     -25966.825     -26106.09       139.26469      6951.3076      80897.271    
     14100   299.43142     -25967.302     -26105.98       138.6784       6909.0383      80897.271    
     14200   297.99406     -25965.4       -26103.413      138.0127       7061.1786      80897.271    
     14300   301.14139     -25962.193     -26101.663      139.47035      7120.9581      80897.271    
     14400   305.65722     -25961.231     -26102.793      141.56181      7146.2832      80897.271    
     14500   296.37912     -25963.612     -26100.877      137.26476      7089.7205      80897.271    
     14600   298.69835     -25965.972     -26104.311      138.33889      7036.1649      80897.271    
     14700   294.1517      -25969.434     -26105.668      136.23315      6968.655       80897.271    
     14800   300.10451     -25967.726     -26106.716      138.99013      6910.4749      80897.271    
     14900   297.61878     -25965.967     -26103.806      137.83889      7083.1395      80897.271    
     15000   296.63955     -25964.564     -26101.949      137.38538      7083.1821      80897.271    
     15100   307.99606     -25962.157     -26104.802      142.64502      7092.1802      80897.271    
     15200   302.22409     -25964.29      -26104.262      139.97179      7071.3956      80897.271    
     15300   297.95243     -25966.826     -26104.82       137.99342      7028.7823      80897.271    
     15400   298.6498      -25966.603     -26104.919      138.3164       7026.331       80897.271    
     15500   298.99372     -25965.531     -26104.007      138.47568      7120.9227      80897.271    
     15600   296.79328     -25964.39      -26101.847      137.45657      7175.2081      80897.271    
     15700   304.28405     -25961.602     -26102.528      140.92584      7140.8411      80897.271    
     15800   307.58054     -25957.806     -26100.259      142.45258      7257.122       80897.271    
     15900   301.29345     -25957.78      -26097.321      139.54078      7373.9429      80897.271    
     16000   302.3249      -25963.976     -26103.994      140.01848      7074.7807      80897.271    
     16100   299.3359      -25965.771     -26104.405      138.63416      7085.2755      80897.271    
     16200   301.10106     -25965.296     -26104.747      139.45167      7007.6583      80897.271    
     16300   300.37886     -25963.812     -26102.929      139.11719      7135.6442      80897.271    
     16400   295.32576     -25962.437     -26099.214      136.77691      7247.1229      80897.271    
     16500   308.54206     -25960.313     -26103.211      142.89789      7128.0447      80897.271    
     16600   300.6924      -25963.567     -26102.829      139.26241      7096.5354      80897.271    
     16700   298.76655     -25967.035     -26105.406      138.37047      6909.9693      80897.271    
     16800   297.75656     -25967.261     -26105.164      137.9027       6967.75        80897.271    
     16900   292.11496     -25965.393     -26100.683      135.28986      7211.5753      80897.271    
     17000   302.06187     -25963.745     -26103.641      139.89666      7079.7039      80897.271    
     17100   299.27621     -25963.481     -26102.088      138.60651      7174.9579      80897.271    
     17200   307.09522     -25962.45      -26104.678      142.2278       7039.0485      80897.271    
     17300   296.07573     -25965.477     -26102.601      137.12425      7159.5919      80897.271    
     17400   293.69227     -25968.123     -26104.144      136.02037      7008.3735      80897.271    
     17500   292.74946     -25970.121     -26105.704      135.58372      6936.4407      80897.271    
     17600   293.49976     -25970.118     -26106.049      135.93121      6868.6118      80897.271    
     17700   302.62961     -25965.367     -26105.526      140.15961      7039.5473      80897.271    
     17800   297.5029      -25963.587     -26101.372      137.78523      7159.7586      80897.271    
     17900   301.72956     -25962.469     -26102.212      139.74276      7185.6991      80897.271    
     18000   299.52097     -25965.004     -26103.724      138.71987      6997.5105      80897.271    
     18100   293.33596     -25968.516     -26104.372      135.85535      7001.2635      80897.271    
     18200   305.2942      -25966.689     -26108.083      141.39368      6910.9703      80897.271    
     18300   298.18305     -25960.735     -26098.835      138.10023      7262.1373      80897.271    
     18400   302.18018     -25958.956     -26098.908      139.95146      7274.9041      80897.271    
     18500   305.38656     -25961.962     -26103.399      141.43646      7086.7515      80897.271    
     18600   298.78337     -25965.855     -26104.234      138.37826      7055.5594      80897.271    
     18700   299.08941     -25965.969     -26104.489      138.52         7039.0945      80897.271    
     18800   301.5966      -25964.154     -26103.835      139.68118      6989.7329      80897.271    
     18900   305.45494     -25962.097     -26103.565      141.46813      7139.7151      80897.271    
     19000   305.79231     -25960.283     -26101.908      141.62438      7219.9158      80897.271    
     19100   301.39103     -25961.382     -26100.968      139.58597      7121.1258      80897.271    
     19200   298.63106     -25965.691     -26103.999      138.30772      7040.1278      80897.271    
     19300   298.83709     -25967.544     -26105.947      138.40314      7000.5244      80897.271    
     19400   299.30349     -25966.204     -26104.824      138.61915      6957.545       80897.271    
     19500   302.45024     -25962.378     -26102.454      140.07653      7076.0492      80897.271    
     19600   297.93761     -25961.969     -26099.956      137.98656      7233.9657      80897.271    
     19700   303.46843     -25962.834     -26103.382      140.5481       7136.5065      80897.271    
     19800   300.19284     -25964.765     -26103.796      139.03104      7034.7132      80897.271    
     19900   293.64245     -25966.894     -26102.891      135.9973       7076.7986      80897.271    
     20000   296.79074     -25968.604     -26106.06       137.4554       6923.1397      80897.271    
     20100   298.6849      -25968.486     -26106.819      138.33266      6894.3438      80897.271    
     20200   299.507       -25964.885     -26103.599      138.7134       7035.5884      80897.271    
     20300   302.17553     -25961.665     -26101.615      139.9493       7128.6151      80897.271    
     20400   303.80293     -25962.24      -26102.943      140.70301      7129.9271      80897.271    
     20500   300.84081     -25965.375     -26104.706      139.33114      7069.3939      80897.271    
     20600   296.18236     -25966.513     -26103.687      137.17363      7003.8297      80897.271    
     20700   293.75151     -25965.682     -26101.73       136.04781      7097.924       80897.271    
     20800   299.8549      -25964.807     -26103.682      138.87453      7099.9658      80897.271    
     20900   300.85183     -25964.29      -26103.626      139.33624      7075.3857      80897.271    
     21000   302.70344     -25962.252     -26102.446      140.1938       7164.8516      80897.271    
     21100   304.47569     -25957.734     -26098.749      141.0146       7372.114       80897.271    
     21200   304.78506     -25957.36      -26098.518      141.15788      7321.18        80897.271    
     21300   305.49423     -25963.265     -26104.752      141.48632      7135.0372      80897.271    
     21400   300.12797     -25965.859     -26104.86       139.001        7031.7252      80897.271    
     21500   297.43387     -25966.729     -26104.482      137.75325      6987.2591      80897.271    
     21600   301.30937     -25964.749     -26104.297      139.54815      7028.526       80897.271    
     21700   303.77436     -25961.534     -26102.224      140.68978      7186.8571      80897.271    
     21800   297.73        -25961.625     -26099.516      137.8904       7217.7871      80897.271    
     21900   304.87258     -25964.079     -26105.278      141.19841      7076.7541      80897.271    
     22000   293.87605     -25968.971     -26105.077      136.10549      6988.8428      80897.271    
     22100   293.59613     -25968.18      -26104.156      135.97585      7102.1287      80897.271    
     22200   301.19892     -25964.815     -26104.312      139.497        7066.5246      80897.271    
     22300   305.16328     -25962.345     -26103.678      141.33305      7140.027       80897.271    
     22400   298.56633     -25962.733     -26101.01       138.27774      7047.1645      80897.271    
     22500   300.71067     -25964.076     -26103.347      139.27087      7148.3951      80897.271    
     22600   297.77726     -25966.775     -26104.687      137.91229      6907.1248      80897.271    
     22700   286.00642     -25972.717     -26105.178      132.46075      6975.098       80897.271    
     22800   301.03168     -25971.399     -26110.819      139.41954      6785.9101      80897.271    
     22900   291.4349      -25968.739     -26103.714      134.9749       6982.7709      80897.271    
     23000   303.5182      -25964.923     -26105.494      140.57114      7116.9111      80897.271    
     23100   297.11213     -25964.45      -26102.055      137.60424      7057.387       80897.271    
     23200   302.80621     -25962.326     -26102.567      140.2414       7070.9687      80897.271    
     23300   301.98375     -25961.109     -26100.97       139.86048      7139.854       80897.271    
     23400   299.82219     -25962.62      -26101.48       138.85938      7105.9743      80897.271    
     23500   295.17254     -25967.621     -26104.327      136.70595      6948.8757      80897.271    
     23600   301.8863      -25967.218     -26107.033      139.81535      6868.4792      80897.271    
     23700   298.88833     -25964.855     -26103.282      138.42687      7088.1555      80897.271    
     23800   300.647       -25963.006     -26102.248      139.24138      7156.1421      80897.271    
     23900   299.40804     -25962.969     -26101.636      138.66757      7174.5161      80897.271    
     24000   304.87837     -25962.571     -26103.772      141.20109      7058.3595      80897.271    
     24100   299.6124      -25964.262     -26103.024      138.76222      7065.6314      80897.271    
     24200   300.99489     -25966.088     -26105.491      139.4025       6997.114       80897.271    
     24300   291.20369     -25968.676     -26103.544      134.86781      7041.9346      80897.271    
     24400   300.14021     -25966.35      -26105.357      139.00667      6929.5522      80897.271    
     24500   297.36139     -25962.6       -26100.32       137.71969      7191.9237      80897.271    
     24600   306.97825     -25961.425     -26103.599      142.17363      7071.8941      80897.271    
     24700   299.48462     -25963.489     -26102.192      138.70304      7116.4847      80897.271    
     24800   299.46533     -25964.322     -26103.016      138.6941       7134.0186      80897.271    
     24900   298.7536      -25965.429     -26103.794      138.36447      7090.4391      80897.271    
     25000   293.96415     -25968.692     -26104.838      136.14629      6939.7405      80897.271    
     25100   298.73932     -25968.543     -26106.901      138.35786      6914.6084      80897.271    
     25200   298.06681     -25964.662     -26102.709      138.04639      7104.777       80897.271    
     25300   306.49998     -25961.718     -26103.67       141.95213      6995.3835      80897.271    
     25400   297.76806     -25962.845     -26100.753      137.90803      7157.831       80897.271    
     25500   302.02579     -25963.589     -26103.469      139.87995      7030.7472      80897.271    
     25600   292.81653     -25968.314     -26103.929      135.61478      7012.9278      80897.271    
     25700   297.03424     -25969.523     -26107.091      137.56817      6886.0625      80897.271    
     25800   296.49131     -25967.16      -26104.476      137.31672      6990.2054      80897.271    
     25900   300.91391     -25964.687     -26104.052      139.365        7038.8023      80897.271    
     26000   297.54654     -25964.381     -26102.186      137.80544      7008.1546      80897.271    
     26100   299.20076     -25963.913     -26102.485      138.57157      7088.6855      80897.271    
     26200   301.15526     -25963.54      -26103.017      139.47677      6989.1128      80897.271    
     26300   305.47115     -25963.98      -26105.455      141.47563      6918.4589      80897.271    
     26400   294.12845     -25966.436     -26102.659      136.22239      7035.7639      80897.271    
     26500   298.48813     -25966.705     -26104.946      138.24152      6940.3291      80897.271    
     26600   298.59246     -25965.064     -26103.354      138.28984      7006.9482      80897.271    
     26700   306.98398     -25961.3       -26103.477      142.17628      7091.624       80897.271    
     26800   301.63926     -25961.391     -26101.092      139.70093      7120.9403      80897.271    
     26900   297.371       -25964.852     -26102.576      137.72414      7125.3315      80897.271    
     27000   294.41046     -25968.162     -26104.515      136.35299      7023.1275      80897.271    
     27100   301.66473     -25966.367     -26106.079      139.71273      7021.8334      80897.271    
     27200   299.05767     -25964.232     -26102.737      138.5053       7068.5906      80897.271    
     27300   300.75579     -25961.973     -26101.265      139.29177      7114.65        80897.271    
     27400   301.68008     -25960.725     -26100.445      139.71984      7173.1479      80897.271    
     27500   305.32357     -25959.405     -26100.812      141.40728      7243.0542      80897.271    
     27600   301.48004     -25962.209     -26101.836      139.62719      7179.4204      80897.271    
     27700   299.11003     -25965.815     -26104.345      138.52955      7011.6139      80897.271    
     27800   296.37117     -25968.27      -26105.531      137.26108      6972.9524      80897.271    
     27900   294.36815     -25967.88      -26104.213      136.3334       6982.642       80897.271    
     28000   302.27731     -25963.404     -26103.4        139.99644      7105.3579      80897.271    
     28100   303.73986     -25962.001     -26102.675      140.67381      7164.6882      80897.271    
     28200   294.30858     -25964.15      -26100.456      136.30581      7110.8262      80897.271    
     28300   298.6099      -25964.249     -26102.547      138.29792      7172.5343      80897.271    
     28400   305.51265     -25963.695     -26105.19       141.49485      7122.8203      80897.271    
     28500   291.94104     -25968.002     -26103.212      135.20931      7037.1124      80897.271    
     28600   299.20551     -25969.914     -26108.488      138.57377      6920.0629      80897.271    
     28700   291.47183     -25968.951     -26103.943      134.992        7014.2354      80897.271    
     28800   301.69857     -25963.243     -26102.971      139.7284       7113.9964      80897.271    
     28900   298.97453     -25962.745     -26101.212      138.46679      7212.633       80897.271    
     29000   305.06237     -25962.908     -26104.194      141.28631      7057.639       80897.271    
     29100   298.07199     -25966.217     -26104.265      138.04879      6998.0791      80897.271    
     29200   299.53186     -25968.155     -26106.88       138.72492      6973.0087      80897.271    
     29300   294.73179     -25967.357     -26103.859      136.50182      6987.7809      80897.271    
     29400   299.18972     -25962.076     -26100.643      138.56646      7331.8632      80897.271    
     29500   302.50226     -25961.703     -26101.804      140.10063      7151.9463      80897.271    
     29600   306.32021     -25962.808     -26104.677      141.86887      7088.3407      80897.271    
     29700   299.44295     -25966.123     -26104.806      138.68374      7001.9342      80897.271    
     29800   291.64666     -25967.634     -26102.707      135.07297      7134.0879      80897.271    
     29900   298.53985     -25965.133     -26103.399      138.26548      7050.2476      80897.271    
     30000   307.35026     -25958.519     -26100.865      142.34592      7159.1005      80897.271    
     30100   307.1516      -25958.702     -26100.956      142.25392      7188.743       80897.271    
     30200   301.97684     -25962.923     -26102.78       139.85728      7020.7146      80897.271    
     30300   300.274       -25964.843     -26103.912      139.06863      7053.2979      80897.271    
     30400   298.99489     -25966.393     -26104.869      138.47622      6935.5731      80897.271    
     30500   295.77064     -25968.149     -26105.132      136.98295      6981.2918      80897.271    
     30600   304.64392     -25965.274     -26106.367      141.09251      6997.2371      80897.271    
     30700   300.86502     -25961.634     -26100.977      139.34235      7128.4713      80897.271    
     30800   303.96147     -25959.779     -26100.556      140.77644      7252.4654      80897.271    
     30900   303.24756     -25962.639     -26103.085      140.4458       7130.5214      80897.271    
     31000   295.7731      -25965.069     -26102.053      136.98409      7079.4354      80897.271    
     31100   297.81913     -25964.14      -26102.072      137.93168      7145.5677      80897.271    
     31200   301.82205     -25962.277     -26102.062      139.78559      7101.8632      80897.271    
     31300   306.4276      -25961.599     -26103.517      141.9186       7123.9824      80897.271    
     31400   295.65091     -25965.99      -26102.918      136.9275       7032.3854      80897.271    
     31500   294.61221     -25967.555     -26104.001      136.44643      7034.5687      80897.271    
     31600   299.04227     -25966.218     -26104.716      138.49817      6964.762       80897.271    
     31700   308.35424     -25963.864     -26106.674      142.8109       6970.1591      80897.271    
     31800   298.59133     -25964.162     -26102.451      138.28932      7052.0744      80897.271    
     31900   301.25298     -25963.605     -26103.127      139.52203      7038.4153      80897.271    
     32000   298.95065     -25963.526     -26101.982      138.45573      7147.1183      80897.271    
     32100   298.77679     -25963.948     -26102.323      138.37521      7042.6931      80897.271    
     32200   301.75264     -25965.506     -26105.259      139.75345      6982.4893      80897.271    
     32300   295.89626     -25967.445     -26104.487      137.04113      6939.0028      80897.271    
     32400   293.48374     -25966.748     -26102.672      135.92379      7063.4841      80897.271    
     32500   305.68423     -25962.186     -26103.76       141.57432      6945.5153      80897.271    
     32600   302.89422     -25961.635     -26101.917      140.28215      7161.9025      80897.271    
     32700   298.22289     -25963.613     -26101.732      138.11868      7107.5071      80897.271    
     32800   297.34485     -25966.589     -26104.301      137.71203      7015.4885      80897.271    
     32900   291.29261     -25970.959     -26105.868      134.909        6892.7924      80897.271    
     33000   298.89302     -25969.384     -26107.813      138.42905      6847.856       80897.271    
     33100   297.85114     -25965.898     -26103.845      137.94651      7019.6535      80897.271    
     33200   301.31344     -25964.899     -26104.449      139.55004      7029.8771      80897.271    
     33300   296.62756     -25964.802     -26102.182      137.37982      7120.9228      80897.271    
     33400   302.07002     -25962.385     -26102.285      139.90043      7129.4214      80897.271    
     33500   301.02398     -25961.026     -26100.442      139.41598      7260.3137      80897.271    
     33600   308.74629     -25960.963     -26103.955      142.99248      7121.3785      80897.271    
     33700   295.79995     -25965.866     -26102.862      136.99652      7072.8744      80897.271    
     33800   300.07009     -25967.112     -26106.087      138.97419      6972.9559      80897.271    
     33900   299.92304     -25965.977     -26104.883      138.90609      6996.596       80897.271    
     34000   303.42379     -25962.58      -26103.107      140.52742      7028.4232      80897.271    
     34100   302.70567     -25960.794     -26100.989      140.19483      7180.5773      80897.271    
     34200   300.85675     -25960.79      -26100.128      139.33852      7198.9078      80897.271    
     34300   303.11444     -25963.206     -26103.59       140.38415      7164.0363      80897.271    
     34400   293.92069     -25967.38      -26103.506      136.12617      6963.9733      80897.271    
     34500   297.32766     -25967.131     -26104.835      137.70407      6970.615       80897.271    
     34600   302.624       -25964.198     -26104.355      140.15701      7087.5009      80897.271    
     34700   303.52746     -25961.673     -26102.248      140.57543      7052.9059      80897.271    
     34800   303.38353     -25959.533     -26100.042      140.50878      7210.3014      80897.271    
     34900   308.16638     -25955.889     -26098.612      142.7239       7335.9896      80897.271    
     35000   306.02288     -25959.543     -26101.274      141.73116      7187.1861      80897.271    
     35100   303.22052     -25963.468     -26103.901      140.43328      7005.2536      80897.271    
     35200   295.72344     -25965.481     -26102.442      136.96109      7103.1068      80897.271    
     35300   297.68058     -25965.654     -26103.522      137.86752      7018.897       80897.271    
     35400   307.94491     -25964.137     -26106.758      142.62133      6977.7028      80897.271    
     35500   301.96419     -25962.898     -26102.749      139.85142      7117.3827      80897.271    
     35600   297.34783     -25961.969     -26099.683      137.71341      7180.8745      80897.271    
     35700   301.37193     -25961.927     -26101.504      139.57712      7215.666       80897.271    
     35800   300.16673     -25965.342     -26104.361      139.01895      7000.1088      80897.271    
     35900   298.85798     -25967.128     -26105.541      138.41281      6857.3675      80897.271    
     36000   297.69452     -25966.544     -26104.418      137.87397      7066.5551      80897.271    
     36100   304.76147     -25961.356     -26102.503      141.14695      7159.0115      80897.271    
     36200   301.40049     -25959.153     -26098.744      139.59035      7265.0459      80897.271    
     36300   304.59218     -25961.653     -26102.721      141.06855      7118.8464      80897.271    
     36400   300.26661     -25963.947     -26103.012      139.06521      7111.926       80897.271    
     36500   297.38906     -25965.28      -26103.012      137.7325       7076.639       80897.271    
     36600   301.90032     -25965.522     -26105.344      139.82184      6965.6655      80897.271    
     36700   296.44578     -25964.28      -26101.576      137.29563      7170.1976      80897.271    
     36800   303.49427     -25960.805     -26101.365      140.56006      7186.4665      80897.271    
     36900   308.13795     -25959.92      -26102.631      142.71073      7115.4344      80897.271    
     37000   301.92124     -25963.802     -26103.633      139.83153      7156.877       80897.271    
     37100   297.04371     -25967.243     -26104.816      137.57256      7021.306       80897.271    
     37200   296.19463     -25967.169     -26104.349      137.17931      7041.6244      80897.271    
     37300   300.08062     -25964.827     -26103.806      138.97907      7022.1386      80897.271    
     37400   306.66249     -25960.855     -26102.883      142.02739      7129.5191      80897.271    
     37500   301.06265     -25960.08      -26099.513      139.43388      7272.9669      80897.271    
     37600   302.72923     -25961.532     -26101.737      140.20574      7087.532       80897.271    
     37700   302.05464     -25964.143     -26104.036      139.89331      7073.1425      80897.271    
     37800   299.89683     -25965.601     -26104.495      138.89395      7003.3535      80897.271    
     37900   298.86028     -25965.742     -26104.156      138.41388      7034.8397      80897.271    
     38000   300.07924     -25963.517     -26102.495      138.97843      7114.7591      80897.271    
     38100   304.68856     -25960.07      -26101.183      141.11319      7110.8625      80897.271    
     38200   301.26963     -25961.319     -26100.849      139.52975      7115.0418      80897.271    
     38300   301.64333     -25964.436     -26104.139      139.70282      7119.0006      80897.271    
     38400   296.56233     -25968.964     -26106.313      137.34961      6932.4395      80897.271    
     38500   296.7959      -25968.048     -26105.505      137.45778      6880.6138      80897.271    
     38600   300.5905      -25965.314     -26104.529      139.21521      7075.3947      80897.271    
     38700   298.37338     -25962.932     -26101.12       138.18838      7089.4613      80897.271    
     38800   303.50102     -25961.978     -26102.541      140.56319      7107.038       80897.271    
     38900   299.69495     -25962.981     -26101.782      138.80045      7099.9908      80897.271    
     39000   303.7174      -25963.717     -26104.38       140.66341      7045.8779      80897.271    
     39100   299.8671      -25964.561     -26103.441      138.88018      7005.2179      80897.271    
     39200   297.26158     -25964.589     -26102.262      137.67346      7129.7605      80897.271    
     39300   296.97163     -25964.607     -26102.146      137.53917      7075.0964      80897.271    
     39400   305.459       -25964.79      -26106.26       141.47001      7030.9959      80897.271    
     39500   302.16225     -25965.857     -26105.8        139.94315      6965.8487      80897.271    
     39600   290.50341     -25967.488     -26102.032      134.54349      7078.9577      80897.271    
     39700   296.54895     -25965.543     -26102.886      137.34341      7033.4849      80897.271    
     39800   302.86038     -25961.68      -26101.947      140.26649      7069.1331      80897.271    
     39900   304.92689     -25959.411     -26100.635      141.22357      7180.9296      80897.271    
     40000   303.78623     -25960.717     -26101.412      140.69528      7088.3883      80897.271    
     40100   303.64578     -25963.248     -26103.878      140.63023      7065.4045      80897.271    
     40200   298.28342     -25965.13      -26103.277      138.14672      6981.624       80897.271    
     40300   293.40459     -25965.868     -26101.755      135.88714      7106.4075      80897.271    
     40400   305.93359     -25964.035     -26105.725      141.68981      6984.6575      80897.271    
     40500   305.71072     -25961.701     -26103.287      141.58659      7035.1606      80897.271    
     40600   305.33069     -25958.248     -26099.659      141.41058      7309.5491      80897.271    
     40700   299.6389      -25959.75      -26098.525      138.77449      7227.0452      80897.271    
     40800   302.14001     -25963.837     -26103.77       139.93285      7032.5414      80897.271    
     40900   305.24093     -25965.136     -26106.505      141.36901      6931.6138      80897.271    
     41000   293.98638     -25966.202     -26102.359      136.15659      6997.9285      80897.271    
     41100   302.43502     -25962.592     -26102.662      140.06948      7143.6413      80897.271    
     41200   295.77473     -25962.689     -26099.674      136.98484      7135.1849      80897.271    
     41300   301.69285     -25962.818     -26102.544      139.72575      7167.7221      80897.271    
     41400   304.09946     -25963.121     -26103.961      140.84035      6975.9869      80897.271    
     41500   294.08534     -25965.45      -26101.652      136.20242      7083.7342      80897.271    
     41600   302.62933     -25966.328     -26106.488      140.15948      6942.733       80897.271    
     41700   287.37724     -25969.584     -26102.68       133.09564      6997.3114      80897.271    
     41800   300.24191     -25967.792     -26106.846      139.05377      6869.1448      80897.271    
     41900   302.92667     -25964.384     -26104.681      140.29719      6974.4149      80897.271    
     42000   301.62048     -25961.99      -26101.682      139.69224      7108.1019      80897.271    
     42100   301.18255     -25961.844     -26101.333      139.48942      7102.3895      80897.271    
     42200   295.66707     -25964.346     -26101.281      136.93498      7170.2914      80897.271    
     42300   293.1562      -25970.119     -26105.891      135.7721       6886.1877      80897.271    
     42400   297.89568     -25971.074     -26109.041      137.96714      6826.4447      80897.271    
     42500   298.30981     -25967.342     -26105.501      138.15894      6979.4579      80897.271    
     42600   296.24195     -25964.866     -26102.067      137.20123      7120.5558      80897.271    
     42700   294.14533     -25964.1       -26100.33       136.2302       7178.6853      80897.271    
     42800   305.39441     -25962.838     -26104.278      141.44009      7067.4106      80897.271    
     42900   301.65351     -25963.334     -26103.042      139.70753      7098.1869      80897.271    
     43000   298.07618     -25966.504     -26104.555      138.05073      7072.4597      80897.271    
     43100   297.20591     -25967.957     -26105.605      137.64768      6987.5994      80897.271    
     43200   295.03621     -25966.061     -26102.704      136.64281      7046.2799      80897.271    
     43300   303.76953     -25961.493     -26102.181      140.68755      7161.5474      80897.271    
     43400   302.47408     -25960.428     -26100.516      140.08757      7184.737       80897.271    
     43500   301.35978     -25961.91      -26101.482      139.57149      7202.4701      80897.271    
     43600   301.01094     -25963.149     -26102.559      139.40994      7105.1156      80897.271    
     43700   298.45281     -25964.827     -26103.053      138.22517      7093.4056      80897.271    
     43800   298.08731     -25965.93      -26103.986      138.05589      6975.9772      80897.271    
     43900   301.62573     -25963.988     -26103.683      139.69467      7092.1856      80897.271    
     44000   305.26397     -25959.556     -26100.935      141.37968      7206.8785      80897.271    
     44100   306.82553     -25959.505     -26101.608      142.1029       7226.8907      80897.271    
     44200   297.63667     -25966.091     -26103.938      137.84718      7004.6837      80897.271    
     44300   300.27132     -25966.979     -26106.046      139.06739      6942.459       80897.271    
     44400   301.52214     -25965.644     -26105.291      139.64669      6945.0856      80897.271    
     44500   301.04615     -25963.349     -26102.775      139.42624      7071.7715      80897.271    
     44600   302.7331      -25961.296     -26101.503      140.20754      7188.778       80897.271    
     44700   303.51369     -25961.083     -26101.652      140.56906      7149.3471      80897.271    
     44800   301.46705     -25965.333     -26104.954      139.62118      7068.7033      80897.271    
     44900   295.85402     -25967.942     -26104.964      137.02156      6842.8846      80897.271    
     45000   300.80495     -25966.234     -26105.548      139.31453      7009.2914      80897.271    
     45100   293.83349     -25965.204     -26101.29       136.08578      7042.272       80897.271    
     45200   303.86239     -25963.375     -26104.105      140.73055      7077.1345      80897.271    
     45300   296.64743     -25963.755     -26101.144      137.38902      7096.9786      80897.271    
     45400   303.69402     -25962.779     -26103.432      140.65257      7063.0047      80897.271    
     45500   304.69047     -25962.241     -26103.355      141.11407      7074.4931      80897.271    
     45600   301.38459     -25964.035     -26103.618      139.58299      7053.313       80897.271    
     45700   301.4589      -25965.805     -26105.422      139.6174       6987.9268      80897.271    
     45800   294.97979     -25967.514     -26104.131      136.61667      6995.0551      80897.271    
     45900   301.38384     -25966.028     -26105.611      139.58264      7010.277       80897.271    
     46000   303.9343      -25962.533     -26103.297      140.76386      7148.9056      80897.271    
     46100   300.2498      -25960.672     -26099.729      139.05742      7286.2563      80897.271    
     46200   300.87452     -25960.874     -26100.221      139.34676      7225.2986      80897.271    
     46300   297.24794     -25966.431     -26104.098      137.66714      7064.055       80897.271    
     46400   296.30096     -25968.933     -26106.161      137.22856      7014.2971      80897.271    
     46500   298.87668     -25967.384     -26105.806      138.42148      6974.7799      80897.271    
     46600   298.7512      -25964.174     -26102.537      138.36336      7101.6596      80897.271    
     46700   300.71172     -25963.15      -26102.421      139.27136      7122.7957      80897.271    
     46800   296.4898      -25964.221     -26101.537      137.31602      7153.4706      80897.271    
     46900   302.78155     -25964.944     -26105.174      140.22998      6982.0807      80897.271    
     47000   293.81375     -25969.481     -26105.557      136.07664      6906.5228      80897.271    
     47100   295.29545     -25970.606     -26107.369      136.76287      6903.9839      80897.271    
     47200   294.58459     -25967.466     -26103.899      136.43364      6947.9609      80897.271    
     47300   298.96899     -25964.691     -26103.155      138.46423      6980.3604      80897.271    
     47400   302.35081     -25964.143     -26104.173      140.03048      7075.1915      80897.271    
     47500   302.77011     -25964.008     -26104.233      140.22467      7059.6874      80897.271    
     47600   304.18583     -25962.182     -26103.063      140.88035      7142.3802      80897.271    
     47700   299.05345     -25960.378     -26098.881      138.50334      7264.4579      80897.271    
     47800   302.07813     -25961.772     -26101.676      139.90419      7101.1314      80897.271    
     47900   300.49592     -25965.404     -26104.575      139.17141      7028.0177      80897.271    
     48000   296.72199     -25967.251     -26104.674      137.42356      6961.9303      80897.271    
     48100   303.87644     -25965.807     -26106.545      140.73706      6989.7075      80897.271    
     48200   302.1495      -25962.888     -26102.825      139.93725      7103.3729      80897.271    
     48300   304.52907     -25957.366     -26098.405      141.03932      7338.3098      80897.271    
     48400   312.03997     -25956.171     -26100.689      144.51791      7305.0372      80897.271    
     48500   303.67473     -25960.062     -26100.706      140.64364      7325.8329      80897.271    
     48600   303.7944      -25962.586     -26103.285      140.69906      7112.4622      80897.271    
     48700   299.71499     -25965.901     -26104.71       138.80973      7073.9924      80897.271    
     48800   295.81852     -25967.143     -26104.148      137.00512      7120.4271      80897.271    
     48900   298.42516     -25965.311     -26103.524      138.21236      7103.3509      80897.271    
     49000   305.20695     -25960.42      -26101.773      141.35327      7188.1316      80897.271    
     49100   304.61486     -25959.544     -26100.623      141.07905      7225.1242      80897.271    
     49200   300.76157     -25961.892     -26101.186      139.29444      7139.6222      80897.271    
     49300   298.61597     -25963.785     -26102.086      138.30073      7143.1225      80897.271    
     49400   297.1583      -25965.037     -26102.663      137.62563      7039.2177      80897.271    
     49500   300.66297     -25965.633     -26104.881      139.24878      6996.8315      80897.271    
     49600   298.91308     -25967.584     -26106.022      138.43834      6957.5262      80897.271    
     49700   296.8754      -25968.432     -26105.927      137.4946       7000.2788      80897.271    
     49800   294.265       -25965.715     -26102          136.28563      7138.4365      80897.271    
     49900   301.10451     -25962.116     -26101.569      139.45327      7102.1853      80897.271    
     50000   310.21119     -25961         -26104.671      143.67093      7074.7293      80897.271    
     50100   298.19421     -25963.543     -26101.648      138.1054       7023.2595      80897.271    
     50200   295.10395     -25965.539     -26102.213      136.67418      7154.8651      80897.271    
     50300   298.45324     -25965.996     -26104.222      138.22537      7032.2685      80897.271    
     50400   303.78781     -25964.718     -26105.414      140.69601      7031.9258      80897.271    
     50500   301.2024      -25963.868     -26103.366      139.49861      7118.1257      80897.271    
     50600   301.24181     -25963.264     -26102.781      139.51686      7122.7958      80897.271    
     50700   297.0136      -25963.842     -26101.4        137.55861      7196.6188      80897.271    
     50800   296.56987     -25965.901     -26103.254      137.3531       7094.2155      80897.271    
     50900   296.54465     -25967.436     -26104.778      137.34142      6997.3463      80897.271    
     51000   302.39978     -25966.138     -26106.191      140.05316      6934.1826      80897.271    
     51100   303.17727     -25961.595     -26102.009      140.41325      7164.5974      80897.271    
     51200   303.38434     -25960.203     -26100.712      140.50915      7257.461       80897.271    
     51300   301.3885      -25962.906     -26102.491      139.5848       7163.4191      80897.271    
     51400   298.9035      -25965.322     -26103.756      138.4339       7062.1624      80897.271    
     51500   300.16885     -25965.467     -26104.487      139.01993      7004.032       80897.271    
     51600   303.37302     -25963.925     -26104.429      140.50391      7129.9147      80897.271    
     51700   300.04789     -25962.403     -26101.367      138.96391      7216.9373      80897.271    
     51800   299.74549     -25960.57      -26099.394      138.82385      7334.2827      80897.271    
     51900   309.98854     -25959.734     -26103.302      143.56781      7181.0679      80897.271    
     52000   302.62266     -25963.68      -26103.836      140.15639      7096.7749      80897.271    
     52100   302.47863     -25966.074     -26106.164      140.08968      6967.461       80897.271    
     52200   290.02306     -25967.708     -26102.029      134.32102      7196.0745      80897.271    
     52300   304.12148     -25964.478     -26105.329      140.85055      7019.8644      80897.271    
     52400   300.84494     -25962.766     -26102.099      139.33306      7164.4579      80897.271    
     52500   306.19628     -25962.161     -26103.973      141.81147      7083.8651      80897.271    
     52600   297.95084     -25962.957     -26100.949      137.99268      7191.1011      80897.271    
     52700   296.22366     -25964.291     -26101.484      137.19276      7190.2396      80897.271    
     52800   299.66138     -25966.42      -26105.205      138.7849       7045.4306      80897.271    
     52900   300.98939     -25967.576     -26106.976      139.39995      6872.1024      80897.271    
     53000   299.50869     -25965.891     -26104.605      138.71419      6992.7294      80897.271    
     53100   297.237       -25961.529     -26099.191      137.66208      7252.9065      80897.271    
     53200   305.08361     -25960.218     -26101.514      141.29615      7214.4306      80897.271    
     53300   298.87496     -25963.025     -26101.445      138.42068      7197.819       80897.271    
     53400   299.93863     -25964.772     -26103.685      138.91331      7114.3872      80897.271    
     53500   301.84918     -25965.089     -26104.887      139.79816      6996.151       80897.271    
     53600   296.55329     -25965.476     -26102.821      137.34542      7059.936       80897.271    
     53700   300.84435     -25964.899     -26104.232      139.33278      7016.4947      80897.271    
     53800   306.27975     -25963.365     -26105.215      141.85013      7032.2632      80897.271    
     53900   301.62251     -25958.522     -26098.215      139.69318      7271.3245      80897.271    
     54000   311.39892     -25957.268     -26101.489      144.22102      7268.5185      80897.271    
     54100   301.66796     -25961.434     -26101.148      139.71423      7182.6877      80897.271    
     54200   301.12346     -25963.938     -26103.401      139.46205      7045.4412      80897.271    
     54300   295.83293     -25966.191     -26103.203      137.0118       7129.0223      80897.271    
     54400   301.8668      -25965.946     -26105.752      139.80632      6972.584       80897.271    
     54500   307.04154     -25963.419     -26105.622      142.20294      7057.9959      80897.271    
     54600   298.14153     -25960.466     -26098.547      138.081        7326.0914      80897.271    
     54700   302.45485     -25959.853     -26099.931      140.07866      7253.3873      80897.271    
     54800   304.82512     -25963.862     -26105.039      141.17643      7017.2078      80897.271    
     54900   302.2916      -25965.833     -26105.836      140.00306      7021.5405      80897.271    
     55000   295.77582     -25965.83      -26102.815      136.98535      7120.9184      80897.271    
     55100   297.65677     -25964.014     -26101.871      137.85649      7184.4655      80897.271    
     55200   308.09597     -25961.531     -26104.222      142.69129      7141.2592      80897.271    
     55300   301.78817     -25962.756     -26102.526      139.7699       7157.0684      80897.271    
     55400   297.69692     -25967.101     -26104.976      137.87508      6989.7068      80897.271    
     55500   296.84048     -25968.717     -26106.196      137.47843      6977.9825      80897.271    
     55600   296.35774     -25966.561     -26103.816      137.25486      7167.1956      80897.271    
     55700   299.16808     -25962.892     -26101.448      138.55643      7152.8505      80897.271    
     55800   302.83163     -25962.411     -26102.664      140.25317      7090.808       80897.271    
     55900   301.40968     -25963.779     -26103.374      139.59461      7148.7654      80897.271    
     56000   293.13474     -25966.637     -26102.399      135.76216      7071.4162      80897.271    
     56100   301.24853     -25967.188     -26106.708      139.51997      6890.6285      80897.271    
     56200   297.69918     -25966.822     -26104.698      137.87613      7087.0511      80897.271    
     56300   298.9248      -25963.625     -26102.069      138.44376      7191.3478      80897.271    
     56400   306.84557     -25960.394     -26102.506      142.11218      7135.6719      80897.271    
     56500   298.96705     -25962.18      -26100.643      138.46333      7191.4724      80897.271    
     56600   299.61896     -25965.073     -26103.838      138.76526      7124.3254      80897.271    
     56700   300.20923     -25966.058     -26105.097      139.03863      6978.2268      80897.271    
     56800   296.28374     -25965.826     -26103.046      137.22058      7111.7308      80897.271    
     56900   297.97735     -25965.336     -26103.341      138.00496      7143.5215      80897.271    
     57000   301.98179     -25964.968     -26104.827      139.85958      7006.9839      80897.271    
     57100   305.33311     -25962.961     -26104.373      141.4117       7087.7591      80897.271    
     57200   304.32698     -25959.37      -26100.316      140.94572      7357.8571      80897.271    
     57300   299.30787     -25960.729     -26099.351      138.62118      7375.0865      80897.271    
     57400   299.72614     -25965.854     -26104.668      138.81489      7161.0867      80897.271    
     57500   299.37967     -25967.789     -26106.443      138.65443      6895.3806      80897.271    
     57600   300.16414     -25965.923     -26104.94       139.01775      7084.5057      80897.271    
     57700   296.94279     -25964.034     -26101.56       137.52581      7141.8186      80897.271    
     57800   301.45364     -25962.456     -26102.071      139.61497      7122.6791      80897.271    
     57900   308.90273     -25960.824     -26103.889      143.06493      7063.376       80897.271    
     58000   299.54896     -25961.879     -26100.612      138.73284      7244.8779      80897.271    
     58100   302.8288      -25964.872     -26105.124      140.25186      7085.0096      80897.271    
     58200   295.64056     -25967.937     -26104.86       136.9227       7067.2212      80897.271    
     58300   294.61942     -25967.559     -26104.009      136.44977      7049.509       80897.271    
     58400   304.70218     -25963.422     -26104.542      141.11949      7148.0563      80897.271    
     58500   299.86229     -25962.126     -26101.004      138.87795      7233.6539      80897.271    
     58600   303.4799      -25962.302     -26102.855      140.55341      7164.1491      80897.271    
     58700   295.96107     -25964.428     -26101.499      137.07114      7174.155       80897.271    
     58800   301.53854     -25965.23      -26104.884      139.65429      7071.3755      80897.271    
     58900   290.10028     -25968.084     -26102.441      134.35678      7096.5449      80897.271    
     59000   296.09542     -25970.606     -26107.739      137.13337      7033.9672      80897.271    
     59100   297.67596     -25969.54      -26107.405      137.86538      6962.7446      80897.271    
     59200   297.6714      -25964.722     -26102.585      137.86326      7178.9882      80897.271    
     59300   305.6493      -25962.619     -26104.177      141.55814      7143.7053      80897.271    
     59400   299.6348      -25963.541     -26102.313      138.77259      7192.0698      80897.271    
     59500   299.52741     -25964.645     -26103.368      138.72285      7106.45        80897.271    
     59600   295.8053      -25967.51      -26104.509      136.999        6998.3764      80897.271    
     59700   299.37984     -25969.313     -26107.967      138.65451      6992.3393      80897.271    
     59800   293.13822     -25970.062     -26105.826      135.76377      6881.8094      80897.271    
     59900   299.9721      -25964.533     -26103.462      138.92881      7080.6572      80897.271    
     60000   296.94852     -25963.26      -26100.788      137.52847      7165.2082      80897.271    
     60100   302.97842     -25962.822     -26103.143      140.32115      7101.8308      80897.271    
     60200   305.91127     -25963.868     -26105.548      141.67947      7081.2784      80897.271    
     60300   298.31108     -25967.5       -26105.66       138.15952      6935.8406      80897.271    
     60400   290.96819     -25969.339     -26104.098      134.75874      7049.3633      80897.271    
     60500   298.5633      -25965.833     -26104.109      138.27634      7134.7539      80897.271    
     60600   301.76861     -25963.555     -26103.316      139.76084      7117.1006      80897.271    
     60700   303.65615     -25962.826     -26103.461      140.63504      7065.1716      80897.271    
     60800   295.45515     -25964.456     -26101.293      136.83683      7182.92        80897.271    
     60900   298.11591     -25965.482     -26103.551      138.06913      7127.1449      80897.271    
     61000   301.30124     -25965.884     -26105.429      139.54439      7042.3965      80897.271    
     61100   295.16706     -25968.014     -26104.718      136.70341      7132.9236      80897.271    
     61200   298.88828     -25965.658     -26104.085      138.42685      7036.3725      80897.271    
     61300   303.10763     -25961.895     -26102.276      140.38099      7161.2694      80897.271    
     61400   303.41206     -25961.393     -26101.915      140.52199      7285.0289      80897.271    
     61500   299.0159      -25964.007     -26102.493      138.48596      7142.6564      80897.271    
     61600   301.08513     -25965.813     -26105.258      139.4443       7041.0012      80897.271    
     61700   300.02853     -25965.58      -26104.535      138.95494      7152.4926      80897.271    
     61800   297.02091     -25964.747     -26102.309      137.562        7172.4371      80897.271    
     61900   298.05409     -25962.811     -26100.851      138.0405       7286.4531      80897.271    
     62000   313.30064     -25958.719     -26103.821      145.10178      7191.7493      80897.271    
     62100   303.9621      -25960.733     -26101.51       140.77673      7180.4618      80897.271    
     62200   299.62746     -25963.972     -26102.741      138.76919      7193.788       80897.271    
     62300   294.67691     -25965.298     -26101.774      136.4764       7197.7366      80897.271    
     62400   301.09194     -25964.653     -26104.1        139.44745      7155.9148      80897.271    
     62500   301.79657     -25964.007     -26103.781      139.77379      7155.392       80897.271    
     62600   303.04906     -25963.448     -26103.802      140.35387      7152.0568      80897.271    
     62700   299.66768     -25963.803     -26102.591      138.78782      7220.3204      80897.271    
     62800   297.74934     -25965.277     -26103.177      137.89936      7106.019       80897.271    
     62900   299.71539     -25966.47      -26105.28       138.80992      7088.7852      80897.271    
     63000   291.9761      -25968.427     -26103.652      135.22555      7030.782       80897.271    
     63100   302.20403     -25966.017     -26105.979      139.9625       7119.0648      80897.271    
     63200   300.7988      -25962.073     -26101.385      139.31169      7219.1701      80897.271    
     63300   302.15082     -25961.255     -26101.193      139.93786      7232.7437      80897.271    
     63400   301.40031     -25963.407     -26102.997      139.59027      7154.0002      80897.271    
     63500   304.14957     -25963.889     -26104.753      140.86356      7141.053       80897.271    
     63600   296.97992     -25965.255     -26102.798      137.54301      7101.2823      80897.271    
     63700   298.34447     -25965.098     -26103.273      138.17499      7128.8094      80897.271    
     63800   299.64808     -25964.003     -26102.782      138.77874      7158.195       80897.271    
     63900   307.02882     -25960.473     -26102.67       142.19705      7204.3789      80897.271    
     64000   308.9374      -25957.413     -26100.494      143.08099      7232.9366      80897.271    
     64100   306.4429      -25960.592     -26102.517      141.92569      7183.2846      80897.271    
     64200   299.31791     -25964.045     -26102.671      138.62583      7202.7691      80897.271    
     64300   295.96267     -25965.469     -26102.541      137.07189      7101.6823      80897.271    
     64400   305.33858     -25965.121     -26106.535      141.41423      7061.4683      80897.271    
     64500   295.16874     -25966.508     -26103.212      136.70418      7018.8253      80897.271    
     64600   299.32535     -25966.845     -26105.474      138.62927      7029.139       80897.271    
     64700   294.60414     -25964.761     -26101.204      136.4427       7143.8832      80897.271    
     64800   306.9964      -25960.887     -26103.069      142.18204      7200.9857      80897.271    
     64900   299.13095     -25962.321     -26100.86       138.53924      7252.0885      80897.271    
     65000   303.47408     -25964.686     -26105.237      140.55071      7042.1068      80897.271    
     65100   299.21197     -25967.499     -26106.075      138.57676      7073.4306      80897.271    
     65200   295.81066     -25967.032     -26104.033      137.00148      7121.2113      80897.271    
     65300   301.17596     -25961.065     -26100.551      139.48636      7283.1019      80897.271    
     65400   307.94183     -25957.751     -26100.371      142.6199       7239.6752      80897.271    
     65500   307.67161     -25960.674     -26103.169      142.49475      7166.6153      80897.271    
     65600   299.42938     -25965.201     -26103.878      138.67745      7051.8447      80897.271    
     65700   294.4244      -25967.103     -26103.462      136.35945      7111.0085      80897.271    
     65800   296.28742     -25966.627     -26103.849      137.22229      7124.1186      80897.271    
     65900   305.27383     -25963.003     -26104.387      141.38425      7058.4971      80897.271    
     66000   306.18383     -25960.26      -26102.066      141.8057       7216.2886      80897.271    
     66100   299.62004     -25961.354     -26100.12       138.76575      7244.3891      80897.271    
     66200   295.15556     -25963.707     -26100.405      136.69808      7265.769       80897.271    
     66300   305.4499      -25963.369     -26104.835      141.46579      7086.1586      80897.271    
     66400   299.30973     -25965.085     -26103.707      138.62204      7089.1358      80897.271    
     66500   299.66329     -25965.892     -26104.678      138.78578      7025.4018      80897.271    
     66600   306.54733     -25963.335     -26105.309      141.97405      7074.9071      80897.271    
     66700   292.39833     -25961.376     -26096.797      135.4211       7402.2076      80897.271    
     66800   306.96835     -25959.233     -26101.402      142.16905      7223.8038      80897.271    
     66900   307.88855     -25962.517     -26105.112      142.59522      7133.5108      80897.271    
     67000   300.22144     -25966.336     -26105.381      139.04429      6980.186       80897.271    
     67100   293.47886     -25967.059     -26102.98       135.92153      7138.4431      80897.271    
     67200   293.00112     -25965.784     -26101.484      135.70028      7195.9057      80897.271    
     67300   304.9975      -25962.072     -26103.328      141.25627      7140.298       80897.271    
     67400   308.22438     -25960.4       -26103.151      142.75076      7085.0892      80897.271    
     67500   299.36069     -25962.144     -26100.79       138.64564      7298.0311      80897.271    
     67600   298.80335     -25963.443     -26101.831      138.38752      7188.1583      80897.271    
     67700   300.58365     -25964.136     -26103.349      139.21204      7077.7632      80897.271    
     67800   297.46032     -25965.408     -26103.174      137.76551      7122.1257      80897.271    
     67900   304.14379     -25965.396     -26106.257      140.86088      6999.8313      80897.271    
     68000   292.57116     -25967.363     -26102.864      135.50114      7113.6402      80897.271    
     68100   302.21674     -25966.102     -26106.071      139.96839      7007.0898      80897.271    
     68200   298.72069     -25963.18      -26101.53       138.34923      7126.8754      80897.271    
     68300   303.95598     -25960.483     -26101.257      140.7739       7203.0871      80897.271    
     68400   305.06542     -25961.122     -26102.41       141.28773      7188.872       80897.271    
     68500   296.24475     -25967.044     -26104.247      137.20253      7019.6207      80897.271    
     68600   296.52416     -25968.266     -26105.598      137.33193      7011.7674      80897.271    
     68700   293.53767     -25966.704     -26102.653      135.94877      7059.9208      80897.271    
     68800   299.20716     -25962.742     -26101.317      138.57454      7218.3566      80897.271    
     68900   303.97462     -25961.832     -26102.615      140.78253      7119.641       80897.271    
     69000   303.80107     -25963.599     -26104.301      140.70216      6962.7436      80897.271    
     69100   299.42903     -25966.313     -26104.99       138.67729      7151.0622      80897.271    
     69200   293.62251     -25967.071     -26103.059      135.98807      7037.4561      80897.271    
     69300   297.25864     -25965.896     -26103.568      137.6721       7085.4302      80897.271    
     69400   306.10273     -25964.429     -26106.197      141.76814      6934.8058      80897.271    
     69500   303.78309     -25964.684     -26105.378      140.69383      7002.6835      80897.271    
     69600   295.46744     -25965.473     -26102.316      136.84253      7092.9542      80897.271    
     69700   301.56656     -25963.253     -26102.92       139.66726      7119.3898      80897.271    
     69800   304.37092     -25961.112     -26102.078      140.96607      7164.8168      80897.271    
     69900   297.06612     -25961.657     -26099.24       137.58294      7229.5398      80897.271    
     70000   302.00619     -25964.458     -26104.329      139.87088      7068.9454      80897.271    
     70100   296.80216     -25967.729     -26105.19       137.46068      7013.3988      80897.271    
     70200   298.76831     -25966.896     -26105.267      138.37128      7046.1876      80897.271    
     70300   301.45197     -25963.992     -26103.606      139.61419      7129.8412      80897.271    
     70400   303.44398     -25959.765     -26100.302      140.53677      7271.9748      80897.271    
     70500   302.08616     -25959.634     -26099.542      139.90791      7327.6572      80897.271    
     70600   305.97126     -25961.636     -26103.343      141.70725      7077.4135      80897.271    
     70700   297.85107     -25964.766     -26102.712      137.94648      7121.9045      80897.271    
     70800   302.47806     -25965.856     -26105.945      140.08942      7025.5252      80897.271    
     70900   294.10842     -25967.056     -26103.269      136.21311      7061.2083      80897.271    
     71000   301.46417     -25963.53      -26103.149      139.61984      7169.0989      80897.271    
     71100   303.73767     -25959.881     -26100.554      140.67279      7213.8162      80897.271    
     71200   302.91262     -25960.195     -26100.485      140.29068      7272.7678      80897.271    
     71300   303.09529     -25963.96      -26104.335      140.37528      7055.926       80897.271    
     71400   300.13946     -25965.766     -26104.773      139.00632      7018.2343      80897.271    
     71500   297.52938     -25965.352     -26103.149      137.79749      7085.5406      80897.271    
     71600   295.7443      -25964.686     -26101.657      136.97075      7127.3619      80897.271    
     71700   304.75241     -25962.787     -26103.93       141.14276      7129.4559      80897.271    
     71800   304.58035     -25961.361     -26102.424      141.06307      7250.7184      80897.271    
     71900   298.89775     -25963.309     -26101.74       138.43124      7123.8745      80897.271    
     72000   294.98837     -25967.311     -26103.931      136.62065      7099.1551      80897.271    
     72100   300.47449     -25967.856     -26107.017      139.16148      6978.3637      80897.271    
     72200   296.21572     -25965.761     -26102.95       137.18908      7021.852       80897.271    
     72300   305.20336     -25961.466     -26102.818      141.35161      7133.6871      80897.271    
     72400   300.27679     -25962.647     -26101.717      139.06992      7156.0132      80897.271    
     72500   301.02353     -25964.217     -26103.633      139.41577      7151.3712      80897.271    
     72600   299.65264     -25966.279     -26105.06       138.78086      7080.4414      80897.271    
     72700   294.10364     -25969.495     -26105.706      136.2109       6983.0074      80897.271    
     72800   291.20451     -25970.374     -26105.242      134.8682       7010.4203      80897.271    
     72900   304.23468     -25965.114     -26106.016      140.90298      6986.9008      80897.271    
     73000   300.9481      -25963.528     -26102.909      139.38083      7163.7376      80897.271    
     73100   297.32272     -25963.099     -26100.801      137.70177      7213.4246      80897.271    
     73200   296.68878     -25963.336     -26100.744      137.40817      7133.3072      80897.271    
     73300   305.66398     -25963.715     -26105.28       141.56494      6985.037       80897.271    
     73400   299.3566      -25966.926     -26105.569      138.64375      6958.1695      80897.271    
     73500   295.88154     -25968.434     -26105.468      137.03431      7011.2995      80897.271    
     73600   298.11191     -25965.532     -26103.6        138.06728      7164.1183      80897.271    
     73700   302.06113     -25961.922     -26101.818      139.89632      7184.9797      80897.271    
     73800   301.57485     -25961.594     -26101.265      139.6711       7092.5182      80897.271    
     73900   305.78557     -25962.581     -26104.202      141.62126      7127.2918      80897.271    
     74000   294.11343     -25966.053     -26102.268      136.21543      7042.6839      80897.271    
     74100   302.02309     -25966.402     -26106.281      139.8787       7041.3817      80897.271    
     74200   297.46917     -25966.767     -26104.536      137.7696       6948.1624      80897.271    
     74300   301.78837     -25964.271     -26104.041      139.77         7118.2554      80897.271    
     74400   300.26535     -25963.661     -26102.725      139.06463      7151.8162      80897.271    
     74500   296.20993     -25964.166     -26101.352      137.1864       7206.5869      80897.271    
     74600   304.57912     -25962.175     -26103.238      141.0625       7103.6022      80897.271    
     74700   303.63332     -25960.768     -26101.393      140.62446      7188.3183      80897.271    
     74800   303.78874     -25961.54      -26102.237      140.69644      7184.3187      80897.271    
     74900   293.63942     -25965.588     -26101.584      135.9959       7137.6494      80897.271    
     75000   299.67174     -25966.749     -26105.539      138.7897       7032.6344      80897.271    
     75100   298.44023     -25966.302     -26104.521      138.21934      7095.1562      80897.271    
     75200   301.9204      -25961.78      -26101.611      139.83114      7148.1337      80897.271    
     75300   309.5794      -25958.635     -26102.013      143.37833      7175.3927      80897.271    
     75400   301.75726     -25960.172     -26099.928      139.75559      7237.3699      80897.271    
[...]
    181800   297.83066     -25964.16      -26102.097      137.93702      7116.0861      80897.271    
    181900   299.34134     -25965.126     -26103.763      138.63668      7157.4489      80897.271    
    182000   297.81212     -25965.241     -26103.17       137.92844      7159.7051      80897.271    
    182100   301.37163     -25963.725     -26103.302      139.57699      7093.7963      80897.271    
    182200   309.19283     -25960.998     -26104.197      143.19929      7134.9856      80897.271    
    182300   298.05592     -25960.337     -26098.379      138.04135      7288.6466      80897.271    
    182400   302.99465     -25961.5       -26101.828      140.32867      7068.5138      80897.271    
    182500   299.1458      -25965.843     -26104.389      138.54612      7078.5986      80897.271    
    182600   301.82644     -25967.138     -26106.926      139.78762      6968.0511      80897.271    
    182700   298.15765     -25966.128     -26104.217      138.08847      7023.4041      80897.271    
    182800   299.62664     -25962.185     -26100.953      138.76881      7168.3653      80897.271    
    182900   301.6256      -25961.128     -26100.823      139.69461      7198.7572      80897.271    
    183000   298.96788     -25962.91      -26101.373      138.46371      7079.2588      80897.271    
    183100   304.3215      -25962.93      -26103.873      140.94318      7060.3743      80897.271    
    183200   304.64467     -25963.34      -26104.433      141.09286      7135.1101      80897.271    
    183300   294.47438     -25966.789     -26103.172      136.3826       6969.2319      80897.271    
    183400   297.88733     -25968.76      -26106.723      137.96327      6967.1302      80897.271    
    183500   297.04795     -25966.948     -26104.522      137.57452      7097.3681      80897.271    
    183600   307.43073     -25961.472     -26103.855      142.38319      7056.6158      80897.271    
    183700   299.98005     -25962.355     -26101.287      138.93249      7242.4943      80897.271    
    183800   292.33175     -25964.814     -26100.204      135.39026      7208.4978      80897.271    
    183900   302.54787     -25965.341     -26105.463      140.12175      6973.2455      80897.271    
    184000   293.66441     -25968.403     -26104.41       136.00747      7015.0223      80897.271    
    184100   293.52555     -25969.805     -26105.749      135.94316      6931.5894      80897.271    
    184200   304.00221     -25965.272     -26106.067      140.79531      6927.3509      80897.271    
    184300   301.39195     -25962.588     -26102.174      139.5864       7089.4552      80897.271    
    184400   295.14254     -25962.815     -26099.507      136.69205      7218.9906      80897.271    
    184500   303.80232     -25963.221     -26103.924      140.70273      7083.526       80897.271    
    184600   298.55689     -25966.464     -26104.737      138.27337      6945.4589      80897.271    
    184700   297.10013     -25970.953     -26108.552      137.59868      6892.4567      80897.271    
    184800   287.86655     -25971.137     -26104.459      133.32226      7014.1087      80897.271    
    184900   295.24557     -25967.757     -26104.497      136.73977      7074.8882      80897.271    
    185000   298.81253     -25965.511     -26103.903      138.39176      7101.2332      80897.271    
    185100   304.31591     -25962.387     -26103.328      140.94059      7075.0591      80897.271    
    185200   300.36413     -25961.643     -26100.754      139.11037      7182.9064      80897.271    
    185300   304.08055     -25963.528     -26104.36       140.83159      7121.4976      80897.271    
    185400   292.05834     -25968.142     -26103.406      135.26364      7123.3405      80897.271    
    185500   301.12824     -25966.431     -26105.895      139.46426      7115.6689      80897.271    
    185600   301.97117     -25964.304     -26104.159      139.85466      7052.4999      80897.271    
    185700   302.98045     -25961.672     -26101.994      140.32209      7162.8815      80897.271    
    185800   300.75809     -25960.73      -26100.023      139.29283      7300.2511      80897.271    
    185900   300.98674     -25965.11      -26104.509      139.39873      7081.4761      80897.271    
    186000   293.92556     -25968.883     -26105.011      136.12842      6993.8336      80897.271    
    186100   298.37028     -25967.384     -26105.571      138.18694      7016.0551      80897.271    
    186200   300.19739     -25964.128     -26103.161      139.03315      7135.226       80897.271    
    186300   299.3531      -25962.306     -26100.948      138.64212      7158.1741      80897.271    
    186400   303.96112     -25961.796     -26102.572      140.77628      7133.3007      80897.271    
    186500   295.85892     -25966.756     -26103.78       137.02383      7009.2614      80897.271    
    186600   297.4918      -25969.195     -26106.975      137.78009      6954.8052      80897.271    
    186700   298.35723     -25966.722     -26104.903      138.1809       6939.9367      80897.271    
    186800   297.14606     -25964.912     -26102.532      137.61996      7142.9908      80897.271    
    186900   302.76366     -25963.284     -26103.506      140.22169      7121.7578      80897.271    
    187000   305.75429     -25961.139     -26102.745      141.60676      7236.3916      80897.271    
    187100   304.51673     -25958.217     -26099.25       141.0336       7271.8722      80897.271    
    187200   310.16937     -25957.056     -26100.708      143.65156      7324.5053      80897.271    
    187300   303.40805     -25961.86      -26102.38       140.52013      7156.8984      80897.271    
    187400   295.50287     -25965.667     -26102.526      136.85893      7075.367       80897.271    
    187500   298.04678     -25966.594     -26104.631      138.03712      7012.4263      80897.271    
    187600   304.41725     -25964.954     -26105.941      140.98753      7050.1575      80897.271    
    187700   301.12818     -25961.996     -26101.46       139.46424      7258.9107      80897.271    
    187800   302.8429      -25960.328     -26100.586      140.25839      7120.6111      80897.271    
    187900   300.12142     -25964.418     -26103.416      138.99796      7153.4767      80897.271    
    188000   298.01043     -25968.678     -26106.698      138.02028      6952.9423      80897.271    
    188100   298.20955     -25967.312     -26105.424      138.1125       7042.5302      80897.271    
    188200   303.11509     -25963.968     -26104.353      140.38445      7076.2761      80897.271    
    188300   297.66026     -25963.278     -26101.136      137.85811      7181.6687      80897.271    
    188400   301.86106     -25962.643     -26102.446      139.80366      7178.2179      80897.271    
    188500   299.45038     -25964.762     -26103.449      138.68718      7077.3856      80897.271    
    188600   296.2225      -25967.82      -26105.012      137.19222      6972.1846      80897.271    
    188700   296.00058     -25968.371     -26105.46       137.08944      7011.4042      80897.271    
    188800   302.93062     -25964.645     -26104.944      140.29902      7109.8081      80897.271    
    188900   304.32984     -25962.275     -26103.222      140.94705      7148.0704      80897.271    
    189000   293.73304     -25963.459     -26099.499      136.03926      7287.2457      80897.271    
    189100   305.83423     -25962.897     -26104.541      141.64379      7174.1845      80897.271    
    189200   296.08424     -25966.594     -26103.723      137.12819      7087.1185      80897.271    
    189300   289.24319     -25970.801     -26104.761      133.95983      6955.0642      80897.271    
    189400   301.66643     -25968.536     -26108.249      139.71352      7111.7567      80897.271    
    189500   291.70616     -25966.381     -26101.481      135.10053      7094.5776      80897.271    
    189600   298.54758     -25964.031     -26102.301      138.26906      7086.6817      80897.271    
    189700   306.29414     -25963.036     -26104.893      141.85679      7099.3874      80897.271    
    189800   297.82069     -25964.346     -26102.279      137.93241      7188.8035      80897.271    
    189900   291.14672     -25967.134     -26101.976      134.84143      7048.4264      80897.271    
    190000   298.23242     -25969.391     -26107.514      138.12309      6970.8834      80897.271    
    190100   291.1987      -25969.952     -26104.817      134.8655       7007.6806      80897.271    
    190200   300.75009     -25964.964     -26104.253      139.28912      7157.7366      80897.271    
    190300   306.69839     -25961.867     -26103.911      142.04402      7060.7218      80897.271    
    190400   295.23132     -25963.372     -26100.105      136.73317      7259.5045      80897.271    
    190500   298.27151     -25964.195     -26102.336      138.1412       7157.8778      80897.271    
    190600   299.07386     -25966.045     -26104.558      138.5128       7072.3776      80897.271    
    190700   299.60186     -25968.87      -26107.627      138.75734      6899.6182      80897.271    
    190800   292.06551     -25968.028     -26103.295      135.26696      7075.3119      80897.271    
    190900   296.12546     -25963.019     -26100.166      137.14728      7256.0262      80897.271    
    191000   301.33101     -25962.757     -26102.315      139.55817      7154.7197      80897.271    
    191100   301.22804     -25963.623     -26103.133      139.51048      7203.2         80897.271    
    191200   300.20708     -25964.515     -26103.552      139.03763      7072.9837      80897.271    
    191300   296.5633      -25967.295     -26104.645      137.35006      7113.8611      80897.271    
    191400   290.48329     -25970.566     -26105.1        134.53417      7089.2175      80897.271    
    191500   287.11175     -25970.552     -26103.525      132.97268      7059.5352      80897.271    
    191600   303.86427     -25964.722     -26105.453      140.73142      7080.27        80897.271    
    191700   302.72128     -25962.784     -26102.986      140.20206      7189.0858      80897.271    
    191800   298.20772     -25962.235     -26100.347      138.11166      7236.5487      80897.271    
    191900   299.76901     -25963.781     -26102.616      138.83475      7119.8685      80897.271    
    192000   301.50198     -25967         -26106.637      139.63736      7067.0563      80897.271    
    192100   296.00422     -25968.729     -26105.82       137.09113      6973.0204      80897.271    
    192200   301.56827     -25965.221     -26104.889      139.66806      7087.9522      80897.271    
    192300   296.749       -25962.991     -26100.428      137.43607      7295.1226      80897.271    
    192400   299.55379     -25963.757     -26102.492      138.73507      7186.6572      80897.271    
    192500   304.67567     -25964.461     -26105.569      141.10722      7118.1074      80897.271    
    192600   292.94664     -25966.897     -26102.572      135.67504      7150.032       80897.271    
    192700   299.33988     -25966.514     -26105.15       138.636        7004.4953      80897.271    
    192800   305.169       -25962.164     -26103.5        141.3357       7195.0748      80897.271    
    192900   302.57738     -25960.696     -26100.832      140.13542      7232.3543      80897.271    
    193000   299.12402     -25962.266     -26100.803      138.53603      7189.953       80897.271    
    193100   298.6333      -25968.482     -26106.79       138.30876      6965.9059      80897.271    
    193200   297.48644     -25967.997     -26105.775      137.7776       7048.835       80897.271    
    193300   294.98054     -25965.184     -26101.801      136.61702      7190.5736      80897.271    
    193400   309.41442     -25961.777     -26105.078      143.30192      7133.0767      80897.271    
    193500   299.07019     -25962.542     -26101.053      138.5111       7191.4211      80897.271    
    193600   299.72227     -25964.098     -26102.911      138.8131       7175.1161      80897.271    
    193700   297.3403      -25968.072     -26105.781      137.70992      7058.0707      80897.271    
    193800   294.20903     -25971.954     -26108.213      136.25971      6867.3118      80897.271    
    193900   297.64927     -25969.018     -26106.871      137.85302      6999.7902      80897.271    
    194000   297.55403     -25963.986     -26101.795      137.80891      7174.1148      80897.271    
    194100   298.34265     -25963.396     -26101.57       138.17415      7112.2786      80897.271    
    194200   305.09483     -25963.357     -26104.658      141.30134      7087.3252      80897.271    
    194300   302.68721     -25964.342     -26104.528      140.18628      7122.3577      80897.271    
    194400   294.58012     -25966.319     -26102.751      136.43157      7061.4801      80897.271    
    194500   296.19316     -25966.529     -26103.707      137.17863      7045.6519      80897.271    
    194600   305.48208     -25963.406     -26104.886      141.4807       7132.0714      80897.271    
    194700   302.48927     -25960.569     -26100.664      140.09461      7118.0802      80897.271    
    194800   308.15577     -25959.198     -26101.917      142.71899      7193.1936      80897.271    
    194900   297.45907     -25964.743     -26102.508      137.76492      7129.8143      80897.271    
    195000   296.58455     -25965.875     -26103.235      137.3599       7106.889       80897.271    
    195100   301.66743     -25964.888     -26104.602      139.71398      7035.6929      80897.271    
    195200   299.50915     -25963.852     -26102.566      138.7144       7103.4272      80897.271    
    195300   304.48355     -25960.943     -26101.962      141.01824      7234.1033      80897.271    
    195400   300.63317     -25960.147     -26099.382      139.23498      7247.5765      80897.271    
    195500   302.50429     -25964.112     -26104.214      140.10156      7091.1318      80897.271    
    195600   294.71822     -25967.522     -26104.018      136.49553      7127.065       80897.271    
    195700   295.49066     -25966.999     -26103.852      136.85328      7003.578       80897.271    
    195800   305.95238     -25963.066     -26104.765      141.69851      7085.7643      80897.271    
    195900   303.60788     -25962.815     -26103.427      140.61268      7159.877       80897.271    
    196000   298.50289     -25964.285     -26102.534      138.24836      7099.1617      80897.271    
    196100   297.46976     -25964.855     -26102.624      137.76988      7119.643       80897.271    
    196200   295.01258     -25965.93      -26102.562      136.63186      7095.4019      80897.271    
    196300   292.9098      -25967.594     -26103.252      135.65798      7065.1151      80897.271    
    196400   299.92735     -25965.88      -26104.788      138.90808      7026.1824      80897.271    
    196500   303.56022     -25962.548     -26103.139      140.59061      7196.0274      80897.271    
    196600   297.01302     -25962.02      -26099.578      137.55834      7224.7663      80897.271    
    196700   302.54456     -25962.725     -26102.846      140.12021      7173.0134      80897.271    
    196800   297.82773     -25967.155     -26105.091      137.93567      6977.805       80897.271    
    196900   300.36614     -25969.473     -26108.585      139.1113       6922.4443      80897.271    
    197000   293.39037     -25969.507     -26105.388      135.88055      7016.2972      80897.271    
    197100   291.91143     -25964.457     -26099.653      135.1956       7133.1662      80897.271    
    197200   303.24678     -25963.509     -26103.954      140.44544      7114.6497      80897.271    
    197300   301.64838     -25964.048     -26103.754      139.70516      7056.8157      80897.271    
    197400   303.79914     -25963.733     -26104.435      140.70126      7085.0097      80897.271    
    197500   293.52901     -25965.99      -26101.935      135.94476      7065.6911      80897.271    
    197600   299.3766      -25966.685     -26105.338      138.65301      7024.3291      80897.271    
    197700   295.89309     -25966.929     -26103.968      137.03966      6965.7811      80897.271    
    197800   303.05539     -25963.625     -26103.982      140.3568       7076.306       80897.271    
    197900   303.35552     -25961.176     -26101.672      140.4958       7183.3973      80897.271    
    198000   303.58997     -25961.733     -26102.337      140.60439      7184.968       80897.271    
    198100   292.34302     -25966.891     -26102.286      135.39548      7030.6293      80897.271    
    198200   301.17963     -25967.019     -26106.507      139.48806      6976.211       80897.271    
    198300   298.0587      -25965.631     -26103.674      138.04264      7078.8177      80897.271    
    198400   298.81152     -25963.376     -26101.768      138.3913       7134.2721      80897.271    
    198500   298.11929     -25962.652     -26100.723      138.0707       7147.9702      80897.271    
    198600   306.26362     -25961.17      -26103.013      141.84266      7135.3137      80897.271    
    198700   304.60066     -25960.449     -26101.522      141.07247      7117.6669      80897.271    
    198800   305.08428     -25963.563     -26104.859      141.29646      6996.1017      80897.271    
    198900   290.99351     -25966.825     -26101.595      134.77047      7094.9716      80897.271    
    199000   297.33746     -25965.435     -26103.143      137.70861      7145.3416      80897.271    
    199100   304.09418     -25963.473     -26104.311      140.8379       7067.2686      80897.271    
    199200   308.99552     -25960.688     -26103.796      143.10791      7072.2815      80897.271    
    199300   300.54779     -25959.229     -26098.424      139.19543      7354.0987      80897.271    
    199400   301.74109     -25961.788     -26101.536      139.7481       7112.8263      80897.271    
    199500   301.46138     -25966.545     -26106.164      139.61855      6995.7004      80897.271    
    199600   294.15353     -25966.925     -26103.159      136.234        6957.537       80897.271    
    199700   301.25812     -25964.562     -26104.086      139.52441      7053.4524      80897.271    
    199800   302.70589     -25962.909     -26103.104      140.19493      7080.6554      80897.271    
    199900   304.63707     -25959.82      -26100.909      141.08934      7244.4804      80897.271    
    200000   304.78383     -25956.702     -26097.859      141.15731      7283.6834      80897.271    
Loop time of 11814.6 on 20 procs for 200000 steps with 3584 atoms

Performance: 1.463 ns/day, 16.409 hours/ns, 16.928 timesteps/s, 60.671 katom-step/s
99.9% CPU use with 20 MPI tasks x 1 OpenMP threads

MPI task timing breakdown:
Section |  min time  |  avg time  |  max time  |%varavg| %total
---------------------------------------------------------------
Pair    | 9550.1     | 10735      | 11545      | 684.6 | 90.86
Neigh   | 114.28     | 130.92     | 146.59     |  77.4 |  1.11
Comm    | 74.875     | 895.34     | 2126.8     |2442.2 |  7.58
Output  | 0.31395    | 0.35952    | 0.41485    |   4.5 |  0.00
Modify  | 21.988     | 51.898     | 91.325     | 350.5 |  0.44
Other   |            | 0.8956     |            |       |  0.01

Nlocal:          179.2 ave         192 max         160 min
Histogram: 4 0 0 1 2 4 1 0 0 8
Nghost:        1121.45 ave        1212 max        1082 min
Histogram: 8 0 6 2 0 0 0 0 0 4
Neighs:              0 ave           0 max           0 min
Histogram: 20 0 0 0 0 0 0 0 0 0
FullNghs:      10242.7 ave       11014 max        9110 min
Histogram: 4 0 0 1 2 4 1 0 0 8

Total # of neighbors = 204854
Ave neighs/atom = 57.157924
Neighbor list builds = 200000
Dangerous builds not checked
Total wall time: 3:16:54
