LAMMPS (27 Jun 2024)
OMP_NUM_THREADS environment is not set. Defaulting to 1 thread. (src/comm.cpp:98)
  using 1 OpenMP thread(s) per MPI task
Reading data file ...
  orthogonal box = (0 0 0) to (22.422218 22.19224 20.321894)
  5 by 2 by 2 MPI processor grid
  reading atoms ...
  448 atoms
  read_data CPU = 0.004 seconds
**************** Begin of POD Potentials ****************
species: Hf 
periodic boundary conditions: 1 1 1
number of environment clusters: 8
number of principal compoments: 2
inner cut-off radius: 1
outer cut-off radius: 5
cut-off function type: 1
gaussian_exponents: 
polynomial_degrees: 
bessel polynomial degree: 4
inverse polynomial degree: 10
one-body potential: 1
two-body radial basis functions: 8
three-body radial basis functions: 8
three-body angular degree: 6
four-body radial basis functions: 7
four-body angular degree: 5
five-body radial basis functions: 0
five-body angular degree: 0
six-body radial basis functions: 0
six-body angular degree: 0
seven-body radial basis functions: 0
seven-body angular degree: 0
number of local descriptors per element for one-body potential: 1
number of local descriptors per element for two-body potential: 8
number of local descriptors per element for three-body potential: 56
number of local descriptors per element for four-body potential: 112
number of local descriptors per element for five-body potential: 0
number of local descriptors per element for six-body potential: 0
number of local descriptors per element for seven-body potential: 0
number of local descriptors per element for all potentials: 177
number of global descriptors: 1409
**************** End of POD Potentials ****************

**************** Begin of Model Coefficients ****************
total number of coefficients for POD potential: 1409
total number of elements for PCA projection matrix: 352
total number of elements for PCA centroids: 16
**************** End of Model Coefficients ****************


CITE-CITE-CITE-CITE-CITE-CITE-CITE-CITE-CITE-CITE-CITE-CITE-CITE

Your simulation uses code contributions which should be cited:
- Type Label Framework: https://doi.org/10.1021/acs.jpcb.3c08419
The log file lists these citations in BibTeX format.

CITE-CITE-CITE-CITE-CITE-CITE-CITE-CITE-CITE-CITE-CITE-CITE-CITE

Neighbor list info ...
  update: every = 1 steps, delay = 0 steps, check = no
  max neighbors/atom: 2000, page size: 100000
  master list distance cutoff = 7
  ghost atom cutoff = 7
  binsize = 3.5, bins = 7 7 6
  1 neighbor lists, perpetual/occasional/extra = 1 0 0
  (1) pair pod, perpetual
      attributes: full, newton on
      pair build: full/bin/atomonly
      stencil: full/bin/3d
      bin: standard
Setting up Verlet run ...
  Unit style    : metal
  Current step  : 0
  Time step     : 0.001
Per MPI rank memory allocation (min/avg/max) = 2.586 | 2.586 | 2.586 Mbytes
   Step          Temp          TotEng         PotEng         KinEng         Press          Volume    
         0   300           -3231.7429     -3249.0767      17.333785      27701.818      10112.159    
       100   320.11332     -3235.7499     -3254.2459      18.495919      8952.3461      10112.159    
       200   244.6816      -3236.3452     -3250.4828      14.137528      10609.12       10112.159    
       300   356.72548     -3234.8308     -3255.4421      20.611343      9135.7572      10112.159    
       400   329.66713     -3237.7165     -3256.7644      19.047931      8899.8677      10112.159    
       500   329.70866     -3240.0345     -3259.0849      19.05033       8293.4054      10112.159    
       600   283.4005      -3241.2197     -3257.5944      16.374678      8091.6475      10112.159    
       700   271.38725     -3240.6252     -3256.3057      15.680561      9058.1782      10112.159    
       800   314.03377     -3239.1731     -3257.3177      18.144647      8826.543       10112.159    
       900   287.8203      -3238.9743     -3255.6043      16.630051      8548.4918      10112.159    
      1000   343.79039     -3238.5892     -3258.4532      19.863963      8527.1678      10112.159    
      1100   271.22109     -3239.9652     -3255.6362      15.670961      9015.0108      10112.159    
      1200   294.9518      -3240.2466     -3257.2887      17.042104      8400.468       10112.159    
      1300   304.15624     -3240.4683     -3258.0422      17.57393       8344.1396      10112.159    
      1400   280.24562     -3240.7396     -3256.932       16.192391      8711.4432      10112.159    
      1500   309.04513     -3239.9848     -3257.8412      17.856407      8592.0152      10112.159    
      1600   309.88177     -3238.7847     -3256.6895      17.904747      8710.5194      10112.159    
      1700   311.6467      -3238.2223     -3256.229       18.006723      8931.4325      10112.159    
      1800   282.03871     -3239.5053     -3255.8013      16.295995      8917.4062      10112.159    
      1900   311.65117     -3240.3485     -3258.3555      18.006982      8886.3521      10112.159    
      2000   295.50812     -3240.5323     -3257.6066      17.074248      8382.5799      10112.159    
      2100   310.91612     -3239.6983     -3257.6628      17.964511      8792.7172      10112.159    
      2200   290.39467     -3239.137      -3255.9158      16.778796      8988.1962      10112.159    
      2300   317.73613     -3237.8894     -3256.2479      18.358566      9225.5266      10112.159    
      2400   317.39195     -3237.4016     -3255.7403      18.33868       9169.2565      10112.159    
      2500   306.6152      -3239.31       -3257.026       17.716007      8537.3615      10112.159    
      2600   305.58531     -3240.0269     -3257.6834      17.656501      8142.7658      10112.159    
      2700   283.63194     -3240.5298     -3256.9178      16.38805       8612.7689      10112.159    
      2800   293.92956     -3240.269      -3257.252       16.98304       8968.115       10112.159    
      2900   312.83408     -3238.8925     -3256.9678      18.075329      8874.3704      10112.159    
      3000   322.7569      -3237.8373     -3256.486       18.648663      9069.8732      10112.159    
      3100   311.59732     -3238.577      -3256.5809      18.00387       8802.4242      10112.159    
      3200   306.19737     -3239.5679     -3257.2598      17.691865      8790.1784      10112.159    
      3300   289.44712     -3239.8922     -3256.6162      16.724048      8987.6362      10112.159    
      3400   291.34534     -3240.0722     -3256.906       16.833725      8582.3986      10112.159    
      3500   313.20203     -3240.0465     -3258.1431      18.096589      8242.5391      10112.159    
      3600   292.03423     -3240.0343     -3256.9078      16.873529      8636.285       10112.159    
      3700   310.00824     -3239.4305     -3257.3425      17.912054      9032.1826      10112.159    
      3800   292.95558     -3239.1212     -3256.048       16.926764      8985.2519      10112.159    
      3900   310.95213     -3238.9777     -3256.9443      17.966592      8634.5628      10112.159    
      4000   292.99333     -3240.2105     -3257.1395      16.928945      8546.9811      10112.159    
      4100   287.6319      -3240.9138     -3257.5329      16.619165      8640.8025      10112.159    
      4200   288.21593     -3240.8287     -3257.4816      16.65291       8379.8774      10112.159    
      4300   310.70313     -3239.0276     -3256.9798      17.952205      8869.9664      10112.159    
      4400   317.54135     -3238.5031     -3256.8504      18.347312      8896.0302      10112.159    
      4500   301.31646     -3239.4121     -3256.8219      17.40985       8468.7254      10112.159    
      4600   285.4107      -3240.663      -3257.1539      16.490826      8431.5815      10112.159    
      4700   307.8656      -3240.5509     -3258.3391      17.788254      8383.8213      10112.159    
      4800   282.20283     -3240.321      -3256.6265      16.305478      8880.334       10112.159    
      4900   296.34291     -3239.7137     -3256.8362      17.122482      8670.0018      10112.159    
      5000   311.79455     -3239.6338     -3257.6491      18.015266      8392.6686      10112.159    
      5100   300.62477     -3239.7747     -3257.1446      17.369884      8414.6268      10112.159    
      5200   294.27106     -3239.7995     -3256.8022      17.002771      8829.485       10112.159    
      5300   304.87739     -3239.5407     -3257.1563      17.615598      9025.523       10112.159    
      5400   300.69663     -3239.823      -3257.1971      17.374036      8944.8366      10112.159    
      5500   288.64733     -3241.2257     -3257.9035      16.677836      8612.1897      10112.159    
      5600   286.36548     -3242.0873     -3258.6333      16.545993      8279.5866      10112.159    
      5700   302.37927     -3240.8918     -3258.3631      17.471258      8562.4561      10112.159    
      5800   286.55722     -3239.7598     -3256.3169      16.557071      8910.6858      10112.159    
      5900   306.22471     -3239.2596     -3256.9531      17.693445      8889.2506      10112.159    
      6000   307.15553     -3239.608      -3257.3552      17.747227      9064.3163      10112.159    
      6100   296.11109     -3240.5212     -3257.6302      17.109087      8394.2195      10112.159    
      6200   304.0228      -3241.1459     -3258.7121      17.56622       8605.44        10112.159    
      6300   281.94051     -3241.7794     -3258.0697      16.290321      8727.8129      10112.159    
      6400   300.73914     -3240.5426     -3257.9191      17.376492      8625.1632      10112.159    
      6500   291.12763     -3239.1336     -3255.9548      16.821146      9337.9017      10112.159    
      6600   323.11848     -3238.6833     -3257.3529      18.669555      9327.8143      10112.159    
      6700   294.29518     -3239.8526     -3256.8568      17.004165      8843.8829      10112.159    
      6800   302.35104     -3240.0202     -3257.4898      17.469627      8464.5492      10112.159    
      6900   302.32381     -3240.2435     -3257.7116      17.468053      8653.4133      10112.159    
      7000   285.4065      -3241.2359     -3257.7265      16.490584      8604.1372      10112.159    
      7100   283.25596     -3242.2125     -3258.5789      16.366327      8424.4359      10112.159    
      7200   286.62        -3241.4238     -3257.9845      16.560699      8486.1867      10112.159    
      7300   292.45893     -3240.0743     -3256.9723      16.898068      9119.9397      10112.159    
      7400   302.01633     -3239.5466     -3256.9969      17.450288      9089.9221      10112.159    
      7500   319.56225     -3238.9206     -3257.3847      18.464078      8855.2754      10112.159    
      7600   295.67723     -3239.3086     -3256.3926      17.084019      9189.8094      10112.159    
      7700   289.44322     -3240.8713     -3257.5951      16.723822      9025.0194      10112.159    
      7800   298.41859     -3241.2527     -3258.4951      17.242413      8534.4638      10112.159    
      7900   304.63599     -3240.4869     -3258.0885      17.601649      8710.7914      10112.159    
      8000   290.49713     -3238.9163     -3255.701       16.784716      9256.9156      10112.159    
      8100   307.29184     -3238.9004     -3256.6555      17.755103      9193.7678      10112.159    
      8200   304.09044     -3239.893      -3257.4632      17.570128      8859.9113      10112.159    
      8300   293.33485     -3240.6843     -3257.633       16.948678      8688.7953      10112.159    
      8400   294.63903     -3240.6502     -3257.6742      17.024033      8796.9711      10112.159    
      8500   301.57441     -3239.5398     -3256.9646      17.424754      9014.325       10112.159    
      8600   305.28306     -3238.0445     -3255.6835      17.639037      9518.4215      10112.159    
      8700   308.83455     -3238.3507     -3256.1949      17.844239      9274.2259      10112.159    
      8800   305.58601     -3239.2772     -3256.9338      17.656541      9228.8453      10112.159    
      8900   305.50735     -3240.0127     -3257.6647      17.651996      8868.6791      10112.159    
      9000   301.75128     -3240.1493     -3257.5843      17.434973      8622.8367      10112.159    
      9100   288.51377     -3240.2606     -3256.9308      16.670119      9080.0899      10112.159    
      9200   287.02686     -3240.1771     -3256.7613      16.584207      8814.7672      10112.159    
      9300   316.80602     -3238.4337     -3256.7386      18.304825      9121.6344      10112.159    
      9400   339.67045     -3237.6049     -3257.2308      19.625916      8903.4859      10112.159    
      9500   293.4408      -3239.0295     -3255.9843      16.9548        9284.9357      10112.159    
      9600   306.22075     -3239.7796     -3257.4728      17.693216      8820.422       10112.159    
      9700   280.44774     -3240.4462     -3256.6503      16.20407       9083.9242      10112.159    
      9800   306.14757     -3240.1226     -3257.8116      17.688988      8708.237       10112.159    
      9900   319.7109      -3239.7016     -3258.1743      18.472667      8669.43        10112.159    
     10000   304.41165     -3238.4339     -3256.0226      17.588687      9042.7762      10112.159    
     10100   316.86027     -3237.8361     -3256.144       18.30796       9241.9156      10112.159    
     10200   305.03823     -3239.0958     -3256.7207      17.624891      9180.6828      10112.159    
     10300   298.60862     -3240.2364     -3257.4898      17.253393      8744.0454      10112.159    
     10400   303.27874     -3240.4504     -3257.9737      17.523229      8697.4881      10112.159    
     10500   301.33122     -3240.409      -3257.8197      17.410702      8529.1238      10112.159    
     10600   310.7257      -3239.2921     -3257.2456      17.953509      8878.2098      10112.159    
     10700   298.81522     -3238.3612     -3255.6265      17.26533       9050.2126      10112.159    
     10800   306.75061     -3238.451      -3256.1748      17.723831      9424.8051      10112.159    
     10900   303.75465     -3239.6024     -3257.1531      17.550727      8709.0617      10112.159    
     11000   303.59378     -3240.2868     -3257.8282      17.541431      8735.0823      10112.159    
     11100   304.74629     -3240.2835     -3257.8915      17.608023      8575.1395      10112.159    
     11200   297.46433     -3239.8496     -3257.0368      17.187276      8857.9107      10112.159    
     11300   301.06991     -3239.0063     -3256.4019      17.395604      9346.9283      10112.159    
     11400   301.36278     -3238.7948     -3256.2073      17.412526      9001.935       10112.159    
     11500   309.12455     -3239.7172     -3257.5782      17.860995      8364.667       10112.159    
     11600   293.62296     -3240.988      -3257.9533      16.965325      8584.834       10112.159    
     11700   306.32264     -3240.7395     -3258.4386      17.699103      8612.8775      10112.159    
     11800   283.15522     -3240.0527     -3256.4132      16.360506      9019.1932      10112.159    
     11900   302.51526     -3238.3265     -3255.8056      17.479116      9083.1975      10112.159    
     12000   315.65351     -3238.7297     -3256.9679      18.238234      8758.8234      10112.159    
     12100   305.08707     -3239.6186     -3257.2463      17.627713      8639.5219      10112.159    
     12200   305.76745     -3240.1448     -3257.8118      17.667025      8710.8894      10112.159    
     12300   262.75838     -3241.2813     -3256.4633      15.181991      9002.9196      10112.159    
     12400   313.78861     -3240.4389     -3258.5694      18.130482      8347.0871      10112.159    
     12500   316.11883     -3239.485      -3257.7501      18.26512       8489.1247      10112.159    
     12600   305.10384     -3239.3686     -3256.9973      17.628682      8676.7864      10112.159    
     12700   306.77582     -3239.5405     -3257.2658      17.725288      8814.266       10112.159    
     12800   283.63358     -3240.3628     -3256.7509      16.388145      8926.2916      10112.159    
     12900   301.74552     -3240.5528     -3257.9875      17.43464       8643.4145      10112.159    
     13000   295.82509     -3240.5165     -3257.6091      17.092562      8655.8036      10112.159    
     13100   297.4873      -3239.4064     -3256.5951      17.188603      8782.6573      10112.159    
     13200   309.04208     -3238.2868     -3256.1431      17.856231      9258.7574      10112.159    
     13300   315.45196     -3238.6424     -3256.8689      18.226588      9108.9921      10112.159    
     13400   295.84775     -3240.1433     -3257.2372      17.093872      8785.5171      10112.159    
     13500   284.58601     -3240.4677     -3256.9109      16.443176      8744.3414      10112.159    
     13600   307.08477     -3239.9394     -3257.6825      17.743138      8856.7501      10112.159    
     13700   292.16498     -3239.6179     -3256.499       16.881084      8985.2258      10112.159    
     13800   320.68924     -3238.2758     -3256.805       18.529195      9260.3866      10112.159    
     13900   308.08688     -3237.9614     -3255.7625      17.80104       9078.574       10112.159    
     14000   305.19262     -3239.7609     -3257.3947      17.633811      8688.0497      10112.159    
     14100   303.03304     -3240.6349     -3258.144       17.509032      8492.9229      10112.159    
     14200   280.03439     -3240.7776     -3256.9578      16.180187      8450.6687      10112.159    
     14300   318.35507     -3239.4259     -3257.8202      18.394328      8775.7919      10112.159    
     14400   283.30729     -3239.4802     -3255.8495      16.369292      9079.1913      10112.159    
     14500   311.69468     -3239.2442     -3257.2537      18.009496      9030.889       10112.159    
     14600   302.20248     -3240.2151     -3257.6762      17.461043      8569.5335      10112.159    
     14700   293.92852     -3241.7129     -3258.6959      16.98298       8392.5226      10112.159    
     14800   283.39957     -3241.3072     -3257.6818      16.374625      9024.9373      10112.159    
     14900   295.38535     -3240.1272     -3257.1943      17.067154      9004.679       10112.159    
     15000   287.45758     -3239.5968     -3256.2059      16.609093      9062.2189      10112.159    
     15100   323.00586     -3238.9567     -3257.6197      18.663048      8962.9368      10112.159    
     15200   306.03918     -3239.4948     -3257.1776      17.682725      8892.0902      10112.159    
     15300   289.01386     -3240.1001     -3256.7991      16.699014      8902.5705      10112.159    
     15400   298.73314     -3240.0541     -3257.3147      17.260587      8990.2563      10112.159    
     15500   297.21195     -3240.1529     -3257.3256      17.172694      8713.4617      10112.159    
     15600   292.99099     -3240.0689     -3256.9977      16.92881       9062.4127      10112.159    
     15700   320.19425     -3238.6131     -3257.1137      18.500595      8935.1036      10112.159    
     15800   302.49298     -3238.4076     -3255.8855      17.477828      9134.6578      10112.159    
     15900   303.59073     -3239.568      -3257.1093      17.541255      8659.3342      10112.159    
     16000   284.77062     -3240.7965     -3257.2504      16.453843      8750.5816      10112.159    
     16100   308.89916     -3240.0325     -3257.8805      17.847972      8675.4815      10112.159    
     16200   294.01715     -3239.7508     -3256.7389      16.988101      9169.6851      10112.159    
     16300   289.2086      -3239.835      -3256.5452      16.710266      8585.5378      10112.159    
     16400   310.36186     -3239.3802     -3257.3127      17.932486      8844.5019      10112.159    
     16500   310.7943      -3239.0858     -3257.0433      17.957473      8839.1141      10112.159    
     16600   277.29171     -3240.2102     -3256.2319      16.021717      8895.313       10112.159    
     16700   301.1057      -3240.5864     -3257.9841      17.397672      8603.1583      10112.159    
     16800   290.67866     -3241.3066     -3258.1018      16.795205      8188.4338      10112.159    
     16900   292.28738     -3241.1687     -3258.0569      16.888156      8689.6358      10112.159    
     17000   294.46598     -3239.8481     -3256.8621      17.014034      8861.0037      10112.159    
     17100   302.08086     -3238.7107     -3256.1647      17.454016      9541.8695      10112.159    
     17200   311.70062     -3238.8243     -3256.8341      18.009839      9232.7036      10112.159    
     17300   304.77249     -3239.6072     -3257.2168      17.609536      8813.9375      10112.159    
     17400   303.5314      -3239.9118     -3257.4497      17.537827      9108.8536      10112.159    
     17500   297.4132      -3240.2031     -3257.3874      17.184322      8968.385       10112.159    
     17600   294.199       -3240.2686     -3257.2672      16.998608      8626.5836      10112.159    
     17700   302.50251     -3239.275      -3256.7534      17.478379      8986.0732      10112.159    
     17800   329.08707     -3237.8743     -3256.8887      19.014415      9436.992       10112.159    
     17900   297.02732     -3238.6446     -3255.8066      17.162026      8874.2381      10112.159    
     18000   308.30668     -3239.8053     -3257.619       17.81374       8786.103       10112.159    
     18100   295.86933     -3240.5516     -3257.6467      17.095118      8795.451       10112.159    
     18200   307.83011     -3240.4358     -3258.222       17.786204      8399.3006      10112.159    
     18300   286.65327     -3240.2009     -3256.7635      16.562621      8971.536       10112.159    
     18400   308.72059     -3238.782      -3256.6196      17.837655      9313.3867      10112.159    
     18500   300.6029      -3238.9305     -3256.2992      17.368621      9394.1041      10112.159    
     18600   324.73512     -3239.0143     -3257.7773      18.762963      8920.154       10112.159    
     18700   295.02571     -3239.9552     -3257.0016      17.046374      8577.7573      10112.159    
     18800   277.40619     -3240.5458     -3256.5741      16.028331      9005.3837      10112.159    
     18900   323.67529     -3239.8864     -3258.5881      18.701727      8574.5046      10112.159    
     19000   288.30418     -3239.9261     -3256.5841      16.658009      8971.3288      10112.159    
     19100   307.81654     -3238.9156     -3256.701       17.78542       9398.5502      10112.159    
     19200   300.50824     -3238.6562     -3256.0193      17.363151      9133.984       10112.159    
     19300   301.20079     -3239.5331     -3256.9362      17.403166      9381.0177      10112.159    
     19400   284.44392     -3241.0023     -3257.4373      16.434966      8813.606       10112.159    
     19500   308.8528      -3240.772      -3258.6173      17.845294      8509.6024      10112.159    
     19600   286.95576     -3240.3296     -3256.9097      16.580099      8638.7451      10112.159    
     19700   297.15837     -3239.4413     -3256.6109      17.169598      9205.6824      10112.159    
     19800   307.65745     -3239.3657     -3257.1419      17.776228      9027.4953      10112.159    
     19900   304.13528     -3239.4962     -3257.0689      17.572719      8708.2737      10112.159    
     20000   305.18667     -3239.8512     -3257.4847      17.633468      8752.9926      10112.159    
     20100   288.57264     -3240.7057     -3257.3792      16.673521      8856.8042      10112.159    
     20200   279.90858     -3241.5223     -3257.6952      16.172918      8440.1871      10112.159    
     20300   284.10963     -3241.8148     -3258.2305      16.415651      8627.702       10112.159    
     20400   299.22779     -3240.6093     -3257.8985      17.289168      8762.1645      10112.159    
     20500   320.81538     -3239.114      -3257.6505      18.536483      8595.9939      10112.159    
     20600   297.45005     -3239.141      -3256.3275      17.186451      9103.1963      10112.159    
     20700   296.09719     -3239.6171     -3256.7254      17.108284      9123.4323      10112.159    
     20800   290.13341     -3240.7969     -3257.5606      16.763701      8813.2187      10112.159    
     20900   288.47612     -3241.4114     -3258.0794      16.667944      8720.1981      10112.159    
     21000   306.7503      -3240.2042     -3257.9281      17.723813      8448.4024      10112.159    
     21100   304.30451     -3238.3414     -3255.9239      17.582497      9483.8429      10112.159    
     21200   313.86842     -3238.6921     -3256.8272      18.135093      9446.8702      10112.159    
     21300   281.81566     -3240.2454     -3256.5285      16.283107      9023.2098      10112.159    
     21400   302.10264     -3240.271      -3257.7262      17.455274      8920.3228      10112.159    
     21500   296.31752     -3240.1433     -3257.2643      17.121014      8945.8017      10112.159    
     21600   312.07934     -3239.501      -3257.5328      18.031721      8842.9233      10112.159    
     21700   311.77713     -3238.5039     -3256.5182      18.01426       9160.4921      10112.159    
     21800   296.64046     -3238.3023     -3255.442       17.139674      9317.1812      10112.159    
     21900   295.90993     -3239.6504     -3256.7479      17.097464      9191.6083      10112.159    
     22000   307.77848     -3240.3967     -3258.1799      17.783221      8515.5875      10112.159    
     22100   290.53122     -3240.7596     -3257.5463      16.786686      8647.5796      10112.159    
     22200   310.22244     -3240.195      -3258.1195      17.924431      8736.7622      10112.159    
     22300   287.28855     -3239.6108     -3256.2101      16.599327      9146.2962      10112.159    
     22400   320.38515     -3237.5886     -3256.1002      18.511625      9409.8637      10112.159    
     22500   313.02809     -3238.0795     -3256.166       18.086539      9205.502       10112.159    
     22600   300.66811     -3238.9235     -3256.2959      17.372388      9190.8235      10112.159    
     22700   315.7759      -3239.5927     -3257.838       18.245306      9066.5133      10112.159    
     22800   278.1187      -3240.8038     -3256.8733      16.069499      8539.7719      10112.159    
     22900   296.61645     -3240.4446     -3257.5829      17.138286      8920.5478      10112.159    
     23000   295.54331     -3240.1348     -3257.211       17.076281      8973.3061      10112.159    
     23100   305.77257     -3239.4755     -3257.1429      17.66732       8896.2986      10112.159    
     23200   296.00497     -3239.3815     -3256.4845      17.102955      9229.9952      10112.159    
     23300   296.44732     -3240.2291     -3257.3576      17.128514      8990.0589      10112.159    
     23400   300.73227     -3241.7226     -3259.0987      17.376096      8366.2276      10112.159    
     23500   271.24274     -3242.0055     -3257.6777      15.672212      8432.5236      10112.159    
     23600   293.27307     -3240.4159     -3257.361       16.945108      8958.1623      10112.159    
     23700   302.57494     -3239.8844     -3257.367       17.482564      8795.8903      10112.159    
     23800   305.23682     -3239.4237     -3257.0601      17.636365      8499.6587      10112.159    
     23900   309.85359     -3238.7951     -3256.6983      17.903119      8996.4752      10112.159    
     24000   299.85555     -3239.4172     -3256.7427      17.325439      9123.058       10112.159    
     24100   294.41933     -3241.067      -3258.0783      17.011339      8303.1383      10112.159    
     24200   286.44531     -3241.4043     -3257.9549      16.550605      8617.8859      10112.159    
     24300   300.9008      -3240.2181     -3257.604       17.385833      8721.7128      10112.159    
     24400   302.18423     -3239.4867     -3256.9466      17.459989      8911.1411      10112.159    
     24500   303.64544     -3239.6315     -3257.1759      17.544416      8778.6392      10112.159    
     24600   298.99222     -3239.9473     -3257.2228      17.275557      9040.1418      10112.159    
     24700   302.37512     -3240.0319     -3257.5029      17.471018      8963.9987      10112.159    
     24800   300.5286      -3240.3042     -3257.6685      17.364328      8596.1941      10112.159    
     24900   290.67077     -3240.5185     -3257.3133      16.794749      8574.5847      10112.159    
     25000   300.90198     -3240.1254     -3257.5113      17.385901      8977.8469      10112.159    
     25100   287.17009     -3239.6037     -3256.1962      16.592483      9021.0561      10112.159    
     25200   319.30246     -3238.4118     -3256.8608      18.449068      9076.4439      10112.159    
     25300   307.62825     -3238.4619     -3256.2364      17.77454       9193.2289      10112.159    
     25400   293.59426     -3240.1745     -3257.1382      16.963666      8878.5831      10112.159    
     25500   305.33664     -3240.9945     -3258.6366      17.642132      8579.8678      10112.159    
     25600   273.93151     -3241.1575     -3256.9851      15.827567      9028.0175      10112.159    
     25700   307.91784     -3239.7671     -3257.5584      17.791273      8928.3902      10112.159    
     25800   307.99362     -3239.3426     -3257.1383      17.795651      8655.8778      10112.159    
     25900   301.93558     -3239.4031     -3256.8487      17.445622      9045.6744      10112.159    
     26000   303.26506     -3239.8246     -3257.347       17.522438      8906.3157      10112.159    
     26100   269.73438     -3241.6594     -3257.2445      15.58506       8803.4906      10112.159    
     26200   295.32208     -3241.7181     -3258.7816      17.063499      8496.4547      10112.159    
     26300   291.72496     -3241.0752     -3257.9308      16.855659      8495.7914      10112.159    
     26400   294.8913      -3240.1297     -3257.1683      17.038609      8602.4229      10112.159    
     26500   290.31478     -3239.9779     -3256.7521      16.77418       8927.6587      10112.159    
     26600   314.13647     -3239.5479     -3257.6985      18.150581      8984.7414      10112.159    
     26700   298.72707     -3239.4588     -3256.719       17.260237      8941.1423      10112.159    
     26800   304.3985      -3239.548      -3257.1359      17.587928      8898.3112      10112.159    
     26900   293.66523     -3240.307      -3257.2747      16.967767      8837.2169      10112.159    
     27000   289.35044     -3240.9989     -3257.7173      16.718462      8837.1549      10112.159    
     27100   298.34654     -3240.6383     -3257.8765      17.23825       8605.6513      10112.159    
     27200   318.15889     -3239.1004     -3257.4833      18.382993      8761.9939      10112.159    
     27300   299.43511     -3238.5456     -3255.8468      17.301147      9305.1611      10112.159    
     27400   302.23439     -3239.0108     -3256.4736      17.462887      9057.9233      10112.159    
     27500   303.74531     -3239.7798     -3257.33        17.550187      9208.3914      10112.159    
     27600   304.08637     -3240.0108     -3257.5807      17.569893      8865.1595      10112.159    
     27700   294.83427     -3239.9822     -3257.0176      17.035313      9111.1529      10112.159    
     27800   284.76728     -3239.7879     -3256.2415      16.45365       9062.0155      10112.159    
     27900   313.60815     -3239.2329     -3257.3529      18.120055      8899.3545      10112.159    
     28000   297.07789     -3239.1743     -3256.3392      17.164948      9025.2291      10112.159    
     28100   305.52678     -3239.5447     -3257.1978      17.653119      8902.9524      10112.159    
     28200   287.25671     -3240.6272     -3257.2247      16.597487      8890.3141      10112.159    
     28300   274.77671     -3241.41       -3257.2864      15.876402      8705.8916      10112.159    
     28400   303.77072     -3240.7839     -3258.3356      17.551655      8383.1322      10112.159    
     28500   303.93857     -3238.7555     -3256.3168      17.561353      9124.2599      10112.159    
     28600   307.63769     -3238.7229     -3256.498       17.775086      8837.9193      10112.159    
     28700   301.63878     -3239.6817     -3257.1102      17.428473      8946.4752      10112.159    
     28800   301.90474     -3240.5541     -3257.998       17.44384       8583.292       10112.159    
     28900   292.85608     -3240.9522     -3257.8732      16.921015      8836.9262      10112.159    
     29000   295.38323     -3239.8267     -3256.8937      17.067032      8965.6213      10112.159    
     29100   306.686       -3238.2629     -3255.983       17.720097      9273.655       10112.159    
     29200   318.32604     -3238.4552     -3256.8479      18.392651      8864.848       10112.159    
     29300   300.06494     -3239.9475     -3257.285       17.337537      8924.1888      10112.159    
     29400   293.26709     -3240.4745     -3257.4192      16.944763      8843.8618      10112.159    
     29500   291.5141      -3240.2577     -3257.1011      16.843476      8799.7959      10112.159    
     29600   303.52942     -3239.4348     -3256.9725      17.537713      8700.0678      10112.159    
     29700   334.45611     -3237.7842     -3257.1088      19.324635      9041.3645      10112.159    
     29800   303.22049     -3237.7565     -3255.2764      17.519863      9468.1157      10112.159    
     29900   298.57181     -3239.5785     -3256.8298      17.251266      8922.8629      10112.159    
     30000   302.3052      -3240.4135     -3257.8805      17.466978      9010.6016      10112.159    
     30100   287.85325     -3240.8205     -3257.4525      16.631955      8108.8997      10112.159    
     30200   312.1408      -3239.9957     -3258.031       18.035272      8441.6924      10112.159    
     30300   308.02863     -3239.0814     -3256.8791      17.797674      8819.9729      10112.159    
     30400   296.76023     -3239.0259     -3256.1725      17.146594      8858.7816      10112.159    
     30500   304.39453     -3240.1393     -3257.727       17.587698      8717.6376      10112.159    
     30600   287.41044     -3241.6349     -3258.2413      16.60637       8539.2134      10112.159    
     30700   289.94629     -3241.1459     -3257.8987      16.752889      8377.8783      10112.159    
     30800   316.12047     -3239.8795     -3258.1447      18.265215      8874.8926      10112.159    
     30900   284.55045     -3239.5969     -3256.0381      16.441121      8999.7511      10112.159    
     31000   308.83786     -3239.151      -3256.9954      17.84443       9096.8236      10112.159    
     31100   303.6344      -3239.6077     -3257.1514      17.543778      8543.6617      10112.159    
     31200   308.26352     -3240.0623     -3257.8735      17.811246      8560.3919      10112.159    
     31300   286.04643     -3240.6989     -3257.2265      16.527558      8649.3884      10112.159    
     31400   276.61662     -3241.6755     -3257.6582      15.98271       8532.0914      10112.159    
     31500   292.30143     -3241.582      -3258.4709      16.888968      8507.6718      10112.159    
     31600   295.19357     -3240.0646     -3257.1207      17.056073      8543.7062      10112.159    
     31700   302.10254     -3239.3253     -3256.7806      17.455269      9281.1794      10112.159    
     31800   299.91105     -3239.4383     -3256.7669      17.328646      8833.608       10112.159    
     31900   308.17369     -3239.6841     -3257.4901      17.806055      8869.4349      10112.159    
     32000   274.68608     -3241.0853     -3256.9565      15.871165      8721.0177      10112.159    
     32100   295.89322     -3240.8809     -3257.9774      17.096498      8897.9945      10112.159    
     32200   303.82261     -3240.1643     -3257.719       17.554653      8688.1958      10112.159    
     32300   301.72892     -3239.2712     -3256.7048      17.433681      8618.469       10112.159    
     32400   319.36827     -3237.6827     -3256.1356      18.45287       9234.4431      10112.159    
     32500   290.02247     -3238.1644     -3254.9217      16.757291      9484.6006      10112.159    
     32600   321.32744     -3238.9021     -3257.4681      18.56607       8997.9864      10112.159    
     32700   308.39186     -3240.2734     -3258.092       17.818661      8795.7319      10112.159    
     32800   284.50602     -3240.5799     -3257.0185      16.438554      8648.8945      10112.159    
     32900   302.89538     -3240.0261     -3257.5272      17.501078      8871.3291      10112.159    
     33000   287.99744     -3239.5244     -3256.1647      16.640286      9140.0194      10112.159    
     33100   311.45109     -3238.2265     -3256.2219      17.995421      9367.9944      10112.159    
     33200   314.94652     -3238.9182     -3257.1156      18.197385      9023.4272      10112.159    
     33300   319.89679     -3239.5974     -3258.0808      18.483408      8600.9279      10112.159    
     33400   279.05409     -3240.3836     -3256.5072      16.123546      8941.6285      10112.159    
     33500   296.14997     -3240.073      -3257.1844      17.111333      9163.6479      10112.159    
     33600   304.95723     -3239.8026     -3257.4228      17.620211      8763.517       10112.159    
     33700   306.85024     -3239.5971     -3257.3267      17.729587      9109.6965      10112.159    
     33800   315.65638     -3238.7346     -3256.973       18.2384        9019.5516      10112.159    
     33900   289.71608     -3238.8732     -3255.6128      16.739588      9295.6172      10112.159    
     34000   303.0941      -3239.5751     -3257.0877      17.512561      8993.5997      10112.159    
     34100   282.92726     -3241.0072     -3257.3545      16.347335      8509.3516      10112.159    
     34200   293.60935     -3240.8886     -3257.8532      16.964538      8360.3162      10112.159    
     34300   316.51777     -3239.9779     -3258.2661      18.288171      8729.9274      10112.159    
     34400   295.35594     -3239.6775     -3256.743       17.065455      8680.5204      10112.159    
     34500   296.15983     -3239.6228     -3256.7347      17.111903      9513.1644      10112.159    
     34600   299.08242     -3240.0495     -3257.3303      17.280768      8915.0531      10112.159    
     34700   297.09625     -3240.5238     -3257.6898      17.166009      9019.9857      10112.159    
     34800   306.76752     -3240.4308     -3258.1556      17.724808      8777.8209      10112.159    
     34900   302.44005     -3239.3716     -3256.8463      17.47477       8874.1861      10112.159    
     35000   301.99324     -3238.7928     -3256.2418      17.448953      9191.9593      10112.159    
     35100   300.54852     -3239.5757     -3256.9412      17.365478      8964.4255      10112.159    
     35200   307.64631     -3240.4655     -3258.2411      17.775584      8815.7897      10112.159    
     35300   289.02551     -3241.3364     -3258.0361      16.699687      8492.5985      10112.159    
     35400   290.68628     -3240.8487     -3257.6444      16.795646      8891.6995      10112.159    
     35500   293.77405     -3239.0645     -3256.0385      16.974054      9665.1363      10112.159    
     35600   311.89232     -3238.6697     -3256.6906      18.020915      9257.5578      10112.159    
     35700   296.15986     -3239.6944     -3256.8063      17.111905      9003.6959      10112.159    
     35800   302.00266     -3240.6209     -3258.0704      17.449498      8585.0871      10112.159    
     35900   299.36886     -3240.8584     -3258.1557      17.297318      8665.3949      10112.159    
     36000   290.63588     -3240.6496     -3257.4423      16.792733      9214.8247      10112.159    
     36100   301.67078     -3239.5288     -3256.9591      17.430322      8938.5167      10112.159    
     36200   313.36361     -3239.0065     -3257.1124      18.105925      9382.8546      10112.159    
     36300   288.23069     -3239.8309     -3256.4846      16.653763      9304.1669      10112.159    
     36400   308.05895     -3240.0817     -3257.8811      17.799426      9090.6946      10112.159    
     36500   290.78037     -3240.6565     -3257.4576      16.801082      9000.999       10112.159    
     36600   300.59755     -3240.8895     -3258.2578      17.368311      8564.1534      10112.159    
     36700   287.5423      -3240.563      -3257.177       16.613989      8986.6168      10112.159    
     36800   306.26219     -3238.9255     -3256.6211      17.69561       8969.9348      10112.159    
     36900   313.87313     -3238.853      -3256.9883      18.135365      9084.6246      10112.159    
     37000   303.38783     -3239.6367     -3257.1663      17.529532      8983.0253      10112.159    
     37100   297.94384     -3240.6387     -3257.8537      17.214982      8927.6312      10112.159    
     37200   275.46487     -3241.8307     -3257.7468      15.916163      8607.7866      10112.159    
     37300   312.10269     -3240.4462     -3258.4793      18.03307       8456.5477      10112.159    
     37400   306.24929     -3238.7382     -3256.4331      17.694865      9075.8761      10112.159    
     37500   299.28966     -3238.8078     -3256.1005      17.292743      9672.9168      10112.159    
     37600   291.96104     -3240.0156     -3256.8849      16.8693        8960.9567      10112.159    
     37700   308.75812     -3240.3673     -3258.2071      17.839824      8439.834       10112.159    
     37800   291.22087     -3240.5725     -3257.399       16.826534      9047.32        10112.159    
     37900   298.94369     -3239.6797     -3256.9525      17.272753      9058.9014      10112.159    
     38000   316.49602     -3238.4431     -3256.73        18.286914      9310.3075      10112.159    
     38100   307.0128      -3238.9811     -3256.7201      17.73898       9179.2498      10112.159    
     38200   292.95288     -3240.3982     -3257.3248      16.926608      8830.4338      10112.159    
     38300   285.14755     -3240.7039     -3257.1795      16.475622      8949.2133      10112.159    
     38400   292.70973     -3240.3798     -3257.2924      16.912559      8833.9355      10112.159    
     38500   279.33459     -3240.2561     -3256.3959      16.139753      9088.8898      10112.159    
     38600   325.20294     -3239.1691     -3257.9591      18.789993      8849.2913      10112.159    
     38700   291.44618     -3239.4989     -3256.3384      16.839552      9214.4816      10112.159    
     38800   307.76713     -3240.9608     -3258.7433      17.782564      8566.501       10112.159    
     38900   274.84003     -3242.078      -3257.958       15.880061      8545.0645      10112.159    
     39000   288.84225     -3241.1576     -3257.8467      16.689099      8955.7377      10112.159    
     39100   298.51544     -3239.9057     -3257.1537      17.248009      8867.3078      10112.159    
     39200   300.59047     -3239.3717     -3256.7396      17.367903      9157.0695      10112.159    
     39300   315.49396     -3239.5475     -3257.7765      18.229015      9190.7987      10112.159    
     39400   278.23538     -3240.6162     -3256.6924      16.076242      8939.975       10112.159    
     39500   303.88949     -3240.5244     -3258.0829      17.558517      8731.7141      10112.159    
     39600   300.6011      -3240.2246     -3257.5931      17.368516      9102.1086      10112.159    
     39700   305.18539     -3237.7637     -3255.3971      17.633394      9894.1026      10112.159    
     39800   301.90093     -3238.3549     -3255.7985      17.44362       9464.1266      10112.159    
     39900   323.55981     -3239.5377     -3258.2328      18.695055      8941.0683      10112.159    
     40000   290.27605     -3240.6704     -3257.4423      16.771943      8949.7057      10112.159    
     40100   293.40678     -3240.5662     -3257.5191      16.952834      8895.7647      10112.159    
     40200   311.02762     -3239.5408     -3257.5117      17.970953      8939.6515      10112.159    
     40300   321.24468     -3238.2707     -3256.832       18.561288      9343.3698      10112.159    
     40400   299.55245     -3238.7516     -3256.0596      17.307926      9301.6615      10112.159    
     40500   296.12735     -3239.3425     -3256.4525      17.110026      9325.7014      10112.159    
     40600   322.42866     -3239.5182     -3258.1479      18.629698      8797.143       10112.159    
     40700   303.09996     -3240.3884     -3257.9013      17.512899      8799.0296      10112.159    
     40800   278.45178     -3241.105      -3257.1938      16.088745      8886.9475      10112.159    
     40900   311.3283      -3240.3322     -3258.3205      17.988326      8922.6565      10112.159    
     41000   312.29244     -3238.6788     -3256.7228      18.044034      9200.8124      10112.159    
     41100   307.67875     -3238.4529     -3256.2304      17.777458      9242.2785      10112.159    
     41200   310.85607     -3239.2682     -3257.2293      17.961041      9040.1207      10112.159    
     41300   296.91749     -3240.7597     -3257.9154      17.15568       8653.8381      10112.159    
     41400   285.62085     -3240.9194     -3257.4224      16.502969      8886.4454      10112.159    
     41500   295.8899      -3240.2151     -3257.3114      17.096307      8862.6366      10112.159    
     41600   301.96644     -3239.3442     -3256.7916      17.447405      9115.7774      10112.159    
     41700   321.06075     -3238.7223     -3257.273       18.55066       9500.4913      10112.159    
     41800   274.56301     -3240.3768     -3256.2408      15.864054      9148.8928      10112.159    
     41900   296.35305     -3241.1676     -3258.2907      17.123067      9006.4548      10112.159    
     42000   289.62371     -3241.2011     -3257.9354      16.734251      8963.5284      10112.159    
     42100   302.35269     -3239.9339     -3257.4036      17.469722      9087.0528      10112.159    
     42200   311.37069     -3239.209      -3257.1998      17.990776      9181.8867      10112.159    
     42300   305.94583     -3239.3038     -3256.9811      17.677331      9406.3082      10112.159    
     42400   290.40116     -3239.8027     -3256.5819      16.779171      9373.7535      10112.159    
     42500   297.45701     -3240.7322     -3257.919       17.186853      8703.4391      10112.159    
     42600   283.371       -3241.7772     -3258.1501      16.372974      8330.481       10112.159    
     42700   305.51932     -3240.8321     -3258.4848      17.652688      8778.6733      10112.159    
     42800   303.91251     -3238.916      -3256.4759      17.559848      9447.2148      10112.159    
     42900   298.23479     -3239.176      -3256.4078      17.231793      9524.4058      10112.159    
     43000   290.1644      -3239.9824     -3256.7479      16.765491      8825.053       10112.159    
     43100   310.34412     -3240.2636     -3258.195       17.931461      8946.8025      10112.159    
     43200   301.50381     -3240.6369     -3258.0575      17.420675      9009.5732      10112.159    
     43300   292.18075     -3240.5865     -3257.4685      16.881995      8717.5826      10112.159    
     43400   300.01068     -3239.8651     -3257.1995      17.334402      9146.7739      10112.159    
     43500   313.47273     -3238.988      -3257.1002      18.11223       9105.9706      10112.159    
     43600   305.95343     -3239.1228     -3256.8006      17.67777       9247.997       10112.159    
     43700   297.25646     -3240.0792     -3257.2545      17.175266      9031.94        10112.159    
     43800   294.04334     -3241.1724     -3258.162       16.989614      8656.1761      10112.159    
     43900   292.30317     -3241.1758     -3258.0649      16.889068      8507.3903      10112.159    
     44000   286.31573     -3239.7548     -3256.2979      16.543118      9042.8008      10112.159    
     44100   321.17476     -3238.584      -3257.1413      18.557248      8926.7037      10112.159    
     44200   315.09058     -3239.2395     -3257.4452      18.205708      9054.7165      10112.159    
     44300   302.91        -3240.0411     -3257.543       17.501923      8895.1097      10112.159    
     44400   275.16112     -3241.1132     -3257.0118      15.898613      9068.4528      10112.159    
     44500   284.31239     -3241.0243     -3257.4517      16.427367      8712.1025      10112.159    
     44600   309.84034     -3239.4803     -3257.3826      17.902353      8755.6705      10112.159    
     44700   313.81201     -3239.0736     -3257.2054      18.131833      9024.732       10112.159    
     44800   289.47596     -3239.6103     -3256.336       16.725714      9503.9257      10112.159    
     44900   300.19667     -3240.2836     -3257.6288      17.345149      8790.6056      10112.159    
     45000   301.12867     -3240.8888     -3258.2878      17.398999      8311.9137      10112.159    
     45100   295.31247     -3240.4895     -3257.5525      17.062943      9304.4457      10112.159    
     45200   307.08475     -3238.6059     -3256.3491      17.743137      9220.9874      10112.159    
     45300   314.95228     -3238.547      -3256.7447      18.197717      9105.1792      10112.159    
     45400   298.141       -3239.4585     -3256.6849      17.226374      9408.2859      10112.159    
     45500   296.59266     -3240.2431     -3257.38        17.136912      9137.7668      10112.159    
     45600   297.0477      -3240.4524     -3257.6156      17.163204      8725.5741      10112.159    
     45700   296.27359     -3240.1884     -3257.3069      17.118476      8995.531       10112.159    
     45800   292.50898     -3240.0511     -3256.952       16.90096       8801.6893      10112.159    
     45900   305.89851     -3239.597      -3257.2716      17.674597      9188.4796      10112.159    
     46000   299.94495     -3239.5034     -3256.8341      17.330605      8917.6411      10112.159    
     46100   300.79382     -3240.2441     -3257.6238      17.379652      8753.2751      10112.159    
     46200   277.3226      -3241.2814     -3257.3049      16.023502      8635.1502      10112.159    
     46300   294.26508     -3241.0836     -3258.086       17.002426      8804.2372      10112.159    
     46400   317.83793     -3239.6559     -3258.0204      18.364448      8838.4873      10112.159    
     46500   301.65733     -3239.1403     -3256.5698      17.429545      8921.2349      10112.159    
     46600   313.38266     -3239.0854     -3257.1925      18.107026      9180.4526      10112.159    
     46700   297.47961     -3240.0236     -3257.2118      17.188159      8643.5777      10112.159    
     46800   292.42599     -3240.8345     -3257.7306      16.896165      8708.0227      10112.159    
     46900   295.1193      -3240.6725     -3257.7243      17.051782      8860.3234      10112.159    
     47000   297.44482     -3240.3214     -3257.5076      17.186149      8926.3657      10112.159    
     47100   302.07716     -3239.8052     -3257.259       17.453802      8675.9382      10112.159    
     47200   316.26918     -3238.8857     -3257.1595      18.273807      9244.4192      10112.159    
     47300   306.65379     -3238.8083     -3256.5266      17.718236      9284.0235      10112.159    
     47400   284.97378     -3240.3135     -3256.7791      16.465581      8816.8987      10112.159    
     47500   287.25244     -3241.0674     -3257.6646      16.59724       8790.3267      10112.159    
     47600   300.22786     -3240.7754     -3258.1223      17.346951      8859.1495      10112.159    
     47700   304.81281     -3240.2032     -3257.815       17.611866      8615.1064      10112.159    
     47800   287.20831     -3239.6545     -3256.2492      16.594691      9385.693       10112.159    
     47900   308.8791      -3238.8099     -3256.6567      17.846814      9462.4773      10112.159    
     48000   310.77708     -3239.6269     -3257.5834      17.956477      9026.4901      10112.159    
     48100   291.99993     -3241.2559     -3258.1274      16.871547      8650.1901      10112.159    
     48200   286.21524     -3240.8675     -3257.4048      16.537312      8802.5465      10112.159    
     48300   303.99574     -3239.5371     -3257.1017      17.564656      9065.0135      10112.159    
     48400   299.81851     -3239.2207     -3256.544       17.323299      9082.8252      10112.159    
     48500   305.22264     -3239.3664     -3257.0019      17.635546      8774.4051      10112.159    
     48600   289.23799     -3240.766      -3257.478       16.711964      8664.0137      10112.159    
     48700   267.25202     -3242.0212     -3257.4628      15.44163       8836.0729      10112.159    
     48800   291.30493     -3241.2025     -3258.0339      16.831391      8916.2911      10112.159    
     48900   288.17085     -3240.3159     -3256.9662      16.650305      8918.8225      10112.159    
     49000   307.06303     -3239.5653     -3257.3072      17.741882      9037.2348      10112.159    
     49100   315.06452     -3239.4489     -3257.6532      18.204203      8895.5939      10112.159    
     49200   294.60066     -3240.1848     -3257.2066      17.021815      9052.3243      10112.159    
     49300   271.50996     -3241.7793     -3257.467       15.687651      8792.4141      10112.159    
     49400   288.12733     -3242.1698     -3258.8176      16.647791      8114.3223      10112.159    
     49500   291.16551     -3240.6466     -3257.4699      16.823335      8838.6243      10112.159    
     49600   304.43252     -3239.6845     -3257.2744      17.589893      8848.8318      10112.159    
     49700   315.14491     -3239.3272     -3257.536       18.208848      8729.28        10112.159    
     49800   295.11109     -3239.5305     -3256.5818      17.051307      9113.2815      10112.159    
     49900   293.08775     -3240.2779     -3257.2123      16.934401      8873.571       10112.159    
     50000   283.22421     -3241.2398     -3257.6043      16.364492      8594.3266      10112.159    
     50100   305.88576     -3240.6309     -3258.3047      17.67386       8853.5875      10112.159    
     50200   306.85675     -3238.898      -3256.628       17.729964      9153.9919      10112.159    
     50300   298.1681      -3238.5937     -3255.8217      17.227939      9244.0024      10112.159    
     50400   306.52425     -3239.2099     -3256.9207      17.710752      8907.3782      10112.159    
     50500   291.2473      -3240.3003     -3257.1283      16.828061      8893.6041      10112.159    
     50600   316.19331     -3240.4596     -3258.7291      18.269423      8489.9658      10112.159    
     50700   284.41764     -3240.7108     -3257.1443      16.433448      8837.7139      10112.159    
     50800   304.73106     -3238.8114     -3256.4185      17.607143      9468.6183      10112.159    
     50900   306.65256     -3238.2162     -3255.9344      17.718166      9226.6778      10112.159    
     51000   318.01889     -3238.802      -3257.1769      18.374904      9057.8321      10112.159    
     51100   304.55265     -3240.0468     -3257.6437      17.596834      8601.6767      10112.159    
     51200   291.93245     -3240.1166     -3256.9843      16.867648      9277.4719      10112.159    
     51300   290.7472      -3240.1717     -3256.9709      16.799165      8966.0404      10112.159    
     51400   300.2208      -3240.0141     -3257.3606      17.346543      9073.2681      10112.159    
     51500   319.17375     -3238.7984     -3257.24        18.441631      9123.5541      10112.159    
     51600   317.10921     -3238.2285     -3256.5509      18.322343      9096.6655      10112.159    
     51700   294.59642     -3238.7035     -3255.7251      17.021571      9367.8449      10112.159    
     51800   298.75453     -3240.6529     -3257.9147      17.261823      8717.2113      10112.159    
     51900   309.89264     -3240.6359     -3258.5413      17.905375      8668.0743      10112.159    
     52000   296.20134     -3240.0149     -3257.1292      17.114302      8902.8837      10112.159    
     52100   292.66859     -3239.1759     -3256.086       16.910182      9338.445       10112.159    
     52200   313.00968     -3238.5956     -3256.681       18.085475      9342.7129      10112.159    
     52300   296.25704     -3239.9064     -3257.0239      17.11752       9202.7522      10112.159    
     52400   294.23886     -3241.4515     -3258.4525      17.000911      8436.9258      10112.159    
     52500   301.43959     -3241.2041     -3258.6211      17.416964      8598.2205      10112.159    
     52600   289.75076     -3240.2045     -3256.9461      16.741592      9058.4128      10112.159    
     52700   302.74176     -3239.5639     -3257.0561      17.492202      8918.5482      10112.159    
     52800   306.75651     -3239.5152     -3257.2393      17.724172      8991.5096      10112.159    
     52900   300.25393     -3239.7925     -3257.1409      17.348458      9024.1574      10112.159    
     53000   282.58106     -3240.8814     -3257.2088      16.327331      8986.706       10112.159    
     53100   297.63743     -3241.9233     -3259.1206      17.197278      8196.6757      10112.159    
     53200   278.67933     -3241.9995     -3258.1014      16.101892      8659.3629      10112.159    
     53300   295.92778     -3240.1742     -3257.2727      17.098495      9082.596       10112.159    
     53400   299.40884     -3239.8458     -3257.1454      17.299629      8959.4748      10112.159    
     53500   302.03667     -3239.7792     -3257.2307      17.451463      9261.5548      10112.159    
     53600   313.61041     -3239.4787     -3257.5989      18.120185      8926.6719      10112.159    
     53700   293.50552     -3239.702      -3256.6606      16.958539      9079.6948      10112.159    
     53800   300.02419     -3240.1569     -3257.492       17.335183      9040.8378      10112.159    
     53900   269.05846     -3241.2929     -3256.8389      15.546006      9003.5293      10112.159    
     54000   310.7466      -3240.7649     -3258.7196      17.954716      8483.3988      10112.159    
     54100   302.89208     -3239.8648     -3257.3657      17.500888      8945.3027      10112.159    
     54200   304.88807     -3238.5459     -3256.1622      17.616215      9664.8526      10112.159    
     54300   313.86206     -3237.4495     -3255.5842      18.134725      9547.3753      10112.159    
     54400   310.78886     -3238.9452     -3256.9023      17.957158      9237.3929      10112.159    
     54500   296.33304     -3240.5243     -3257.6462      17.121911      8988.1688      10112.159    
     54600   296.59276     -3241.2526     -3258.3895      17.136918      8416.7359      10112.159    
     54700   278.22847     -3241.1388     -3257.2147      16.075842      8942.3231      10112.159    
     54800   297.11416     -3239.7855     -3256.9525      17.167044      9108.2656      10112.159    
     54900   302.8216      -3239.3582     -3256.855       17.496815      9386.2412      10112.159    
     55000   319.02834     -3239.1896     -3257.6229      18.43323       8740.9636      10112.159    
     55100   282.59711     -3240.5601     -3256.8884      16.328259      9135.866       10112.159    
     55200   284.21849     -3241.557      -3257.9789      16.421941      8798.0086      10112.159    
     55300   283.91545     -3241.1264     -3257.5308      16.404432      8764.2969      10112.159    
     55400   306.6362      -3239.9511     -3257.6683      17.71722       8885.3345      10112.159    
     55500   295.42333     -3239.8559     -3256.9253      17.069349      8970.4445      10112.159    
     55600   300.94017     -3239.6081     -3256.9962      17.388108      9087.6804      10112.159    
     55700   302.94713     -3239.3447     -3256.8488      17.504068      9317.3988      10112.159    
     55800   315.66221     -3238.9729     -3257.2117      18.238737      9422.6069      10112.159    
     55900   299.71182     -3239.8146     -3257.1317      17.317134      8767.0603      10112.159    
     56000   287.7457      -3240.8421     -3257.4679      16.625741      8587.4662      10112.159    
     56100   310.31217     -3240.4107     -3258.3403      17.929615      9010.8073      10112.159    
     56200   293.60388     -3239.8248     -3256.7891      16.964222      9191.1561      10112.159    
     56300   320.11175     -3237.9829     -3256.4787      18.495828      9418.8168      10112.159    
     56400   311.74607     -3238.1472     -3256.1597      18.012465      9285.7456      10112.159    
     56500   296.39323     -3239.3579     -3256.4833      17.125389      9212.994       10112.159    
     56600   299.70682     -3240.0892     -3257.406       17.316846      8880.2107      10112.159    
     56700   299.222       -3240.216      -3257.5048      17.288833      9108.6555      10112.159    
     56800   299.63097     -3239.9928     -3257.3053      17.312463      9469.7612      10112.159    
     56900   301.34214     -3239.3204     -3256.7317      17.411333      9107.4635      10112.159    
     57000   308.79453     -3237.956      -3255.7979      17.841927      9630.5318      10112.159    
     57100   296.83452     -3238.1658     -3255.3167      17.150886      9647.7884      10112.159    
     57200   308.0554      -3239.921      -3257.7202      17.79922       8796.4444      10112.159    
     57300   291.15619     -3240.7332     -3257.556       16.822797      8741.8725      10112.159    
     57400   299.05274     -3240.1956     -3257.4747      17.279053      8966.6359      10112.159    
     57500   310.89358     -3239.4681     -3257.4313      17.963209      9094.3161      10112.159    
     57600   300.76985     -3239.1144     -3256.4927      17.378267      9328.0169      10112.159    
     57700   301.04481     -3238.408      -3255.8022      17.394154      9262.2866      10112.159    
     57800   327.61927     -3238.6438     -3257.5735      18.929607      8879.7233      10112.159    
     57900   292.63467     -3240.3638     -3257.272       16.908222      9010.7207      10112.159    
     58000   288.59584     -3240.9016     -3257.5765      16.674861      8890.4929      10112.159    
     58100   310.40387     -3240.1594     -3258.0943      17.934913      8754.0327      10112.159    
     58200   285.77054     -3239.4119     -3255.9235      16.511617      9329.4811      10112.159    
     58300   322.31032     -3238.5815     -3257.2044      18.62286       9296.4001      10112.159    
     58400   286.21059     -3240.4627     -3256.9998      16.537043      8726.837       10112.159    
     58500   292.81882     -3241.3644     -3258.2833      16.918862      8792.2234      10112.159    
     58600   288.22715     -3240.8847     -3257.5382      16.653559      9066.121       10112.159    
     58700   294.28981     -3239.5906     -3256.5944      17.003855      9202.7593      10112.159    
     58800   313.71858     -3239.3222     -3257.4486      18.126435      8898.9509      10112.159    
     58900   318.50414     -3239.6434     -3258.0464      18.402942      8687.7931      10112.159    
     59000   290.76438     -3240.3561     -3257.1562      16.800158      9051.6898      10112.159    
     59100   277.70907     -3240.8133     -3256.8591      16.045832      8780.064       10112.159    
     59200   301.68111     -3240.7257     -3258.1566      17.430919      8723.9148      10112.159    
     59300   314.98506     -3239.8776     -3258.0773      18.199611      8847.7384      10112.159    
     59400   289.31405     -3239.8269     -3256.5432      16.716359      9003.4943      10112.159    
     59500   301.34637     -3239.4199     -3256.8315      17.411578      9060.2365      10112.159    
     59600   307.27071     -3238.3821     -3256.136       17.753882      9502.9329      10112.159    
     59700   305.36196     -3238.7133     -3256.3569      17.643596      9481.0032      10112.159    
     59800   313.73485     -3240.3713     -3258.4987      18.127375      8719.4545      10112.159    
     59900   280.49084     -3240.9881     -3257.1947      16.20656       8614.8098      10112.159    
     60000   302.93012     -3240.1012     -3257.6043      17.503086      8758.751       10112.159    
     60100   291.3644      -3239.5595     -3256.3943      16.834827      9161.1911      10112.159    
     60200   302.25465     -3239.2833     -3256.7474      17.464057      9205.0825      10112.159    
     60300   307.38148     -3240.1464     -3257.9067      17.760282      8571.2545      10112.159    
     60400   291.96149     -3241.5634     -3258.4328      16.869326      8570.318       10112.159    
     60500   283.43561     -3241.2088     -3257.5855      16.376707      8531.9702      10112.159    
     60600   295.27855     -3239.7805     -3256.8415      17.060983      9245.5356      10112.159    
     60700   314.35259     -3239.209      -3257.3721      18.163068      8919.5876      10112.159    
     60800   295.17343     -3239.623      -3256.6779      17.05491       8932.1315      10112.159    
     60900   288.44399     -3240.5074     -3257.1734      16.666088      8890.9076      10112.159    
     61000   298.23393     -3241.4365     -3258.6683      17.231743      8643.721       10112.159    
     61100   275.34152     -3241.5699     -3257.479       15.909036      8942.2514      10112.159    
     61200   287.77966     -3240.0644     -3256.6921      16.627703      8974.6335      10112.159    
     61300   324.07123     -3238.8887     -3257.6133      18.724604      8926.822       10112.159    
     61400   308.69505     -3239.3744     -3257.2106      17.836179      8654.2523      10112.159    
     61500   300.81634     -3240.4281     -3257.8091      17.380953      8891.7767      10112.159    
     61600   274.96919     -3241.2832     -3257.1707      15.887523      8778.9598      10112.159    
     61700   311.88447     -3240.2429     -3258.2634      18.020461      8989.3493      10112.159    
     61800   299.16467     -3239.8168     -3257.1023      17.285521      8859.1897      10112.159    
     61900   304.14235     -3239.7215     -3257.2947      17.573128      8839.9671      10112.159    
     62000   297.6346      -3239.6145     -3256.8116      17.197114      8711.0619      10112.159    
     62100   295.59339     -3239.5345     -3256.6137      17.079175      9197.9055      10112.159    
     62200   288.25378     -3240.247      -3256.9021      16.655097      9162.5952      10112.159    
     62300   304.6554      -3241.1007     -3258.7035      17.602771      8482.4391      10112.159    
     62400   283.69366     -3241.6643     -3258.0559      16.391617      8767.3355      10112.159    
     62500   293.66203     -3240.2626     -3257.2302      16.967582      8955.257       10112.159    
     62600   297.72938     -3239.2105     -3256.4131      17.202591      9432.1832      10112.159    
     62700   312.22344     -3239.1018     -3257.1418      18.040047      9047.3364      10112.159    
     62800   303.07969     -3239.8241     -3257.3359      17.511728      8829.0921      10112.159    
     62900   289.35549     -3240.7369     -3257.4557      16.718754      9166.2411      10112.159    
     63000   282.52867     -3241.4963     -3257.8206      16.324304      8341.1738      10112.159    
     63100   273.72351     -3242.4073     -3258.2228      15.815548      8534.1716      10112.159    
     63200   320.14726     -3240.9661     -3259.464       18.49788       8369.4534      10112.159    
     63300   280.9123      -3240.262      -3256.4929      16.230912      9097.5075      10112.159    
     63400   303.18254     -3239.3098     -3256.8275      17.51767       9607.4353      10112.159    
     63500   294.60023     -3239.4444     -3256.4662      17.021791      9330.3427      10112.159    
     63600   306.59684     -3239.7498     -3257.4647      17.714946      9027.6804      10112.159    
     63700   298.20756     -3241.0947     -3258.3249      17.230219      8736.9392      10112.159    
     63800   272.00405     -3241.93       -3257.6462      15.716199      8828.3325      10112.159    
     63900   301.09558     -3240.7485     -3258.1455      17.397087      8706.3858      10112.159    
     64000   292.33181     -3239.969      -3256.8597      16.890723      8970.559       10112.159    
     64100   304.27567     -3239.4469     -3257.0277      17.580831      9194.9992      10112.159    
     64200   302.7027      -3239.6049     -3257.0948      17.489945      8980.365       10112.159    
     64300   296.57275     -3240.1703     -3257.3061      17.135761      8800.2937      10112.159    
     64400   280.1237      -3241.6845     -3257.8699      16.185347      8752.019       10112.159    
     64500   289.30926     -3241.8248     -3258.5409      16.716082      8519.49        10112.159    
     64600   291.57145     -3240.4939     -3257.3407      16.84679       8893.3738      10112.159    
     64700   289.50828     -3239.5883     -3256.3159      16.727581      9236.8702      10112.159    
     64800   326.55343     -3239.1184     -3257.9864      18.868023      8768.5287      10112.159    
     64900   298.87883     -3240.0076     -3257.2766      17.269005      9008.3424      10112.159    
     65000   291.71532     -3240.5212     -3257.3763      16.855103      8807.8882      10112.159    
     65100   269.42255     -3241.2473     -3256.8143      15.567042      9124.715       10112.159    
     65200   302.76052     -3241.2933     -3258.7866      17.493287      8226.563       10112.159    
     65300   303.23534     -3240.4659     -3257.9866      17.520721      8873.1669      10112.159    
     65400   300.82458     -3239.0598     -3256.4412      17.381429      9301.0845      10112.159    
     65500   300.43116     -3238.8237     -3256.1824      17.358698      9444.3976      10112.159    
     65600   303.24832     -3239.5793     -3257.1008      17.521471      9072.4867      10112.159    
     65700   294.87764     -3240.1119     -3257.1497      17.037819      8793.9426      10112.159    
     65800   305.29544     -3240.1001     -3257.7399      17.639752      9037.1917      10112.159    
     65900   290.13482     -3240.9812     -3257.745       16.763782      8758.4981      10112.159    
     66000   275.55658     -3242.0485     -3257.9699      15.921462      8358.4252      10112.159    
     66100   289.37815     -3241.2848     -3258.0049      16.720063      8856.4893      10112.159    
     66200   296.65761     -3239.9518     -3257.0924      17.140665      8872.6211      10112.159    
     66300   315.56864     -3239.231      -3257.4644      18.23333       8994.1227      10112.159    
     66400   298.56492     -3239.4397     -3256.6906      17.250867      9427.254       10112.159    
     66500   297.8808      -3239.9593     -3257.1707      17.21134       9202.1721      10112.159    
     66600   278.37241     -3241.7448     -3257.829       16.084159      8671.8717      10112.159    
     66700   281.1781      -3241.8028     -3258.0491      16.246269      8554.5684      10112.159    
     66800   302.66856     -3240.6015     -3258.0895      17.487973      8639.8824      10112.159    
     66900   300.11754     -3239.8953     -3257.2359      17.340577      9084.3883      10112.159    
     67000   306.47131     -3239.4311     -3257.1387      17.707693      9194.5518      10112.159    
     67100   291.43213     -3239.3695     -3256.2082      16.83874       9244.07        10112.159    
     67200   301.74632     -3239.625      -3257.0597      17.434686      8771.3961      10112.159    
     67300   307.00437     -3240.7802     -3258.5187      17.738493      8767.8942      10112.159    
     67400   273.8486      -3241.5226     -3257.3454      15.822776      8658.1811      10112.159    
     67500   310.03923     -3240.399      -3258.3128      17.913845      8851.1948      10112.159    
     67600   291.30744     -3239.4841     -3256.3157      16.831536      9308.8094      10112.159    
     67700   291.92433     -3239.2862     -3256.1534      16.867179      9164.7932      10112.159    
     67800   305.20558     -3239.3135     -3256.9481      17.63456       9218.0219      10112.159    
     67900   316.57306     -3239.7793     -3258.0707      18.291365      8712.4608      10112.159    
     68000   279.14009     -3241.4672     -3257.5957      16.128515      8486.0715      10112.159    
     68100   282.25441     -3241.4326     -3257.7411      16.308458      9276.6979      10112.159    
     68200   291.38508     -3240.3353     -3257.1713      16.836021      9005.0961      10112.159    
     68300   306.41801     -3239.7178     -3257.4224      17.704614      9081.1832      10112.159    
     68400   314.01815     -3239.4768     -3257.6206      18.143744      9005.3533      10112.159    
     68500   302.79686     -3239.7964     -3257.2918      17.495386      9097.3822      10112.159    
     68600   288.06771     -3240.9849     -3257.6292      16.644346      8891.7637      10112.159    
     68700   276.34282     -3242.0549     -3258.0218      15.96689       8681.6489      10112.159    
     68800   286.8001      -3241.3435     -3257.9146      16.571105      8809.8568      10112.159    
     68900   302.8313      -3239.3057     -3256.8031      17.497376      9209.8677      10112.159    
     69000   308.45733     -3239.2255     -3257.048       17.822444      9321.9874      10112.159    
     69100   302.47919     -3239.8965     -3257.3735      17.477031      8554.4485      10112.159    
     69200   300.02174     -3240.4751     -3257.8102      17.335042      8821.8466      10112.159    
     69300   268.5487      -3241.043      -3256.5595      15.516552      9023.0588      10112.159    
     69400   303.30636     -3240.1177     -3257.6425      17.524825      8523.119       10112.159    
     69500   327.1264      -3238.5802     -3257.4813      18.901129      9117.6585      10112.159    
     69600   304.28956     -3238.5844     -3256.1661      17.581633      9463.4433      10112.159    
     69700   302.29405     -3239.3871     -3256.8535      17.466334      9077.2845      10112.159    
     69800   290.79118     -3240.062      -3256.8637      16.801707      9076.2589      10112.159    
     69900   310.49848     -3239.8575     -3257.7979      17.94038       8652.1671      10112.159    
     70000   289.97094     -3240.0049     -3256.7592      16.754314      8722.8526      10112.159    
     70100   309.70528     -3239.4528     -3257.3474      17.89455       8797.615       10112.159    
     70200   306.2234      -3238.5087     -3256.2021      17.693369      9205.0461      10112.159    
     70300   314.84762     -3237.8974     -3256.089       18.191671      9365.5389      10112.159    
     70400   303.84268     -3239.2314     -3256.7872      17.555813      8735.6159      10112.159    
     70500   304.92013     -3240.2585     -3257.8766      17.618067      8637.5294      10112.159    
     70600   293.86519     -3240.4782     -3257.4575      16.979321      9159.1406      10112.159    
     70700   286.55701     -3240.2034     -3256.7604      16.557059      8871.1916      10112.159    
     70800   310.66328     -3238.8107     -3256.7606      17.949902      8784.3437      10112.159    
     70900   313.16358     -3237.8998     -3255.9942      18.094368      9553.8328      10112.159    
     71000   306.25129     -3238.7528     -3256.4478      17.694981      9353.5986      10112.159    
     71100   291.49701     -3240.5334     -3257.3759      16.842489      8466.5533      10112.159    
     71200   303.15433     -3240.2293     -3257.7454      17.51604       8618.3898      10112.159    
     71300   294.73179     -3239.9718     -3257.0012      17.029392      9268.8194      10112.159    
     71400   304.60766     -3239.625      -3257.225       17.600012      9225.2533      10112.159    
     71500   316.08579     -3238.6935     -3256.9568      18.263211      9231.1779      10112.159    
     71600   316.43457     -3238.2344     -3256.5177      18.283363      9193.326       10112.159    
     71700   289.86828     -3239.7528     -3256.5012      16.748382      9156.0579      10112.159    
     71800   293.99036     -3240.8039     -3257.7904      16.986553      8799.9987      10112.159    
     71900   285.2719      -3240.7595     -3257.2423      16.482806      8939.7696      10112.159    
     72000   308.95536     -3239.9694     -3257.8206      17.851219      8953.3653      10112.159    
     72100   301.5699      -3239.3093     -3256.7338      17.424493      9438.6985      10112.159    
     72200   298.16839     -3239.2429     -3256.4709      17.227956      8790.8         10112.159    
     72300   309.02497     -3239.2925     -3257.1477      17.855242      9027.821       10112.159    
     72400   292.53263     -3239.7313     -3256.6336      16.902326      9187.7412      10112.159    
     72500   307.7995      -3240.2465     -3258.0309      17.784435      8659.1143      10112.159    
     72600   289.97749     -3241.2275     -3257.9822      16.754692      8509.8688      10112.159    
     72700   290.7513      -3240.9846     -3257.784       16.799402      8990.5232      10112.159    
     72800   301.99718     -3239.2631     -3256.7122      17.449181      9043.9472      10112.159    
     72900   308.74391     -3238.5939     -3256.4329      17.839002      9504.9504      10112.159    
     73000   309.64653     -3238.954      -3256.8451      17.891155      9145.9304      10112.159    
     73100   298.90444     -3240.5514     -3257.8219      17.270485      8545.9405      10112.159    
     73200   278.22688     -3241.307      -3257.3828      16.07575       8806.1917      10112.159    
     73300   302.76476     -3240.4216     -3257.9151      17.493531      8986.1129      10112.159    
     73400   306.05042     -3239.812      -3257.4953      17.683375      8895.5586      10112.159    
     73500   294.76969     -3239.797      -3256.8286      17.031582      8816.1234      10112.159    
     73600   324.45808     -3239.1844     -3257.9314      18.746956      8779.4349      10112.159    
     73700   290.31691     -3238.6464     -3255.4207      16.774303      9394.118       10112.159    
     73800   321.80771     -3238.0642     -3256.658       18.593819      9012.4661      10112.159    
     73900   297.75356     -3239.5271     -3256.7311      17.203988      8966.531       10112.159    
     74000   305.54129     -3240.3118     -3257.9658      17.653957      8811.8887      10112.159    
     74100   300.55998     -3240.6288     -3257.9949      17.366141      8487.7607      10112.159    
     74200   290.08432     -3240.4179     -3257.1787      16.760865      8685.1842      10112.159    
     74300   316.61909     -3238.4766     -3256.7707      18.294025      8865.703       10112.159    
     74400   316.78691     -3238.2247     -3256.5284      18.303721      8865.1395      10112.159    
     74500   291.30399     -3239.0933     -3255.9246      16.831336      9383.5333      10112.159    
     74600   292.14558     -3239.8956     -3256.7755      16.879963      9032.8327      10112.159    
     74700   303.88211     -3240.4486     -3258.0067      17.558091      8305.9159      10112.159    
     74800   300.82303     -3240.5031     -3257.8845      17.38134       8679.0025      10112.159    
     74900   299.53292     -3239.7701     -3257.0769      17.306798      8902.0448      10112.159    
     75000   304.50688     -3237.5504     -3255.1446      17.59419       9608.251       10112.159    
     75100   308.98503     -3237.874      -3255.7269      17.852934      9372.3542      10112.159    
     75200   317.42407     -3239.4926     -3257.8331      18.340536      9049.1682      10112.159    
     75300   308.78025     -3240.0852     -3257.9263      17.841102      8686.7121      10112.159    
     75400   292.8234      -3240.4518     -3257.3709      16.919126      9042.9876      10112.159    
[...]
    281800   295.71717     -3239.4681     -3256.5544      17.086326      9217.4335      10112.159    
    281900   310.14476     -3239.3442     -3257.2642      17.919942      9097.0105      10112.159    
    282000   292.07246     -3239.9108     -3256.7866      16.875738      9242.9545      10112.159    
    282100   294.67444     -3240.7747     -3257.8008      17.026079      8835.3735      10112.159    
    282200   289.18064     -3241.5016     -3258.2102      16.708651      8621.1305      10112.159    
    282300   294.01439     -3240.6929     -3257.6808      16.987941      8852.5107      10112.159    
    282400   290.70939     -3239.2575     -3256.0545      16.796981      9391.5868      10112.159    
    282500   322.27643     -3238.9389     -3257.5598      18.620901      9152.6621      10112.159    
    282600   299.56321     -3239.9108     -3257.2193      17.308548      8800.7674      10112.159    
    282700   295.21451     -3240.4424     -3257.4997      17.057283      8766.7766      10112.159    
    282800   293.98448     -3240.7812     -3257.7674      16.986213      9237.0837      10112.159    
    282900   296.1153      -3241.5499     -3258.6592      17.10933       8633.4776      10112.159    
    283000   301.39836     -3241.238      -3258.6526      17.414582      8510.9986      10112.159    
    283100   279.38767     -3239.911      -3256.0538      16.14282       9486.374       10112.159    
    283200   314.12383     -3239.0027     -3257.1525      18.14985       9177.7375      10112.159    
    283300   309.11156     -3239.4728     -3257.3331      17.860245      9009.7902      10112.159    
    283400   290.46925     -3240.314      -3257.0971      16.783106      9039.5655      10112.159    
    283500   279.76489     -3241.1385     -3257.3031      16.164615      9011.0918      10112.159    
    283600   284.66501     -3241.9856     -3258.4334      16.447741      8581.2176      10112.159    
    283700   278.23538     -3242.111      -3258.1872      16.076241      8501.1489      10112.159    
    283800   306.87024     -3240.3177     -3258.0484      17.730743      8726.5397      10112.159    
    283900   293.56398     -3239.4448     -3256.4067      16.961917      9017.4993      10112.159    
    284000   308.15798     -3238.9401     -3256.7452      17.805148      9136.0085      10112.159    
    284100   310.5435      -3239.5402     -3257.4831      17.942981      9010.2742      10112.159    
    284200   289.40553     -3240.9328     -3257.6544      16.721645      8726.1026      10112.159    
    284300   284.01163     -3241.3862     -3257.7962      16.409989      8665.8573      10112.159    
    284400   298.23644     -3240.4624     -3257.6943      17.231888      8783.3274      10112.159    
    284500   290.10753     -3239.648      -3256.4103      16.762206      9305.0488      10112.159    
    284600   306.12057     -3239.4847     -3257.1722      17.687427      8987.8075      10112.159    
    284700   307.57392     -3239.6028     -3257.3742      17.771401      8862.4761      10112.159    
    284800   295.84798     -3240.1045     -3257.1984      17.093885      9147.7499      10112.159    
    284900   283.94034     -3240.9856     -3257.3914      16.40587       8674.748       10112.159    
    285000   293.98231     -3241.0898     -3258.0759      16.986088      8429.8794      10112.159    
    285100   315.10753     -3239.5723     -3257.779       18.206688      9003.6288      10112.159    
    285200   300.92365     -3238.6807     -3256.0678      17.387153      9388.6025      10112.159    
    285300   293.72526     -3238.8175     -3255.7887      16.971235      9526.3168      10112.159    
    285400   301.32496     -3240.0276     -3257.4379      17.410341      8770.9029      10112.159    
    285500   300.35039     -3240.6633     -3258.0173      17.354031      8620.6279      10112.159    
    285600   302.07732     -3240.3854     -3257.8393      17.453812      8876.3618      10112.159    
    285700   289.6341      -3239.7601     -3256.4949      16.734851      8917.309       10112.159    
    285800   315.00341     -3238.5551     -3256.7558      18.200672      9331.8076      10112.159    
    285900   302.90453     -3238.8727     -3256.3743      17.501607      8829.3855      10112.159    
    286000   301.85446     -3239.736      -3257.1769      17.440935      8789.6242      10112.159    
    286100   298.14271     -3240.2217     -3257.4482      17.226473      9059.8948      10112.159    
    286200   309.77021     -3240.0158     -3257.9141      17.898301      8561.6623      10112.159    
    286300   287.03479     -3239.8339     -3256.4186      16.584665      9283.4578      10112.159    
    286400   317.27503     -3238.8159     -3257.1478      18.331924      9288.8609      10112.159    
    286500   318.18333     -3238.8698     -3257.2542      18.384405      9103.2405      10112.159    
    286600   296.89178     -3240.4004     -3257.5546      17.154195      8769.1303      10112.159    
    286700   285.94365     -3241.4541     -3257.9757      16.52162       8856.8164      10112.159    
    286800   286.43433     -3241.1859     -3257.7358      16.54997       8551.6811      10112.159    
    286900   298.6444      -3240.2818     -3257.5373      17.25546       8750.9477      10112.159    
    287000   302.47905     -3239.8261     -3257.3032      17.477023      9028.5332      10112.159    
    287100   302.86601     -3239.6846     -3257.184       17.499381      9380.5286      10112.159    
    287200   292.34136     -3239.6362     -3256.5275      16.891275      9033.1234      10112.159    
    287300   314.73852     -3238.7829     -3256.9683      18.185367      9293.9851      10112.159    
    287400   298.71436     -3239.3275     -3256.587       17.259502      9398.0183      10112.159    
    287500   296.47948     -3240.1309     -3257.2613      17.130372      8638.3244      10112.159    
    287600   298.23507     -3240.4645     -3257.6963      17.231809      9073.4234      10112.159    
    287700   275.66749     -3241.4949     -3257.4228      15.927871      8968.4904      10112.159    
    287800   292.51866     -3241.7248     -3258.6263      16.901519      8423.2445      10112.159    
    287900   300.86008     -3240.4479     -3257.8314      17.38348       8898.5685      10112.159    
    288000   303.35818     -3239.2922     -3256.82        17.527819      9300.1581      10112.159    
    288100   295.62254     -3239.3069     -3256.3878      17.080859      9420.2743      10112.159    
    288200   305.34593     -3239.558      -3257.2007      17.642669      9001.4957      10112.159    
    288300   286.44578     -3240.9417     -3257.4923      16.550632      8502.2315      10112.159    
    288400   293.27439     -3241.4839     -3258.4291      16.945184      8589.1067      10112.159    
    288500   288.77423     -3240.7857     -3257.4709      16.685169      8887.7626      10112.159    
    288600   301.8067      -3239.3825     -3256.8207      17.438175      9200.5237      10112.159    
    288700   304.65492     -3239.2099     -3256.8126      17.602744      8926.7138      10112.159    
    288800   318.99861     -3239.3416     -3257.7731      18.431512      9072.4739      10112.159    
    288900   289.13945     -3240.3861     -3257.0923      16.706271      9183.0237      10112.159    
    289000   289.04495     -3240.9905     -3257.6914      16.700811      8635.6052      10112.159    
    289100   279.24078     -3241.578      -3257.7123      16.134333      8640.255       10112.159    
    289200   304.68955     -3241.0527     -3258.6574      17.604744      8517.5973      10112.159    
    289300   300.66106     -3239.8501     -3257.2221      17.371981      9146.4033      10112.159    
    289400   315.43249     -3238.6966     -3256.9221      18.225464      9149.7984      10112.159    
    289500   296.59325     -3238.9619     -3256.0988      17.136946      9596.7595      10112.159    
    289600   296.47682     -3239.8993     -3257.0295      17.130219      9207.8462      10112.159    
    289700   313.55943     -3240.2998     -3258.417       18.11724       8560.8125      10112.159    
    289800   282.64482     -3240.5811     -3256.9121      16.331015      9020.4687      10112.159    
    289900   289.77853     -3239.9492     -3256.6924      16.743196      9360.9791      10112.159    
    290000   319.97969     -3239.0516     -3257.5398      18.488198      9273.7122      10112.159    
    290100   302.50855     -3239.507      -3256.9857      17.478728      8870.5696      10112.159    
    290200   274.02582     -3241.2248     -3257.0579      15.833016      8969.8349      10112.159    
    290300   281.1865      -3242.0206     -3258.2674      16.246755      8771.9665      10112.159    
    290400   288.88005     -3241.5481     -3258.2393      16.691282      8593.7661      10112.159    
    290500   295.75844     -3240.6212     -3257.7099      17.088711      8624.2703      10112.159    
    290600   301.74002     -3239.7953     -3257.2296      17.434323      9352.8238      10112.159    
    290700   306.69624     -3239.3959     -3257.1166      17.720689      9009.5903      10112.159    
    290800   305.69069     -3239.2824     -3256.945       17.66259       9339.2816      10112.159    
    290900   297.77562     -3239.7776     -3256.9829      17.205262      8834.5489      10112.159    
    291000   283.52544     -3241.0386     -3257.4205      16.381897      9157.7657      10112.159    
    291100   297.74617     -3241.0342     -3258.2378      17.20356       9003.9382      10112.159    
    291200   296.38821     -3239.9581     -3257.0832      17.125099      8870.6169      10112.159    
    291300   314.16168     -3238.7452     -3256.8972      18.152037      9454.6011      10112.159    
    291400   291.22001     -3239.2642     -3256.0907      16.826484      9372.8235      10112.159    
    291500   301.79234     -3239.8196     -3257.257       17.437345      9111.1756      10112.159    
    291600   302.23523     -3240.9751     -3258.438       17.462936      8472.7556      10112.159    
    291700   270.47381     -3242.0206     -3257.6484      15.627783      8782.0629      10112.159    
    291800   304.74281     -3240.8295     -3258.4373      17.607822      8502.4179      10112.159    
    291900   281.28584     -3240.0542     -3256.3067      16.252495      9265.6606      10112.159    
    292000   308.50543     -3239.5805     -3257.4057      17.825223      9136.5232      10112.159    
    292100   304.74984     -3239.7717     -3257.38        17.608228      8744.4935      10112.159    
    292200   304.24356     -3240.0609     -3257.6399      17.578975      8727.7562      10112.159    
    292300   284.08463     -3240.4688     -3256.883       16.414207      9130.2485      10112.159    
    292400   304.16343     -3240.2277     -3257.802       17.574346      8854.6265      10112.159    
    292500   295.73643     -3240.0217     -3257.1091      17.087439      8707.5322      10112.159    
    292600   318.40561     -3238.9318     -3257.329       18.397249      9124.5076      10112.159    
    292700   299.60298     -3238.8278     -3256.1386      17.310846      9155.4041      10112.159    
    292800   297.78505     -3239.7265     -3256.9323      17.205807      8934.5078      10112.159    
    292900   299.13386     -3241.1072     -3258.3909      17.283741      8637.6317      10112.159    
    293000   294.24119     -3241.3655     -3258.3665      17.001045      8725.9328      10112.159    
    293100   283.50825     -3240.5999     -3256.9808      16.380904      8980.1471      10112.159    
    293200   310.22345     -3239.6932     -3257.6177      17.924489      9151.2177      10112.159    
    293300   294.3279      -3240.0275     -3257.0336      17.006056      9085.0294      10112.159    
    293400   302.54345     -3239.7238     -3257.2045      17.480744      8964.8487      10112.159    
    293500   306.9305      -3239.0555     -3256.7898      17.734224      9327.2516      10112.159    
    293600   308.93837     -3239.0632     -3256.9135      17.850238      9004.029       10112.159    
    293700   309.77328     -3240.1041     -3258.0026      17.898479      9020.0013      10112.159    
    293800   285.65731     -3241.3157     -3257.8208      16.505075      8700.2558      10112.159    
    293900   276.24028     -3241.3291     -3257.29        15.960966      9215.9928      10112.159    
    294000   304.23263     -3239.7328     -3257.3111      17.578344      8953.6616      10112.159    
    294100   302.48929     -3239.2837     -3256.7613      17.477615      9056.9419      10112.159    
    294200   304.78692     -3239.4124     -3257.0228      17.610371      9086.113       10112.159    
    294300   306.13236     -3240.1883     -3257.8764      17.688109      8958.1714      10112.159    
    294400   285.13538     -3241.3675     -3257.8424      16.474918      8636.0524      10112.159    
    294500   280.98636     -3241.1779     -3257.4131      16.235191      9048.0234      10112.159    
    294600   309.73797     -3239.0384     -3256.9348      17.896438      9232.2197      10112.159    
    294700   317.29366     -3238.7169     -3257.0499      18.333001      8788.1251      10112.159    
    294800   313.46497     -3239.505      -3257.6168      18.111782      9006.3434      10112.159    
    294900   288.3088      -3240.3877     -3257.046       16.658276      8888.705       10112.159    
    295000   289.60545     -3240.7276     -3257.4608      16.733196      8818.373       10112.159    
    295100   284.31112     -3241.1617     -3257.589       16.427293      8779.6746      10112.159    
    295200   315.17377     -3239.6646     -3257.8751      18.210515      9045.2943      10112.159    
    295300   307.87454     -3238.8855     -3256.6743      17.788771      9089.9234      10112.159    
    295400   294.7624      -3239.4421     -3256.4733      17.031161      8872.7764      10112.159    
    295500   290.01602     -3240.3573     -3257.1142      16.756918      8824.5854      10112.159    
    295600   300.92547     -3240.8699     -3258.2571      17.387258      8552.6693      10112.159    
    295700   269.01372     -3241.907      -3257.4504      15.54342       8730.6536      10112.159    
    295800   303.39463     -3241.0145     -3258.5444      17.529925      8653.3773      10112.159    
    295900   295.52538     -3239.8795     -3256.9547      17.075245      9213.9699      10112.159    
    296000   302.80107     -3238.9786     -3256.4742      17.495629      9256.7107      10112.159    
    296100   308.38213     -3239.0312     -3256.8493      17.818099      9351.416       10112.159    
    296200   292.75986     -3239.6393     -3256.5548      16.915456      8915.556       10112.159    
    296300   303.171       -3239.9786     -3257.4956      17.517004      8907.0081      10112.159    
    296400   305.8362      -3240.214      -3257.885       17.670997      8891.061       10112.159    
    296500   307.48546     -3239.9852     -3257.7515      17.76629       8912.0214      10112.159    
    296600   287.11583     -3238.8889     -3255.4783      16.589347      9167.7943      10112.159    
    296700   320.91492     -3237.9589     -3256.5011      18.542235      9436.3164      10112.159    
    296800   307.14109     -3238.8652     -3256.6116      17.746392      9012.0376      10112.159    
    296900   303.93174     -3240.3224     -3257.8833      17.560959      9005.6113      10112.159    
    297000   284.03565     -3240.8091     -3257.2205      16.411377      8860.6221      10112.159    
    297100   306.1407      -3240.0531     -3257.7417      17.688591      9063.1153      10112.159    
    297200   299.21533     -3239.5928     -3256.8812      17.288448      9149.5354      10112.159    
    297300   297.1159      -3238.9349     -3256.1021      17.167144      9300.9693      10112.159    
    297400   315.91831     -3237.6597     -3255.9132      18.253534      9498.4656      10112.159    
    297500   324.43736     -3238.3515     -3257.0973      18.745759      9397.7747      10112.159    
    297600   298.53107     -3240.1813     -3257.4302      17.248912      8853.4967      10112.159    
    297700   293.04021     -3240.5506     -3257.4823      16.931654      8928.7248      10112.159    
    297800   285.8556      -3240.5306     -3257.0471      16.516532      8877.8338      10112.159    
    297900   305.91306     -3239.3007     -3256.9761      17.675438      9073.9942      10112.159    
    298000   317.75727     -3238.7022     -3257.062       18.359788      9274.016       10112.159    
    298100   296.64608     -3239.3089     -3256.4489      17.139998      8938.5855      10112.159    
    298200   299.16898     -3239.6682     -3256.954       17.28577       9159.2079      10112.159    
    298300   304.42796     -3239.9336     -3257.5232      17.58963       8768.4512      10112.159    
    298400   306.42803     -3239.8207     -3257.5259      17.705192      8531.5422      10112.159    
    298500   281.87467     -3239.8108     -3256.0973      16.286517      9141.7304      10112.159    
    298600   301.20475     -3239.2855     -3256.6889      17.403395      9049.9387      10112.159    
    298700   323.75451     -3238.8149     -3257.5212      18.706304      8881.793       10112.159    
    298800   313.44094     -3239.1938     -3257.3041      18.110393      9057.1991      10112.159    
    298900   287.11451     -3240.4203     -3257.0096      16.589271      8784.9768      10112.159    
    299000   284.85142     -3241.0728     -3257.5313      16.458511      8929.0451      10112.159    
    299100   308.07857     -3240.5283     -3258.3289      17.800559      8671.3511      10112.159    
    299200   309.40993     -3238.5636     -3256.4411      17.877484      9172.7829      10112.159    
    299300   317.98554     -3238.2267     -3256.5997      18.372977      9487.8605      10112.159    
    299400   291.30317     -3239.3328     -3256.164       16.831289      8947.5848      10112.159    
    299500   312.0379      -3239.9323     -3257.9617      18.029327      9029.8454      10112.159    
    299600   289.12148     -3240.7578     -3257.463       16.705232      8960.3515      10112.159    
    299700   300.12413     -3240.4631     -3257.804       17.340958      8657.5309      10112.159    
    299800   314.27529     -3239.1155     -3257.2741      18.158602      8897.7514      10112.159    
    299900   325.34121     -3237.3188     -3256.1168      18.797983      9085.2369      10112.159    
    300000   312.15766     -3238.1361     -3256.1724      18.036246      9387.1816      10112.159    
Loop time of 2295.1 on 20 procs for 300000 steps with 448 atoms

Performance: 11.294 ns/day, 2.125 hours/ns, 130.714 timesteps/s, 58.560 katom-step/s
99.9% CPU use with 20 MPI tasks x 1 OpenMP threads

MPI task timing breakdown:
Section |  min time  |  avg time  |  max time  |%varavg| %total
---------------------------------------------------------------
Pair    | 1736       | 1994.9     | 2207.5     | 399.7 | 86.92
Neigh   | 20.187     | 26.477     | 35.489     |  97.0 |  1.15
Comm    | 48.933     | 270.59     | 535.86     |1114.6 | 11.79
Output  | 0.33313    | 0.53757    | 0.60145    |   7.4 |  0.02
Modify  | 2.0027     | 2.3321     | 2.6034     |  11.5 |  0.10
Other   |            | 0.2695     |            |       |  0.01

Nlocal:           22.4 ave          24 max          18 min
Histogram: 1 2 0 2 0 1 2 0 1 11
Nghost:          495.4 ave         523 max         465 min
Histogram: 4 0 0 8 0 0 0 0 1 7
Neighs:              0 ave           0 max           0 min
Histogram: 20 0 0 0 0 0 0 0 0 0
FullNghs:       1285.7 ave        1404 max        1031 min
Histogram: 1 2 0 2 1 1 1 1 1 10

Total # of neighbors = 25714
Ave neighs/atom = 57.397321
Neighbor list builds = 300000
Dangerous builds not checked
Total wall time: 0:38:15
