(written by ASE)

97 atoms
2 atom types

0.0      12.785600000000001  xlo xhi
0.0       11.07265440262632  ylo yhi
0.0                 15.1533  zlo zhi
    -6.3928000000000003                       0                       0  xy xz yz

Masses

     1      178.48999995408445 # Hf
     2      15.998999995884349 # O

Atoms # atomic

     1   1   -0.099084539999999999   -0.057208079999999994             -0.12099694
     2   1   -0.070122149999999994      1.9056697599999999      2.6312414500000001
     3   1   -0.012503190000000001   -0.007222039999999999      5.0556067699999998
     4   1  -0.0087366900000000001      1.8393381599999998      7.6042162400000004
     5   1  -0.0018232999999999999  -0.0010617799999999998             10.09895564
     6   1  -0.0095597800000000004      1.8565208499999997      12.651552049999999
     7   1     -1.6317899600000001      2.7923139499999996   -0.011726220000000001
     8   1     -1.6302719999999999      4.6286768799999995      2.5417426399999998
     9   1             -1.64080341      2.7830679599999995                 5.09755
    10   1             -1.60650571      4.6124903099999992      7.5974813599999997
    11   1              -1.6068266      2.7567890899999994      10.106842650000001
    12   1     -1.6088126899999999      4.6119616499999987             12.62067532
    13   1     -3.1983427099999999      5.5352084899999987  -0.0055898700000000003
    14   1     -3.1993838700000001      7.3464670699999992      2.5417448999999999
    15   1     -3.2118592100000001      5.5274031199999989      5.0759915099999997
    16   1     -3.2015201000000002       7.375137389999999              7.59748366
    17   1     -3.2110376199999999      5.5278764199999992      10.103556640000001
    18   1     -3.2031310400000002      7.3734049499999994             12.62067734
    19   1     -4.7904822100000004      8.2633293599999984   -0.011724149999999999
    20   1     -4.7775010399999998      10.059093149999999              2.63124344
    21   1     -4.8029942400000003      8.2601420499999989      5.0975495899999999
    22   1             -4.80425287      10.145409329999998              7.60421368
    23   1     -4.8087551900000003      8.3027095599999985      10.106844779999999
    24   1     -4.7897825999999997      10.136113499999999      12.651553979999999
    25   1      3.2058908700000002  4.6269999999999996e-05             -0.01580196
    26   1      3.2033463200000001      1.8494536699999997      2.5410859700000001
    27   1              3.20067229  -0.0064589199999999991      5.0710233000000002
    28   1      3.1872625800000001      1.8401590099999998               7.5904048
    29   1              3.18711017  -0.0093348099999999989             10.10065485
    30   1      3.1978912099999999      1.8463001399999999             12.62342147
    31   1              1.60298494      2.7763594699999996              -0.0158038
    32   1              1.59269916      4.6074885399999994              2.53030175
    33   1              1.59474323      2.7750872699999998      5.0710235900000002
    34   1      1.5867600399999999      4.6092675499999993      7.5817420599999998
    35   1      1.5854771599999999      2.7647868499999997               10.100655
    36   1      1.5898931000000001      4.6161020699999993      12.625060339999999
    37   1  -0.0027938199999999998       5.529193059999999  -0.0050638300000000001
    38   1   0.0054446900000000003      7.3849094099999988      2.5282112200000002
    39   1   -0.012846649999999999      5.5300644699999992      5.0489441099999999
    40   1   -0.010250479999999999      7.3758560099999988      7.5772477299999998
    41   1  -0.0086583200000000006      5.5339922299999991             10.09983209
    42   1             -0.01195325      7.3748691799999992             12.62475716
    43   1     -1.6057740199999999      8.3056397699999991  -0.0050665500000000004
    44   1     -1.6062432099999999      10.148228269999999      2.5303039599999999
    45   1             -1.61004674      8.2964991499999989      5.0489461699999998
    46   1     -1.6076789199999999      10.142194579999998              7.58174657
    47   1             -1.60455171      8.2981642299999976             10.09983416
    48   1             -1.60019176      10.141494109999998             12.62505249
    49   1      6.3870123200000002   -0.011070969999999998  -0.0030846599999999999
    50   1              6.38486083      1.8473723299999998      2.5344324399999998
    51   1      6.3866008399999998  -0.0084848399999999987              5.05188316
    52   1      6.3816415600000003      1.8374438799999997      7.5832905500000001
    53   1              6.38070922  -0.0036789299999999995             10.09527976
    54   1      6.3862022100000004      1.8406953299999997             12.62926079
    55   1      4.7800756499999997      2.7597753899999997             -0.00153874
    56   1      4.7923049500000001      4.6057691199999988      2.5344327500000001
    57   1              4.78733071      2.7639630399999997      5.0551901499999996
    58   1      4.7821004299999998      4.6079418599999995      7.5832879599999998
    59   1      4.7859003199999997      2.7631336199999996             10.09954836
    60   1      4.7871964800000004      4.6102608499999995             12.62925841
    61   1      3.1839257999999999      5.5368494999999989              -0.0030872
    62   1      3.1963852799999999      7.3841532999999995      2.5280742300000001
    63   1              3.18595367      5.5351995399999989      5.0518758799999999
    64   1      3.1816848499999999      7.3762913899999987      7.5785040800000001
    65   1      3.1871673399999998      5.5277003799999989      10.095280130000001
    66   1      3.1805740999999998      7.3682232199999991      12.619109180000001
    67   1      1.5829907400000001      8.2957075799999984  -0.0068114200000000003
    68   1              1.60025218      10.148728459999997      2.5280741799999999
    69   1               1.5850237      8.2968836299999982      5.0500116899999998
    70   1              1.58609237      10.139935669999998      7.5785062700000001
    71   1      1.5878839300000001      8.2985404599999981      10.102041440000001
    72   1              1.57854826      10.143005659999998      12.619106690000001
    73   1      9.5731914400000004   -0.018967979999999995             -0.00924613
    74   1      9.5781095399999998      1.8492719399999997      2.5417555699999999
    75   1      9.5775006900000008 -0.00095113999999999984      5.0666887000000003
    76   1      9.5701360300000005      1.8408145899999997      7.5909478300000002
    77   1      9.5678403500000009  -0.0031768999999999994      10.089537419999999
    78   1      9.5800205500000004      1.8330941499999998      12.630858679999999
    79   1      7.9799798500000003      2.7592561799999995 -0.00091337000000000005
    80   1      7.9826337799999996      4.6087774499999989              2.52854219
    81   1      7.9737635100000004      2.7611206799999994      5.0606511300000001
    82   1      7.9768933200000003      4.6054631299999995      7.5813011699999997
    83   1      7.9802741800000003      2.7643736899999998             10.10630192
    84   1      7.9784973800000003      4.6063837099999994             12.63291287
    85   1      6.3795797399999996      5.5312367399999989 -0.00091556999999999999
    86   1      6.3905751000000004      7.3702534899999987               2.5417532
    87   1      6.3780878599999999      5.5249297499999992              5.06064823
    88   1      6.3792618299999999      7.3675754999999992      7.5909525200000001
    89   1      6.3841612599999999      5.5289304099999992             10.10630426
    90   1      6.3775198900000003      7.3799985499999989             12.63085836
    91   1      4.7701704300000003      8.3001075399999991  -0.0092435199999999999
    92   1      4.7447251499999998      10.121142349999998      2.5838603899999999
    93   1      4.7879311199999997      8.2948342399999984      5.0666909200000001
    94   1      4.7906419400000004      10.147647129999998      7.5959605999999997
    95   1      4.7811642000000001      8.2875836399999976             10.08954243
    96   1      4.7437802400000004      10.120591889999998      12.584088769999999
    97   2      1.1387120799999999      0.6574357999999999              1.42528725
