(written by ASE)

97 atoms
2 atom types

0.0      12.785600000000001  xlo xhi
0.0       11.07265440262632  ylo yhi
0.0                 15.1533  zlo zhi
    -6.3928000000000003                       0                       0  xy xz yz

Masses

     1      178.48999995408445 # Hf
     2      15.998999995884349 # O

Atoms # atomic

     1   1    -0.12346857999999999   -0.071286209999999989    -0.15087065999999999
     2   1   -0.066353860000000001      2.0153536499999998      2.6007652000000001
     3   1             -0.00364059  -0.0021052199999999997      5.1197647599999998
     4   1  -0.0090610900000000008      1.8343703799999997              7.60167869
     5   1   0.0019700199999999998   0.0011282899999999997      10.110605039999999
     6   1  -0.0046425199999999998      1.8599406999999997      12.641526109999999
     7   1             -1.62955231      2.8051737999999995             -0.01138554
     8   1     -1.6391477000000001      4.6436006999999995      2.5445611700000001
     9   1     -1.6359624399999999      2.7794176499999996      5.1025806999999999
    10   1     -1.6058810699999999      4.6121001299999991              7.59602545
    11   1     -1.6078757400000001      2.7563171599999996             10.10905855
    12   1     -1.6074278900000001      4.6126965699999989      12.619721869999999
    13   1     -3.1945023400000001      5.5374257299999989  -0.0087904200000000002
    14   1     -3.1908973199999999      7.3313185699999988      2.5445634199999998
    15   1             -3.21134561      5.5276996499999989      5.0818185600000003
    16   1     -3.2015456900000001      7.3758734299999995      7.5960277500000002
    17   1     -3.2096378300000001      5.5286845899999992             10.10416178
    18   1             -3.20180219      7.3742367499999988      12.619723889999999
    19   1     -4.7782264200000002      8.2588372999999979             -0.01138347
    20   1     -4.6806278600000004      10.007514639999998              2.60076719
    21   1     -4.8037350200000004       8.266159609999999      5.1025802899999997
    22   1     -4.8087172899999997      10.147612279999999      7.6016761300000004
    23   1     -4.8096884600000003      8.3020369399999989             10.10906067
    24   1     -4.7843622999999997      10.138662039999998      12.641528040000001
    25   1      3.2680969200000001   0.0061029799999999992   -0.047678770000000002
    26   1              3.24937787      1.8760299999999999      2.5380202199999999
    27   1      3.1995086499999998  -0.0025379799999999996              5.07288345
    28   1              3.18760406      1.8403561599999998      7.5892162499999998
    29   1      3.1875305300000001  -0.0096067999999999987             10.09741039
    30   1      3.2008384699999999      1.8480017399999997      12.616122000000001
    31   1      1.6393332300000001      2.8272031299999996   -0.047680609999999998
    32   1      1.6064756200000001      4.6199392099999992      2.5228624800000001
    33   1      1.5975570400000001      2.7721190599999996              5.07288374
    34   1              1.58764612      4.6119235799999991              7.57878366
    35   1              1.58545179      2.7652868799999997             10.09741054
    36   1              1.59170772      4.6241137999999991      12.619095550000001
    37   1  -0.0028267399999999999      5.5329739499999988   0.0013605799999999999
    38   1               0.0127361      7.3891191099999993              2.52511018
    39   1             -0.01273819      5.5268057399999995      5.0454581000000003
    40   1   -0.011500659999999999      7.3751342199999987      7.5756096900000003
    41   1  -0.0078338999999999995      5.5335214199999987             10.09878393
    42   1             -0.01357615      7.3739321999999987      12.622253069999999
    43   1     -1.6025161299999999      8.3037208199999988   0.0013578500000000001
    44   1             -1.58857238      10.153933699999998      2.5228646800000001
    45   1             -1.61281465      8.2982224599999981      5.0454601600000002
    46   1             -1.60493569      10.141633939999998      7.5787881700000002
    47   1     -1.6045472300000001      8.2991136099999974             10.09878599
    48   1     -1.5923460899999999      10.139059759999999      12.619087690000001
    49   1      6.3990714799999999   -0.012025569999999998  -0.0010144100000000001
    50   1      6.3956911999999999      1.8503118199999997      2.5294094299999998
    51   1      6.3904239299999999   -0.005982079999999999      5.0508461000000002
    52   1      6.3825088599999997      1.8380546599999998      7.5830283600000001
    53   1      6.3812110200000003  -0.0030034099999999998             10.09589836
    54   1      6.3880043300000002      1.8400745499999998      12.629837050000001
    55   1      4.7929680000000001      2.7672187999999998  -0.0069917399999999998
    56   1              4.80026581      4.6136787399999992      2.5294097400000002
    57   1      4.7919532699999996      2.7666318799999994      5.0578628200000004
    58   1      4.7830630300000001      4.6083875799999987      7.5830257599999999
    59   1      4.7882108499999996      2.7644675999999997      10.099046319999999
    60   1      4.7875599299999996      4.6121319299999994             12.62983468
    61   1      3.1891286700000001      5.5477703399999987             -0.00101695
    62   1              3.20177478      7.3998552099999992      2.5288499600000001
    63   1      3.1900326799999998      5.5372590599999993      5.0508388200000001
    64   1      3.1835347000000001      7.3769816599999993      7.5769084600000003
    65   1              3.18800325      5.5277971899999994             10.09589873
    66   1      3.1833606799999998      7.3692920099999988      12.616437980000001
    67   1      1.5792234300000001      8.2935325299999985             -0.01070106
    68   1      1.6165451900000001      10.145544949999998      2.5288499199999999
    69   1      1.5824912499999999      8.2954215199999979      5.0511093999999996
    70   1              1.58761508      10.141192549999998      7.5769106500000003
    71   1      1.5891059199999999      8.2992459799999985             10.10063074
    72   1              1.58086715      10.144884519999998      12.616435490000001
    73   1      9.5790632799999997   -0.023019339999999996   -0.012539430000000001
    74   1      9.5887291399999999      1.8560118899999998      2.5365330799999999
    75   1      9.5866967699999996   -0.008340959999999998      5.0555033199999997
    76   1      9.5695870999999997      1.8390300699999997      7.5874364600000002
    77   1      9.5668959699999991  -0.0013222799999999997             10.08690387
    78   1      9.5808967000000003      1.8320368499999997             12.63073917
    79   1      7.9844082500000004      2.7588044899999997  -0.0016639999999999999
    80   1              7.98378151      4.6094400899999988      2.5251406799999998
    81   1      7.9783168099999999      2.7582696999999996      5.0603106200000001
    82   1      7.9764982599999996      4.6052350499999992      7.5810996800000003
    83   1      7.9807482600000004      2.7635984999999996      10.106724099999999
    84   1      7.9801529000000002      4.6073395299999991      12.628458139999999
    85   1      6.3814027600000003      5.5352976899999993  -0.0016661899999999999
    86   1      6.4017218600000003      7.3760803599999987      2.5365307100000001
    87   1      6.3778954900000002      5.5302985099999988              5.06030772
    88   1      6.3774419199999999      7.3679923699999987      7.5874411500000001
    89   1      6.3837269599999997      5.5297285699999987      10.106726439999999
    90   1      6.3770423000000003      7.3812859699999995             12.63073885
    91   1      4.7695977699999998      8.3072183799999983   -0.012536820000000001
    92   1      4.7887125099999999      10.146538459999999      2.5564021600000002
    93   1      4.7861293900000001      8.3064931899999976      5.0555055400000004
    94   1      4.7950075500000002      10.150167609999999      7.5937946399999996
    95   1      4.7822981499999999       8.285838459999999             10.08690887
    96   1      4.7412952300000004      10.119157169999998             12.57037839
    97   2     0.63268760000000002     0.36528242999999994               1.6857152
