(written by ASE)

97 atoms
2 atom types

0.0      12.785600000000001  xlo xhi
0.0       11.07265440262632  ylo yhi
0.0                 15.1533  zlo zhi
    -6.3928000000000003                       0                       0  xy xz yz

Masses

     1      178.48999995408445 # Hf
     2      15.998999995884349 # O

Atoms # atomic

     1   1   -0.070085250000000002   -0.040465329999999994   -0.066065189999999996
     2   1   -0.053845320000000002      1.8617134599999998      2.6006579400000001
     3   1             -0.01890623   -0.010918839999999999      5.0491007200000002
     4   1   -0.010154140000000001      1.8384954799999997      7.5992914599999999
     5   1  -0.0053443900000000001  -0.0030946799999999994             10.10034718
     6   1   -0.016467539999999999      1.8486965599999998      12.652820009999999
     7   1     -1.6304188399999999      2.7801279899999995  -0.0089631499999999996
     8   1     -1.6237399800000001       4.616609959999999      2.5415728899999999
     9   1     -1.6344527799999999      2.7772434099999996      5.0845335499999997
    10   1             -1.60714052      4.6115507399999993      7.5953225299999998
    11   1              -1.6063372      2.7569881899999995             10.10604176
    12   1             -1.60972498      4.6104199499999989      12.623260780000001
    13   1             -3.20238611      5.5328740299999994             -0.00159801
    14   1             -3.20656812      7.3581574199999995      2.5415751499999999
    15   1     -3.2116144499999999       5.527544429999999      5.0709095399999997
    16   1     -3.2026511900000001      7.3750574199999992              7.59532483
    17   1             -3.21134516      5.5276988599999992              10.1046631
    18   1             -3.20492234       7.373385719999999             12.62326281
    19   1     -4.8003499999999999      8.2706097599999975  -0.0089610699999999998
    20   1     -4.8074298999999998      10.095167449999998      2.6006599399999999
    21   1     -4.8048631300000002      8.2685541299999983      5.0845331399999996
    22   1     -4.8056913699999999      10.144603119999998      7.5992889100000003
    23   1     -4.8083380599999996      8.3030338399999977             10.10604388
    24   1     -4.8000125200000001      10.134043349999999      12.652821940000001
    25   1      3.1725135299999998  -0.0072503199999999993  -0.0021935800000000001
    26   1              3.17121874      1.8309048099999998      2.5445864899999999
    27   1              3.19663684   -0.011126929999999998      5.0635060300000001
    28   1              3.18628483      1.8395944999999998      7.5896474400000002
    29   1      3.1859902600000001  -0.0084052899999999976             10.10376336
    30   1      3.1934970800000002      1.8437631899999998      12.632572059999999
    31   1      1.5799772400000001      2.7511021299999996             -0.00219543
    32   1              1.58695389      4.6057653999999992      2.5368194100000001
    33   1      1.5886828900000001      2.7739264799999996      5.0635063200000001
    34   1      1.5862159199999999      4.6072345999999991      7.5847041800000001
    35   1               1.5857222      2.7633522099999994             10.10376351
    36   1      1.5879891399999999      4.6106170199999994             12.63047686
    37   1  -0.0067646199999999998      5.5284590299999987  -0.0051020800000000002
    38   1  -0.0031542599999999999      7.3799448099999987      2.5289425200000002
    39   1             -0.01352037      5.5310132299999992      5.0532718799999996
    40   1  -0.0097302399999999994      7.3761563699999995      7.5789409900000004
    41   1  -0.0090948599999999998      5.5335677999999993      10.101709120000001
    42   1             -0.01151719      7.3751209399999995             12.62709553
    43   1             -1.60839511      8.3025679699999984  -0.0051048100000000004
    44   1     -1.6106081299999999      10.144114289999997      2.5368216100000001
    45   1             -1.60956195      8.2954413199999983      5.0532739299999996
    46   1             -1.60971156      10.142739839999999      7.5847086900000003
    47   1     -1.6051375400000001      8.2979983999999991      10.101711180000001
    48   1     -1.6058939299999999      10.142587759999998               12.630469
    49   1      6.3785978500000002   -0.010467629999999999  -0.0033056499999999998
    50   1      6.3777719499999996      1.8437187399999997      2.5360726900000001
    51   1      6.3839285500000003  -0.0086266899999999976              5.05493828
    52   1      6.3809263300000003      1.8377928699999997      7.5836756100000002
    53   1      6.3799833399999999  -0.0045299399999999988             10.09772836
    54   1      6.3832954600000003      1.8402685199999997      12.629560010000001
    55   1      4.7734044500000001      2.7559237699999994  0.00014742999999999999
    56   1      4.7855964100000001      4.6014567599999987                2.536073
    57   1      4.7838738000000003      2.7619671999999995      5.0547179699999996
    58   1      4.7820450499999998      4.6071479699999989              7.58367301
    59   1      4.7833171500000002      2.7616422199999997             10.10057514
    60   1      4.7853734699999997      4.6079569499999993             12.62955764
    61   1      3.1802410800000001      5.5292606899999992  -0.0033081899999999999
    62   1      3.1894800499999998      7.3742627899999995      2.5290338999999999
    63   1      3.1844946900000002      5.5329561999999992      5.0549309999999998
    64   1      3.1809639500000002      7.3758434199999989      7.5799842200000001
    65   1      3.1860674000000002      5.5274972599999987      10.097728740000001
    66   1      3.1795797700000001      7.3684448999999992      12.622585109999999
    67   1              1.58357517      8.2960450099999985             -0.00281672
    68   1              1.58823414      10.147693609999997      2.5290338600000002
    69   1      1.5869899999999999       8.298018879999999      5.0489224500000001
    70   1      1.5853439600000001      10.139535339999998      7.5799864100000001
    71   1      1.5871660000000001      8.2981259599999984             10.10323578
    72   1              1.57824308      10.142033699999999      12.622582619999999
    73   1      9.5705182299999993   -0.016516399999999997  -0.0069727699999999997
    74   1      9.5723493499999996      1.8456187299999998              2.54253749
    75   1      9.5744169200000009  -0.0015968899999999997      5.0671996799999999
    76   1      9.5708911600000004      1.8415377099999999      7.5913087700000004
    77   1      9.5692546400000005  -0.0044647399999999992             10.09374921
    78   1      9.5773313699999996      1.8344412399999999             12.63031762
    79   1      7.9753962500000002      2.7588664399999994   0.0010945900000000001
    80   1      7.9801140999999998      4.6073227099999992              2.52973173
    81   1      7.9722353300000002      2.7622237899999997      5.0600476700000003
    82   1      7.9772356499999999      4.6056607799999991      7.5821177400000002
    83   1      7.9792255299999999      2.7646605099999997             10.10647941
    84   1      7.9791275400000004      4.6067475399999989             12.63613849
    85   1      6.3769504100000001      5.5274620999999993   0.0010924000000000001
    86   1      6.3845312300000003      7.3670916299999991      2.5425351200000001
    87   1      6.3782790900000004      5.5230547499999991      5.0600447700000002
    88   1      6.3802656400000002      7.3678678999999994      7.5913134600000003
    89   1              6.38388533      5.5278788399999987             10.10648175
    90   1      6.3773419100000002      7.3769961099999994              12.6303173
    91   1      4.7709569500000004       8.296566679999998  -0.0069701600000000004
    92   1      4.7481477300000003      10.123118369999998      2.5705074699999999
    93   1      4.7858299999999998       8.292486499999999      5.0672018999999997
    94   1      4.7888635199999996      10.146620359999998      7.5936039800000001
    95   1              4.78075604      8.2894523599999985             10.09375421
    96   1      4.7529507899999999      10.125886509999999      12.601639199999999
    97   2               1.3957879     0.80585859999999987              1.32950075
