(written by ASE)

97 atoms
2 atom types

0.0      12.785600000000001  xlo xhi
0.0       11.07265440262632  ylo yhi
0.0                 15.1533  zlo zhi
    -6.3928000000000003                       0                       0  xy xz yz

Masses

     1      178.48999995408445 # Hf
     2      15.998999995884349 # O

Atoms # atomic

     1   1                       0                       0    0.043526170000000003
     2   1                       0      2.0186251899999994      2.5169655400000002
     3   1                       0                       0      5.1430186600000001
     4   1                       0      1.8385287799999999      7.5775375299999999
     5   1                       0                       0      10.127875899999999
     6   1                       0      1.8332379199999997      12.620550769999999
     7   1             -1.60455375      2.7804601999999994              -0.0205515
     8   1     -1.6278052700000001      4.6421176999999991      2.5226702099999998
     9   1             -1.59651918      2.7731323599999995      5.0590052500000002
    10   1     -1.5942437700000001      4.6157598099999992      7.5791073400000002
    11   1             -1.59658553      2.7670549799999997             10.09830391
    12   1             -1.59225807      4.6177176899999992      12.615601939999999
    13   1     -3.1940248499999999      5.5376984999999994   -0.017872220000000001
    14   1     -3.1865107799999999      7.3418748399999991      2.5226702099999998
    15   1             -3.19686848      5.5360567199999995              5.06225843
    16   1     -3.1925566399999998       7.384118889999999      7.5791073400000002
    17   1     -3.1983082399999998      5.5352254799999994      10.098506309999999
    18   1     -3.1898682100000002      7.3848596199999994      12.615601939999999
    19   1             -4.78712771      8.2928399899999974              -0.0205515
    20   1     -4.6446192999999996      10.063341809999999      2.5169655400000002
    21   1     -4.7894565199999999      8.3034620599999975      5.0590052500000002
    22   1     -4.8005873699999997      10.153390009999999      7.5775375299999999
    23   1             -4.79475286      8.3064432799999981             10.09830391
    24   1     -4.8051693899999997      10.156035439999998      12.620550769999999
    25   1      3.2102260500000002 -0.00064578999999999993              -0.0205515
    26   1      3.2001637700000001      1.8476154099999997      2.5138164999999999
    27   1              3.19986266   -0.003940009999999999      5.0590052500000002
    28   1      3.2007540900000002      1.8479562399999998              7.57299656
    29   1      3.1946326799999998 -0.00084385999999999988             10.09830391
    30   1      3.2051114200000002      1.8504719399999998      12.611531830000001
    31   1              1.60455375      2.7804601999999994              -0.0205515
    32   1      1.6278052700000001      4.6421176999999991      2.5226702099999998
    33   1              1.59651918      2.7731323599999995      5.0590052500000002
    34   1      1.5942437700000001      4.6157598099999992      7.5791073400000002
    35   1              1.59658553      2.7670549799999997             10.09830391
    36   1              1.59225807      4.6177176899999992      12.615601939999999
    37   1                       0      5.5411056599999995   0.0059293599999999998
    38   1                       0      7.3817695999999993              2.52127649
    39   1                       0      5.5378415099999989      5.0438440800000004
    40   1                       0      7.3817695999999993      7.5678719399999999
    41   1                       0      5.5377444999999987      10.097094820000001
    42   1                       0      7.3817695999999993             12.62716633
    43   1             -1.59406173      8.3021015699999978   0.0059293599999999998
    44   1             -1.55870551      10.161316269999999      2.5226702099999998
    45   1             -1.59688857      8.3037336499999981      5.0438440800000004
    46   1     -1.5983128600000001      10.145430109999998      7.5791073400000002
    47   1             -1.59697259       8.303782159999999      10.097094820000001
    48   1             -1.59761014      10.142731489999997      12.615601939999999
    49   1      6.3928000000000003  -0.0027425899999999996   -0.017872220000000001
    50   1      6.3928000000000003      1.8470537399999998              2.52027073
    51   1      6.3928000000000003  0.00054095999999999994              5.06225843
    52   1      6.3928000000000003      1.8471430799999997      7.5740773199999998
    53   1      6.3928000000000003   0.0022034399999999997      10.098506309999999
    54   1      6.3928000000000003      1.8468984599999998             12.62213646
    55   1      4.7962974100000002      2.7691435999999996  -0.0090023399999999993
    56   1      4.7959954600000003      4.6128003299999989              2.52027073
    57   1      4.7939003600000003      2.7677596599999994      5.0486525899999997
    58   1              4.79607283      4.6127556599999995      7.5740773199999998
    59   1      4.7949987099999998      2.7683937999999997             10.09538607
    60   1      4.7958609900000004      4.6128779699999996             12.62213646
    61   1      3.1940248499999999      5.5376984999999994   -0.017872220000000001
    62   1      3.1865107799999999      7.3418748399999991      2.5226702099999998
    63   1              3.19686848      5.5360567199999995              5.06225843
    64   1      3.1925566399999998       7.384118889999999      7.5791073400000002
    65   1      3.1983082399999998      5.5352254799999994      10.098506309999999
    66   1      3.1898682100000002      7.3848596199999994      12.615601939999999
    67   1              1.59406173      8.3021015699999978   0.0059293599999999998
    68   1              1.55870551      10.161316269999999      2.5226702099999998
    69   1              1.59688857      8.3037336499999981      5.0438440800000004
    70   1      1.5983128600000001      10.145430109999998      7.5791073400000002
    71   1              1.59697259       8.303782159999999      10.097094820000001
    72   1              1.59761014      10.142731489999997      12.615601939999999
    73   1      9.5753739499999995 -0.00064578999999999993              -0.0205515
    74   1      9.5854362299999991      1.8476154099999997      2.5138164999999999
    75   1      9.5857373399999997   -0.003940009999999999      5.0590052500000002
    76   1      9.5848459100000003      1.8479562399999998              7.57299656
    77   1      9.5909673200000007 -0.00084385999999999988             10.09830391
    78   1      9.5804885800000008      1.8504719399999998      12.611531830000001
    79   1      7.9893025900000003      2.7691435999999996  -0.0090023399999999993
    80   1      7.9896045400000002      4.6128003299999989              2.52027073
    81   1      7.9916996400000002      2.7677596599999994      5.0486525899999997
    82   1      7.9895271699999997      4.6127556599999995      7.5740773199999998
    83   1      7.9906012899999999      2.7683937999999997             10.09538607
    84   1      7.9897390100000001      4.6128779699999996             12.62213646
    85   1      6.3928000000000003      5.5343671999999993  -0.0090023399999999993
    86   1      6.3928000000000003      7.3774235799999994      2.5138164999999999
    87   1      6.3928000000000003      5.5371350799999988      5.0486525899999997
    88   1      6.3928000000000003      7.3767419299999988              7.57299656
    89   1      6.3928000000000003       5.535866809999999             10.09538607
    90   1      6.3928000000000003      7.3717105199999988      12.611531830000001
    91   1              4.78712771      8.2928399899999974              -0.0205515
    92   1      4.6446192999999996      10.063341809999999      2.5169655400000002
    93   1      4.7894565199999999      8.3034620599999975      5.0590052500000002
    94   1      4.8005873699999997      10.153390009999999      7.5775375299999999
    95   1              4.79475286      8.3064432799999981             10.09830391
    96   1      4.8051693899999997      10.156035439999998      12.620550769999999
    97   2                       0                       0      2.2494163299999999
