97
Lattice="12.7856 0.0 0.0 -6.3928 11.07265440262632 0.0 0.0 0.0 15.1533" Properties=species:S:1:pos:R:3:forces:R:3 energy=-147943.32542329014 pbc="F F F"
Hf      -0.00750136      -0.00433003      -0.02420240      -0.00028452      -0.00016653      -0.00032594
Hf      -0.00750142       1.84977364       2.54975165      -0.00028458       0.00016201       0.00032789
Hf      -0.00850580      -0.00491036       5.04175635       0.00084174       0.00048393      -0.00060958
Hf       0.00124547       1.84472341       7.58129464       0.00017682      -0.00010259      -0.00079291
Hf       0.00124536       0.00071907      10.09755499       0.00017754       0.00010035       0.00079421
Hf      -0.00850611       1.85035365      12.63709308       0.00084028      -0.00048725       0.00061027
Hf      -1.60633222       2.77285888      -0.01313242       0.00072895      -0.00042205       0.00011715
Hf      -1.60136872       4.61183329       2.53283026       0.00098280      -0.00030792       0.00051557
Hf      -1.60612969       2.77274215       5.05492242       0.00138805      -0.00080314      -0.00008958
Hf      -1.59886316       4.61511708       7.58098216      -0.00048207      -0.00053435      -0.00001143
Hf      -1.59489687       2.76625678      10.09590479       0.00036811      -0.00021437      -0.00015079
Hf      -1.59908303       4.61562619      12.62366178       0.00020143      -0.00037000       0.00049092
Hf      -3.19462568       5.53735169      -0.00046737       0.00058391       0.00033859       0.00033516
Hf      -3.19951988       7.37991209       2.53283051       0.00022537       0.00100628       0.00051567
Hf      -3.19816187       5.53530937       5.05399311       0.00028401       0.00016689      -0.00052458
Hf      -3.19542221       7.38043793       7.58098238      -0.00070615      -0.00014418      -0.00000960
Hf      -3.19889702       5.53488495      10.10066818      -0.00061570      -0.00035382       0.00125917
Hf      -3.19509229       7.37999418      12.62366234      -0.00021848       0.00036384       0.00048956
Hf      -4.79459982       8.29510132      -0.01313196      -0.00000267       0.00084177       0.00011679
Hf      -4.79460061      10.14127249       2.54975234       0.00000093      -0.00033172       0.00032562
Hf      -4.79459953       8.29533373       5.05492299      -0.00000004       0.00160538      -0.00009137
Hf      -4.79459980      10.15137091       7.58129479       0.00000108       0.00020245      -0.00079282
Hf      -4.79459984       8.30830419      10.09590524       0.00000053       0.00042650      -0.00015203
Hf      -4.79460044      10.14011167      12.63709376       0.00000159       0.00097019       0.00060796
Hf       3.20390030      -0.00433045      -0.02420163       0.00028590      -0.00016452      -0.00032744
Hf       3.20389978       1.84977317       2.54975243       0.00028742       0.00016417       0.00032549
Hf       3.20490614      -0.00491109       5.04175685      -0.00084089       0.00048586      -0.00060945
Hf       3.19515460       1.84472309       7.58129492      -0.00017293      -0.00010135      -0.00079285
Hf       3.19515479       0.00071870      10.09755534      -0.00017570       0.00010166       0.00079357
Hf       3.20490532       1.85035311      12.63709395      -0.00083955      -0.00048650       0.00060741
Hf       1.59819912       2.77682512      -0.02420240       0.00000309       0.00032850      -0.00032534
Hf       1.59819996       4.62299583       2.53868199       0.00000032      -0.00084186      -0.00011662
Hf       1.59819953       2.77798506       5.04175640       0.00000250      -0.00097052      -0.00060937
Hf       1.59820034       4.60979239       7.58294458       0.00000144      -0.00042840       0.00015267
Hf       1.59820004       2.76672583      10.09755501       0.00000018      -0.00020334       0.00079333
Hf       1.59819990       4.62276330      12.62392706       0.00000064      -0.00160644       0.00009128
Hf       0.00311941       5.53818514      -0.00728059      -0.00022504      -0.00100612      -0.00051510
Hf      -0.00177446       7.38074526       2.52601733      -0.00058427      -0.00033734      -0.00033591
Hf      -0.00130736       5.53810206       5.05518741       0.00021789      -0.00036062      -0.00048831
Hf       0.00249877       7.38321093       7.57818187       0.00061014       0.00035686      -0.00125973
Hf      -0.00097579       5.53765825      10.09786771       0.00069949       0.00014483       0.00000992
Hf       0.00176230       7.38278695      12.62485649      -0.00028612      -0.00016374       0.00052769
Hf      -1.59503127       8.30626354      -0.00728016      -0.00098605       0.00030829      -0.00051725
Hf      -1.59006873      10.14523840       2.53868237      -0.00072735       0.00042095      -0.00011679
Hf      -1.59731615       8.30246996       5.05518790      -0.00020404       0.00037364      -0.00048919
Hf      -1.60150184      10.15183909       7.58294503      -0.00037182       0.00021678       0.00015194
Hf      -1.59753512       8.30297895      10.09786819       0.00047729       0.00053755       0.00000762
Hf      -1.59027036      10.14535423      12.62392788      -0.00138871       0.00080582       0.00008788
Hf       6.39284855      -0.00363058      -0.00728048      -0.00075896       0.00069807      -0.00051499
Hf       6.39284812       1.84907285       2.53283070      -0.00075666      -0.00069792       0.00051560
Hf       6.39499151       0.00024499       5.05518789      -0.00042397      -0.00000908      -0.00048817
Hf       6.39444112       1.84526220       7.58098227      -0.00022373       0.00067926      -0.00000955
Hf       6.39444092       0.00017980      10.09786821      -0.00022324      -0.00068001       0.00000765
Hf       6.39499087       1.84519769      12.62366246      -0.00042294       0.00000671       0.00048837
Hf       4.80273068       2.77285853      -0.01313174      -0.00072601      -0.00042154       0.00011574
Hf       4.79776844       4.61183294       2.53283028      -0.00098295      -0.00030623       0.00051748
Hf       4.80252947       2.77274235       5.05492281      -0.00138690      -0.00080475      -0.00008981
Hf       4.79526439       4.61511695       7.58098246       0.00048052      -0.00053464      -0.00001029
Hf       4.79129707       2.76625701      10.09590557      -0.00036747      -0.00021582      -0.00015346
Hf       4.79548250       4.61562646      12.62366238      -0.00019996      -0.00037229       0.00048924
Hf       3.19327950       5.53818509      -0.00728035       0.00022747      -0.00100545      -0.00051539
Hf       3.19817471       7.38074494       2.52601735       0.00058338      -0.00033548      -0.00033539
Hf       3.19770805       5.53810217       5.05518793      -0.00021848      -0.00036195      -0.00049075
Hf       3.19390314       7.38321134       7.57818161      -0.00061426       0.00035598      -0.00125846
Hf       3.19737657       5.53765843      10.09786767      -0.00070037       0.00014505       0.00000917
Hf       3.19463778       7.38278684      12.62485648       0.00028515      -0.00016294       0.00052706
Hf       1.59819990       8.30449086      -0.00015562       0.00000008       0.00000068      -0.00096987
Hf       1.59819981      10.15198230       2.52601741      -0.00000061       0.00067513      -0.00033600
Hf       1.59820033       8.30449050       5.04539684       0.00000017       0.00000171      -0.00072959
Hf       1.59820075      10.14704889       7.57818196      -0.00000259      -0.00070648      -0.00125920
Hf       1.59820060       8.30449031      10.10242880      -0.00000095       0.00000399      -0.00045074
Hf       1.59820003      10.14789819      12.62485657      -0.00000141       0.00033115       0.00052593
Hf       9.58915045      -0.00363028      -0.00728049       0.00075964       0.00069789      -0.00051569
Hf       9.58915109       1.84907328       2.53283033       0.00075557      -0.00069787       0.00051618
Hf       9.58700918       0.00024482       5.05518756       0.00042122      -0.00000735      -0.00048839
Hf       9.58755958       1.84526195       7.58098189       0.00022142       0.00068133      -0.00000905
Hf       9.58755942       0.00017998      10.09786780       0.00022244      -0.00067968       0.00000918
Hf       9.58700898       1.84519741      12.62366204       0.00041981       0.00000966       0.00048948
Hf       7.99099925       2.76611474      -0.00046695       0.00000073      -0.00067510       0.00033329
Hf       7.99099957       4.61360647       2.52570510       0.00000052      -0.00000173       0.00097238
Hf       7.99100018       2.77019872       5.05399290      -0.00000217      -0.00033131      -0.00052379
Hf       7.99100098       4.61360583       7.57642128      -0.00000338      -0.00000042       0.00045071
Hf       7.99100042       2.77104722      10.10066828      -0.00000272       0.00070922       0.00125842
Hf       7.99099987       4.61360601      12.63345322      -0.00000024      -0.00000073       0.00072852
Hf       6.39102466       5.53735203      -0.00046732      -0.00058173       0.00033635       0.00033462
Hf       6.39591966       7.37991229       2.53283027      -0.00022548       0.00100499       0.00051700
Hf       6.39456217       5.53530977       5.05399358      -0.00028464       0.00016441      -0.00052723
Hf       6.39182391       7.38043842       7.58098211       0.00070229      -0.00014728      -0.00000827
Hf       6.39529750       5.53488538      10.10066844       0.00061560      -0.00035585       0.00125807
Hf       6.39149191       7.37999484      12.62366250       0.00022083       0.00036107       0.00048734
Hf       4.79143097       8.30626418      -0.00728072       0.00098490       0.00030643      -0.00051375
Hf       4.78646808      10.14523864       2.53868183       0.00072880       0.00042016      -0.00011621
Hf       4.79371713       8.30247109       5.05518784       0.00020350       0.00036865      -0.00049051
Hf       4.79790289      10.15183992       7.58294479       0.00037054       0.00021349       0.00015189
Hf       4.79393585       8.30297963      10.09786759      -0.00047710       0.00053426       0.00001006
Hf       4.78666950      10.14535480      12.62392724       0.00139040       0.00080305       0.00008995
O        1.59819930       0.92272161       1.26277489       0.00000121      -0.00000124       0.00000048
97
Lattice="12.7856 0.0 0.0 -6.3928 11.07265440262632 0.0 0.0 0.0 15.1533" Properties=species:S:1:pos:R:3:forces:R:3 energy=-147943.14344173734 pbc="F F F"
Hf      -0.07008525      -0.04046533      -0.06606519       0.11958766       0.06904397       0.22728466
Hf      -0.05384532       1.86171346       2.60065794       0.06674394      -0.18233961      -0.12630294
Hf      -0.01890623      -0.01091884       5.04910072      -0.02665184      -0.01538745      -0.02707145
Hf      -0.01015414       1.83849548       7.59929146      -0.00588473      -0.00344347      -0.02049487
Hf      -0.00534439      -0.00309468      10.10034718      -0.01463314      -0.00844845       0.00584128
Hf      -0.01646754       1.84869656      12.65282001      -0.02862242      -0.03244767       0.00524548
Hf      -1.63041884       2.78012799      -0.00896315       0.00572311      -0.05063192       0.01158082
Hf      -1.62373998       4.61660996       2.54157289       0.02723436      -0.05023073      -0.00070336
Hf      -1.63445278       2.77724341       5.08453355       0.02634998      -0.02416686      -0.05405536
Hf      -1.60714052       4.61155074       7.59532253      -0.00262337      -0.00387252      -0.00889263
Hf      -1.60633720       2.75698819      10.10604176       0.00202139       0.00084671      -0.00332212
Hf      -1.60972498       4.61041995      12.62326078      -0.00377109      -0.00638776       0.01068764
Hf      -3.20238611       5.53287403      -0.00159801      -0.01674514      -0.00966781       0.01658305
Hf      -3.20656812       7.35815742       2.54157515      -0.02988391       0.04870101      -0.00070336
Hf      -3.21161445       5.52754443       5.07090954       0.00105083       0.00060670      -0.02108031
Hf      -3.20265119       7.37505742       7.59532483      -0.00466539      -0.00033564      -0.00889263
Hf      -3.21134516       5.52769886      10.10466310      -0.00125257      -0.00072317       0.00455127
Hf      -3.20492234       7.37338572      12.62326281      -0.00741750      -0.00007198       0.01068764
Hf      -4.80035000       8.27060976      -0.00896107      -0.04098698       0.03027232       0.01158082
Hf      -4.80742990      10.09516745       2.60065994      -0.12453876       0.14897176      -0.12630294
Hf      -4.80486313       8.26855413       5.08453314      -0.00775412       0.03490319      -0.05405536
Hf      -4.80569137      10.14460312       7.59928891      -0.00592450      -0.00337459      -0.02049487
Hf      -4.80833806       8.30303384      10.10604388       0.00174397       0.00132722      -0.00332212
Hf      -4.80001252      10.13404335      12.65282194      -0.04241172      -0.00856391       0.00524548
Hf       3.17251353      -0.00725032      -0.00219358      -0.13860140      -0.03023724       0.05690967
Hf       3.17121874       1.83090481       2.54458649      -0.13324736      -0.07693040       0.01414192
Hf       3.19663684      -0.01112693       5.06350603      -0.01677506      -0.01938608      -0.03106648
Hf       3.18628483       1.83959450       7.58964744      -0.00406614      -0.00234759      -0.00317315
Hf       3.18599026      -0.00840529      10.10376336      -0.00461240       0.00387516       0.01293829
Hf       3.19349708       1.84376319      12.63257206      -0.01817942      -0.01049589       0.03778245
Hf       1.57997724       2.75110213      -0.00219543      -0.09548692      -0.10491372       0.05690967
Hf       1.58695389       4.60576540       2.53681941      -0.02396343      -0.00731764       0.02695436
Hf       1.58868289       2.77392648       5.06350632      -0.02517636      -0.00483459      -0.03106648
Hf       1.58621592       4.60723460       7.58470418      -0.00227293      -0.00843436       0.01227729
Hf       1.58572220       2.76335221      10.10376351       0.00104979      -0.00593203       0.01293829
Hf       1.58798914       4.61061702      12.63047686      -0.00787487      -0.02271682       0.02245290
Hf      -0.00676462       5.52845903      -0.00510208      -0.01635810      -0.00318811      -0.00020874
Hf      -0.00315426       7.37994481       2.52894252      -0.03576536      -0.02064914       0.00303735
Hf      -0.01352037       5.53101323       5.05327188      -0.00283013       0.00394470       0.01796787
Hf      -0.00973024       7.37615637       7.57894099       0.00216948       0.00125255       0.00703202
Hf      -0.00909486       5.53356780      10.10170912      -0.00182204      -0.00174177       0.00775013
Hf      -0.01151719       7.37512094      12.62709553       0.00183968       0.00106214       0.00963348
Hf      -1.60839511       8.30256797      -0.00510481      -0.01094003      -0.01257248      -0.00020874
Hf      -1.61060813      10.14411429       2.53682161      -0.01831898      -0.01709412       0.02695436
Hf      -1.60956195       8.29544132       5.05327393       0.00200115      -0.00442331       0.01796787
Hf      -1.60971156      10.14273984       7.58470869      -0.00844084       0.00224876       0.01227729
Hf      -1.60513754       8.29799840      10.10171118      -0.00241944      -0.00070705       0.00775013
Hf      -1.60589393      10.14258776      12.63046900      -0.02361078       0.00453857       0.02245290
Hf       6.37859785      -0.01046763      -0.00330565      -0.03502088       0.00250878      -0.00093710
Hf       6.37777195       1.84371874       2.53607269      -0.02955728      -0.01514893       0.00681996
Hf       6.38392855      -0.00862669       5.05493828      -0.01116314      -0.00062774       0.01263834
Hf       6.38092633       1.83779287       7.58367561      -0.00295930       0.00141923       0.00164425
Hf       6.37998334      -0.00452994      10.09772836      -0.00298497      -0.00348846       0.01008065
Hf       6.38329546       1.84026852      12.62956001      -0.01202123      -0.00176850       0.00122891
Hf       4.77340445       2.75592377       0.00014743      -0.02770065      -0.01599298       0.00708479
Hf       4.78559641       4.60145676       2.53607300      -0.02789800      -0.01802289       0.00681996
Hf       4.78387380       2.76196720       5.05471797      -0.01437246      -0.00829794      -0.00195807
Hf       4.78204505       4.60714797       7.58367301      -0.00025056      -0.00327244       0.00164425
Hf       4.78331715       2.76164222      10.10057514      -0.01067745      -0.00616463       0.00427442
Hf       4.78537347       4.60795695      12.62955764      -0.00754219      -0.00952644       0.00122891
Hf       3.18024108       5.52926069      -0.00330819      -0.01533777      -0.03158336      -0.00093710
Hf       3.18948005       7.37426279       2.52903390      -0.02863870      -0.04115473       0.00395775
Hf       3.18449469       5.53295620       5.05493100      -0.00612521      -0.00935369       0.01263834
Hf       3.18096395       7.37584342       7.57998422      -0.00300261      -0.00185460       0.00615883
Hf       3.18606740       5.52749726      10.09772874      -0.00451358      -0.00084083       0.01008065
Hf       3.17957977       7.36844490      12.62258511      -0.00409306       0.00089774       0.01438077
Hf       1.58357517       8.29604501      -0.00281672       0.00245864       0.00141950       0.01653091
Hf       1.58823414      10.14769361       2.52903386      -0.04996039      -0.00422448       0.00395775
Hf       1.58699000       8.29801888       5.04892245       0.00814758       0.00470401      -0.00444707
Hf       1.58534396      10.13953534       7.57998641      -0.00310744      -0.00167303       0.00615883
Hf       1.58716600       8.29812596      10.10323578      -0.00298173      -0.00172151       0.00490768
Hf       1.57824308      10.14203370      12.62258262      -0.00126907      -0.00399356       0.01438077
Hf       9.57051823      -0.01651640      -0.00697277      -0.01094806       0.01025551       0.00946354
Hf       9.57234935       1.84561873       2.54253749      -0.02379207      -0.01521388       0.00324794
Hf       9.57441692      -0.00159689       5.06719968      -0.01286603      -0.00263268       0.00224370
Hf       9.57089116       1.84153771       7.59130877       0.00314645       0.00299844       0.00155369
Hf       9.56925464      -0.00446474      10.09374921       0.00590670      -0.00532479       0.01744431
Hf       9.57733137       1.83444124      12.63031762      -0.01115555       0.00560089      -0.00225920
Hf       7.97539625       2.75886644       0.00109459      -0.01898686      -0.00166480       0.00834359
Hf       7.98011410       4.60732271       2.52973173      -0.01046252      -0.00604054       0.00497884
Hf       7.97223533       2.76222379       5.06004767      -0.00639049       0.00456460      -0.00245816
Hf       7.97723565       4.60566078       7.58211774       0.00140644       0.00081201       0.00342800
Hf       7.97922553       2.76466051      10.10647941      -0.00432529       0.00121573       0.00071580
Hf       7.97912754       4.60674754      12.63613849       0.00262132       0.00151342       0.01333413
Hf       6.37695041       5.52746210       0.00109240      -0.01093519      -0.01561071       0.00834359
Hf       6.38453123       7.36709163       2.54253512      -0.02507164      -0.01299760       0.00324794
Hf       6.37827909       5.52305475       5.06004477       0.00075781      -0.00781662      -0.00245816
Hf       6.38026564       7.36786790       7.59131346       0.00416995       0.00122569       0.00155369
Hf       6.38388533       5.52787884      10.10648175      -0.00110979      -0.00435368       0.00071580
Hf       6.37734191       7.37699611      12.63031730      -0.00072726      -0.01246143      -0.00225920
Hf       4.77095695       8.29656668      -0.00697016       0.00340750      -0.01460905       0.00946354
Hf       4.74814773      10.12311837       2.57050747       0.01393226       0.00804379      -0.05524282
Hf       4.78583000       8.29248650       5.06720190      -0.00871298      -0.00982597       0.00224370
Hf       4.78886352      10.14662036       7.59360398      -0.00742395      -0.00428622      -0.00973992
Hf       4.78075604       8.28945236      10.09375421      -0.00165806       0.00777775       0.01744431
Hf       4.75295079      10.12588651      12.60163920       0.03808935       0.02199090       0.07287058
O        1.39578790       0.80585860       1.32950075       1.06871326       0.61702189      -0.39855504
97
Lattice="12.7856 0.0 0.0 -6.3928 11.07265440262632 0.0 0.0 0.0 15.1533" Properties=species:S:1:pos:R:3:forces:R:3 energy=-147942.44913515268 pbc="F F F"
Hf      -0.09908454      -0.05720808      -0.12099694       0.11241991       0.06490566       0.20282721
Hf      -0.07012215       1.90566976       2.63124145       0.03692090      -0.36713398      -0.01495502
Hf      -0.01250319      -0.00722204       5.05560677      -0.03669929      -0.02118835      -0.16365873
Hf      -0.00873669       1.83933816       7.60421624      -0.00288016       0.00954663      -0.00691266
Hf      -0.00182330      -0.00106178      10.09895564      -0.01592589      -0.00919481      -0.02656018
Hf      -0.00955978       1.85652085      12.65155205      -0.02152541      -0.02451381       0.03261708
Hf      -1.63178996       2.79231395      -0.01172622      -0.00686039      -0.05428693       0.00305622
Hf      -1.63027200       4.62867688       2.54174264       0.03422894      -0.05904690      -0.00611701
Hf      -1.64080341       2.78306796       5.09755000       0.00362907      -0.00395177      -0.03825872
Hf      -1.60650571       4.61249031       7.59748136      -0.00117656      -0.00008677       0.00082092
Hf      -1.60682660       2.75678909      10.10684265       0.00491913       0.00115783      -0.00606407
Hf      -1.60881269       4.61196165      12.62067532      -0.00427190      -0.00301117       0.00472199
Hf      -3.19834271       5.53520849      -0.00558987      -0.01428488      -0.00824738       0.01296689
Hf      -3.19938387       7.34646707       2.54174490      -0.03402165       0.05916658      -0.00611701
Hf      -3.21185921       5.52740312       5.07599151      -0.00060367      -0.00034853      -0.02212359
Hf      -3.20152010       7.37513739       7.59748366      -0.00066343      -0.00097555       0.00082092
Hf      -3.21103762       5.52787642      10.10355664      -0.00404876      -0.00233756       0.00024043
Hf      -3.20313104       7.37340495      12.62067734      -0.00474370      -0.00219398       0.00472199
Hf      -4.79048221       8.26332936      -0.01172415      -0.05044406       0.02120220       0.00305622
Hf      -4.77750104      10.05909315       2.63124344      -0.29948690       0.21554143      -0.01495502
Hf      -4.80299424       8.26014205       5.09754959      -0.00160780       0.00511875      -0.03825872
Hf      -4.80425287      10.14540933       7.60421368       0.00682755      -0.00726760      -0.00691266
Hf      -4.80875519       8.30270956      10.10684478       0.00346228       0.00368118      -0.00606407
Hf      -4.78978260      10.13611350      12.65155398      -0.03199229      -0.00638465       0.03261708
Hf       3.20589087       0.00004627      -0.01580196      -0.26726135      -0.02331093       0.13611743
Hf       3.20334632       1.84945367       2.54108597      -0.21696895      -0.12526708       0.00581635
Hf       3.20067229      -0.00645892       5.07102330      -0.00223922      -0.02065222      -0.01690399
Hf       3.18726258       1.84015901       7.59040480       0.00070621       0.00040773       0.00021737
Hf       3.18711017      -0.00933481      10.10065485      -0.00034952       0.00280366       0.01488528
Hf       3.19789121       1.84630014      12.62342147      -0.01290007      -0.00744786       0.03242213
Hf       1.60298494       2.77635947      -0.01580380      -0.15381853      -0.21979966       0.13611743
Hf       1.59269916       4.60748854       2.53030175      -0.04289372      -0.03218670       0.03516845
Hf       1.59474323       2.77508727       5.07102359      -0.01900496       0.00838689      -0.01690399
Hf       1.58676004       4.60926755       7.58174206      -0.00273286      -0.00810245       0.01252176
Hf       1.58547716       2.76478685      10.10065500       0.00225327      -0.00170452       0.01488528
Hf       1.58989310       4.61610207      12.62506034      -0.00698717      -0.03250967       0.02701091
Hf      -0.00279382       5.52919306      -0.00506383      -0.00618365      -0.01191839      -0.01805163
Hf       0.00544469       7.38490941       2.52821122      -0.03328308      -0.01921600       0.00916557
Hf      -0.01284665       5.53006447       5.04894411      -0.00193770       0.01007026       0.01586302
Hf      -0.01025048       7.37585601       7.57724773       0.00384862       0.00222200       0.00619190
Hf      -0.00865832       5.53399223      10.09983209      -0.00220839       0.00148682       0.00612147
Hf      -0.01195325       7.37486918      12.62475716       0.00552502       0.00318987       0.01135797
Hf      -1.60577402       8.30563977      -0.00506655      -0.01341345       0.00060399      -0.01805163
Hf      -1.60624321      10.14822827       2.53030396      -0.04932136      -0.02105370       0.03516845
Hf      -1.61004674       8.29649915       5.04894617       0.00775224      -0.00671323       0.01586302
Hf      -1.60767892      10.14219458       7.58174657      -0.00838336       0.00168450       0.01252176
Hf      -1.60455171       8.29816423      10.09983416       0.00018343      -0.00265594       0.00612147
Hf      -1.60019176      10.14149411      12.62505249      -0.03164778       0.01020376       0.02701091
Hf       6.38701232      -0.01107097      -0.00308466      -0.04717310       0.00594649      -0.00835069
Hf       6.38486083       1.84737233       2.53443244      -0.04094974      -0.01403785       0.01496956
Hf       6.38660084      -0.00848484       5.05188316      -0.01275566      -0.00681562       0.00852888
Hf       6.38164156       1.83744388       7.58329055      -0.00350532      -0.00145760      -0.00005842
Hf       6.38070922      -0.00367893      10.09527976      -0.00299532      -0.00322603       0.00091553
Hf       6.38620221       1.84069533      12.62926079      -0.00935684       0.00091094      -0.00128329
Hf       4.78007565       2.75977539      -0.00153874      -0.04870003      -0.02811697       0.02172110
Hf       4.79230495       4.60576912       2.53443275      -0.03263201      -0.02844459       0.01496956
Hf       4.78733071       2.76396304       5.05519015      -0.01843129      -0.01064131      -0.00926877
Hf       4.78210043       4.60794186       7.58328796      -0.00301498      -0.00230690      -0.00005842
Hf       4.78590032       2.76313362      10.09954836      -0.00933284      -0.00538831       0.00281458
Hf       4.78719648       4.61026085      12.62925841      -0.00388952      -0.00855872      -0.00128329
Hf       3.18392580       5.53684950      -0.00308720      -0.01843674      -0.04382635      -0.00835069
Hf       3.19638528       7.38415330       2.52807423      -0.02890863      -0.06677661       0.00181769
Hf       3.18595367       5.53519954       5.05187588      -0.01228033      -0.00763891       0.00852888
Hf       3.18168485       7.37629139       7.57850408      -0.00669703      -0.00185752       0.00684011
Hf       3.18716734       5.52770038      10.09528013      -0.00429148      -0.00098101       0.00091553
Hf       3.18057410       7.36822322      12.61910918      -0.00946359      -0.00360295       0.01211362
Hf       1.58299074       8.29570758      -0.00681142       0.01293069       0.00746554       0.01686113
Hf       1.60025218      10.14872846       2.52807418      -0.07228456       0.00835270       0.00181769
Hf       1.58502370       8.29688363       5.05001169       0.01206042       0.00696309      -0.00495090
Hf       1.58609237      10.13993567       7.57850627      -0.00495717      -0.00487103       0.00684011
Hf       1.58788393       8.29854046      10.10204144      -0.00504624      -0.00291345       0.00460827
Hf       1.57854826      10.14300566      12.61910669      -0.00785204      -0.00639424       0.01211362
Hf       9.57319144      -0.01896798      -0.00924613      -0.01988703       0.01359704       0.01182008
Hf       9.57810954       1.84927194       2.54175557      -0.03948915      -0.02242970       0.01406080
Hf       9.57750069      -0.00095114       5.06668870      -0.02764816       0.01674274       0.03205948
Hf       9.57013603       1.84081459       7.59094783       0.00282478       0.00772638       0.01071594
Hf       9.56784035      -0.00317690      10.08953742       0.00345283      -0.00636914       0.01301787
Hf       9.58002055       1.83309415      12.63085868      -0.00471230       0.00425293      -0.00221973
Hf       7.97997985       2.75925618      -0.00091337      -0.01920607       0.00165597       0.00382527
Hf       7.98263378       4.60877745       2.52854219      -0.00708119      -0.00408833       0.00829519
Hf       7.97376351       2.76112068       5.06065113      -0.01676224       0.01146905      -0.00063855
Hf       7.97689332       4.60546313       7.58130117       0.00097796       0.00056462       0.00238763
Hf       7.98027418       2.76437369      10.10630192      -0.00314470       0.00309080      -0.00114724
Hf       7.97849738       4.60638371      12.63291287      -0.00189708      -0.00109528       0.01934463
Hf       6.37957974       5.53123674      -0.00091557      -0.00816893      -0.01746093       0.00382527
Hf       6.39057510       7.37025349       2.54175320      -0.03916927      -0.02298375       0.01406080
Hf       6.37808786       5.52492975       5.06064823       0.00155137      -0.02025105      -0.00063855