(written by ASE)

4 atoms
1 atom types

0.0      5.1364755065543157  xlo xhi
0.0      5.1934133375444702  ylo yhi
0.0      5.2461598045212767  zlo zhi
                      0    -0.88344296827430302                       0  xy xz yz

Masses

     1      178.48999995408445 # Hf

Atoms # atomic

     1   1     0.79296805999999997      2.3789195900000002      3.7137930099999998
     2   1      3.0183409399999999      4.9756267799999998      4.1554425899999998
     3   1      3.4600634499999998              2.81449477      1.5323642200000001
     4   1      1.2346900599999999              0.21778759              1.09071465
