108
Lattice="10.955999724221174 0.0 0.0 0.0 10.955999724221174 0.0 0.0 0.0 10.628996000452345" Properties=species:S:1:pos:R:3:forces:R:3 energy=-970.5895560268473 stress="0.00932480873996563 0.005966188183566037 -0.004477854689327726 0.005966188183566037 -0.00798980756746563 -0.005905589780962873 -0.004477854689327726 -0.005905589780962873 -0.0007694160815371405" free_energy=-96290.13513741526 pbc="T T T"
Hf       1.75810818       1.73638134       2.65181975      -2.65354558      -1.87181787      -3.20673077
Hf       3.80301047       7.27331462       0.08940424      -3.06533038      -1.08025696      -0.58752278
Hf       5.19830086       5.45344308       2.56313641       0.86493890      -0.75787328      -0.38468023
Hf       8.76030672       5.15193835       7.99361134       2.10945773       3.53093968      -1.93868326
Hf      10.94238580       7.25222870       5.38779035      -1.84632204      -0.36651847       0.07665076
Hf       0.03063188       0.03367107      10.50980349      -2.35964741      -0.73076023       0.35275201
Hf       7.16871769       3.71672211       5.33416621       0.07875186       0.43838363      -0.41068694
Hf       7.29139640       7.37650041       5.29469941       0.09347734      -0.14401623      -0.47976117
Hf       1.68550825       5.21892443       2.67663729      -1.07804170       4.30747403      -1.39934604
Hf      10.89860562       3.56219540       5.10955836      -1.25515908      -1.83758388       2.07256523
Hf      10.85578300       3.55008136      10.17753102       0.13110878      -1.90130790       2.37774746
Hf       1.72404926       5.47657230       7.77142914      -2.89002331       1.36930192       2.55701763
Hf       9.05522361       8.88257897       7.76200151      -1.04262527       0.03679017       1.67048635
Hf       1.85864043       1.80093628       7.61914951      -2.67840867      -0.45023899      -0.20115026
Hf       7.19336430       7.13500279      10.50094228       0.90803470      -0.63056999       0.74402686
Hf       9.16000570       9.13603507       2.57015264      -1.24643276       0.62833339       0.80624499
Hf       5.38032055       9.20009589       2.81155385       2.00766133      -1.01322779      -1.97090510
Hf       5.13674567       9.16798714       7.41036650       0.99512902       0.51799038       1.26071087
Hf      10.87601983      10.64684004       5.32276430      -1.54752360       1.63823237      -1.83369818
Hf       3.62286644       3.44816317       5.27808026       0.93325414      -0.21788145      -1.00831133
Hf      10.83393345       7.26460679      10.60328227       2.26129706      -0.10112920      -1.73227073
Hf       1.66119250       9.06497007       7.94859314      -0.11657176      -4.24993891       0.18820707
Hf       7.27901831       3.47972302       0.15947553      -1.13664434      -0.03959319       0.52278858
Hf       9.12866935       5.57509631       2.65055105      -1.08791679      -0.76044001      -1.78732062
Hf       3.62554519       7.00278359       5.20985944      -2.13536571       1.94012719      -2.49004425
Hf       3.58833094      10.64370881      10.20303769       1.75542814      -1.47338429       1.38496251
Hf       7.35305786       0.09393126       5.20965566      -0.84596185      -1.10160175       0.90546489
Hf       5.05083420       1.59989368       2.55634260       2.34137638       3.57885810      -4.41570976
Hf       5.24130206       1.88575544       7.94624636       4.01833779      -1.16046793       2.10604819
Hf       1.73757664       9.17297212       2.28875874       0.43587860      -2.63345421       0.42774826
Hf       3.39804495      10.69946609       5.00628710       2.44098734      -0.34244806       0.45386707
Hf       3.41330337       3.31753807      10.43999624       0.81018623       2.17987433       1.96758477
Hf       7.34355682      10.64502025       0.05070765      -3.39436577       2.79215838      -0.71511532
Hf       9.01946980       1.94732377       2.62552864       0.74410785       0.20403915      -2.17363170
Hf       5.19676373       5.36640534       8.04905856       0.78397049      -0.38407113       0.43391017
Hf       9.10437113       1.55101020       7.73055669       0.99545838      -1.79261580       1.44530168
O       10.83156148       9.36892785       1.43534443      -0.73176630      -0.40395219       0.41633334
O        5.31518056       7.22255657       3.72538721       1.48727288      -0.94272146       0.60241153
O        0.27637057       5.52502411       4.47347164       0.13057605      -1.57515370      -1.25472740
O       10.88587804       1.46587770       4.33103378       2.01444056       3.16279833      -0.86279666
O        2.09887593      10.87318332       3.42720872      -0.30655366      -1.06456706      -0.42289582
O        1.84256689      10.89418707       0.78163498       1.39812373      -2.28583130      -1.21793825
O        1.45623862       3.78330720       0.97026881       1.02631393       0.46869565      -1.01685125
O       10.74353331       1.58717048       9.36965094       1.05156577       1.68856737      -1.30298443
O        1.89386945      10.87935593       8.42374279      -0.20693318       1.98640011       2.27907469
O        1.72586248       0.07402421       5.91710099      -0.59889709       0.61521999       1.45772165
O       10.86353656       2.05654194       6.74237263       0.23561281      -0.97055108       1.00192393
O        1.94142835       3.46544735       3.43659582      -0.53660131       0.10802079       3.29247989
O        1.77204969       7.86024724       0.76696600       0.70539552      -0.12864180      -0.49267942
O        1.92163634       7.13955610       9.00265892      -0.86289899      -1.86713666      -1.80880296
O        0.08815307       1.51339059       1.33733534       0.19328628       0.69844634       2.06562454
O        3.52003453       5.09246042       6.95215044       1.32638507       0.73893171      -0.00803804
O        3.68286479       1.44627304       6.74867123      -0.83136132       0.94863397      -0.49190783
O        5.39011960       3.63518975       9.12564549      -0.90145268      -0.89890035      -1.53751301
O        0.01387030       6.10615772       1.76687955       0.05847023      -1.03061282       0.70863640
O        1.74317296       6.92125233       6.32335823       1.53951255       1.00002775      -0.77917924
O       10.85300675       9.00850504       6.77065883       1.24054982      -0.22467354      -1.33794398
O        3.63269398       1.67574207       3.96074728      -0.79064199       0.51191204       2.08120388
O        5.65360372       0.13028108       3.67774724      -0.10171721      -1.17842425      -1.15300119
O        5.41760820       0.28293102       0.88932808      -0.59640980      -0.13457308       1.22694765
O        3.22882077       1.80764902       1.26964808       1.53936780       0.90125676       1.56039017
O        3.64865577       1.49538988       9.44881242       0.13412674       2.91468045      -1.93720179
O        5.42788055      10.54710976       8.94874773      -0.23357855       0.80678800      -1.15343570
O        0.01039286       8.90558109       9.19655163       0.30197427       0.34684464       1.90462386
O        3.57592327       5.20539487       4.34374822      -0.63287524       1.42351569      -0.11464986
O        5.27178056       3.68699081       3.84038467       1.68688793      -1.06346817       0.07324327
O        5.24004431       3.59742223       1.08778615      -1.24341351       0.68431093      -0.22316687
O        8.95303810       7.25844623       6.32537084       0.99869412       1.07418865      -2.49809874
O        3.69379997       5.34630436       9.91519180      -1.57630555      -2.45259845      -0.67503568
O        5.33666856       3.32101331       6.46453067       0.42053452       1.21030310      -0.73708874
O       10.76414264       5.40711235       9.66371107      -0.07157180       0.51369664      -0.58318816
O        9.10336537      10.81101679       6.31171967      -0.57763046       0.51692955      -1.24949572
O        1.76109259       3.56788595       6.22530532       0.65149594      -0.46876893      -0.83449807
O        7.12676169       2.30439405       1.85565602       1.23561330      -0.77311889       1.24299468
O        9.00708843       0.34720440       0.58863628       1.40103628      -0.04487449       1.90916417
O        7.51536442       9.33922942       4.23106028      -0.02319546      -2.20239386      -0.60231743
O        7.67397005       1.88607754       4.51128189       0.09263530       2.33849674      -1.16988896
O        3.33532952       9.15581284       6.53395226      -0.75274521       0.08914297      -1.41699229
O        8.86521590       7.22079703       8.77095815      -0.04501513      -1.30365575       0.40631966
O        7.02578791       1.78175561       9.80213136       0.32556414      -0.67094865      -0.56353105
O        7.57954796       8.99007814       9.85874430      -0.93884243      -1.47981488      -2.30404499
O        5.19510609       6.86873256       9.23438160       2.70387544       3.16431554      -0.71621190
O        9.16219690       7.35147691       3.60561184       0.19900056       0.70652861      -0.01128894
O        5.15013390       7.32046705       6.38858806       0.95436573      -1.08844696       0.51045242
O        7.29463609       9.14036488       1.70832631      -0.33688830       0.66879304       0.02488725
O        9.04296385       7.37419856       0.65198497      -0.62046067       0.29894679       2.61150213
O        7.49053594       5.36102265       9.59703067      -0.99322718      -1.87139775      -0.54980907
O        3.45525608       8.89520247       8.97807694       1.46759186       1.28833146       2.41716787
O        9.26799351      10.64436617       8.73329690      -0.95408419       1.86443623       0.03880772
O        7.11442194       5.60264079       6.75307335      -1.82801475      -1.72959498       0.85766602
O        5.49505835      10.52117253       5.91269120      -2.07788613       0.89537948       1.25804258
O       10.59662869       5.76398651       7.08944446       2.48871602      -1.15021128       0.09585098
O        0.05738095       9.04540265       4.17703406      -0.00185197      -0.05731297      -0.81335023
O        2.07386886       7.35034735       3.43628796      -1.03959728      -0.38831294       0.98793199
O        3.78007189       8.90409436       3.89080199      -1.06946399       2.74981257       1.99330712
O        3.32717387       5.85277613       1.81408129       1.57683237      -0.64374664      -0.63419525
O        5.48250059       6.96665728       1.20110296       0.58601766       1.01101664      -1.33839212
O        9.28390491       0.21448232       3.36482526      -1.33305965      -4.75588676       0.22211606
O        9.05371387       3.31374620       8.61833340       0.24336726       1.20095792       2.46585428
O        7.38566073       5.45415961       1.46851153       0.29920056      -0.51185985       1.16665374
O        9.44542702       3.62250818       0.99136350      -2.03159059      -0.13685674      -0.87057193
O        9.65742123       3.64462725       3.50378021      -0.40693287       1.44619256      -0.16326042
O        7.56066200       5.56987468       4.10068608      -0.86132984      -2.06174089       1.43544767
O        4.06101878       9.12552936       1.19428504      -0.86781494       0.33327513       0.12967230
O        9.03993780       3.84797827       6.17312408      -0.63104102      -0.25866301      -1.17633086
O        7.19875356       1.75573073       7.00141190      -0.70660420      -0.67484233       0.08067196
O        1.71171938       3.44527845       8.83826085       1.03698890       0.28410767       0.29697347
O        7.07718360       8.94403884       6.66517008       1.23990524      -0.28695157       2.18268866
