ITEM: TIMESTEP
0
ITEM: NUMBER OF ATOMS
96
ITEM: BOX BOUNDS pp pp pp
0.0000000000000000e+00 1.1107390000000001e+01
0.0000000000000000e+00 1.1107390000000001e+01
0.0000000000000000e+00 1.1107390000000001e+01
ITEM: ATOMS id type x y z fx fy fz
   1 1   10.8872619700000008    8.4562843700000005    3.7519201999999998    2.4795125433388558   -0.5375608874899005   -3.3816681870985166
   2 1    2.7682177200000000   10.2805686600000001    5.4050766000000001   -4.6199150641814946   -0.3317864720141059   -1.1429149724407879
   3 1    5.2661078999999997    5.8903774300000000    6.3473908999999997   -3.5183336291296063    0.8930842369754100   -1.6277394439759925
   4 1    2.3234128500000000    3.2823558199999998    4.5907470999999997    1.4865249610607409    0.1515591374886143   -0.6558124478279266
   5 1    4.2106383799999998    6.7881501100000001    2.6523938999999999   -0.4064314525816075   -1.5925932322000995    2.3183492934085614
   6 1    4.2482845500000002    9.9314096299999992    9.3820323999999999   -3.1775118712125545    2.5197119238705961    0.7985650950503802
   7 1    0.1142743800000000    0.0620883100000000    9.2552570000000003    1.4108248730083668   -0.6427058855792085    4.8756710838388937
   8 1    0.5961936000000000    2.3333637399999998    7.0547306000000001    0.1992006406535558    2.0691659380045642   -4.1442259461620008
   9 1    1.2350242499999999    5.4572453100000002    9.2364622000000001   -3.8821975481882443    2.6455238574280373    1.3911358630019015
  10 1    6.5585646899999999    3.2954576499999999    3.9863734000000002   -4.1879602764324373    0.1427674899665829   -1.6971193445963522
  11 1    5.3354822200000003    0.2000503100000000    6.8009212000000003    1.4262939504866861    4.0133024256379972    0.6304826348803108
  12 1    3.5588698499999998    3.7985817599999998    8.7246772999999997    0.2303899169059838   -3.7489971999926852   -3.0952125925686360
  13 1    7.4227238499999997    7.1833115000000003    8.9492876999999993    3.3036155567381682    1.9601715184764901    0.8266643342997101
  14 1    5.1314672300000002    1.7989666600000001   10.9839490000000009    2.7669915567313619    1.4239692022847605   -1.6895776194524408
  15 1    9.6043533100000005    6.0175944799999996    6.9577751000000001    2.9436940882497491    1.2168132037314816    2.3965841565017856
  16 1    1.6444819700000000    6.7989453800000001    6.2042459000000001    1.6818406049385286   -2.0428824862478869   -0.4664883324256982
  17 1    9.9772603800000006    6.2552431999999998    0.0583646000000000   -0.9910282838494688   -0.2419046217750314    1.8447687177047045
  18 1    1.4489142600000000    2.5210595300000000    0.5942683000000000    1.2395519654650542    1.8488381964766685    2.6562127561303339
  19 1    9.9731027799999996    9.7864869599999995    6.7025277000000001   -1.5557548779099801   -0.3583647871490550    1.5044033879416250
  20 1    1.5403115300000001    6.2348670200000003    1.9041433999999999   -8.3316125366190406   -0.4811024838284159   -5.6544695986404978
  21 1   10.1504474800000004    0.1355879100000000    1.7069723000000001    1.0500322357704506    0.6522728880544433   -1.6125040819681300
  22 1    7.2382545399999998    8.0330458300000007    4.1684805999999996    0.2638828160708057   -0.5499551942925576    1.3363748323311579
  23 1    8.3199954799999993    0.5598223400000000    8.6503259000000003   -3.4850526469715404    1.3585828329258773    1.2123197174235636
  24 1    6.8774039900000004    5.3320168199999998    0.9926531000000000    4.1741209537603456   -1.1539654657224929   -0.0496171912498948
  25 1    4.5566227000000001    6.4139282599999996   10.2857575000000008    0.8642340062316703    2.2033685935567706   -1.2967001365120836
  26 1    1.9637026900000001    8.9887812000000000    0.0439998000000000    5.4720909242178131   -4.3307038387720276    2.7890528377958121
  27 1    7.4158237199999997    3.6301289699999999    7.2695812999999996   -0.1593551132049537   -2.4873730030211800    1.2067529904770935
  28 1    4.5377032599999998    0.6808431300000000    3.1163341000000000   -0.4487075234193698   -0.2999399460711306   -3.6844549747561337
  29 1    6.9858429900000001    9.6046346600000003    0.3723487000000000    1.7292906864833923    1.0545609728269221    0.2654983644375402
  30 1    8.6115279200000003    2.4922300700000002    0.1118609000000000   -5.4263895539182219   -0.4771924403834060   -2.2273578174161437
  31 1    7.7270777800000001   10.7591459999999994    4.2118387000000004    3.1818757117705982    2.6369582366824109   -0.3541005293394501
  32 1    9.9888031799999997    2.9678138600000001    3.4581238000000001    3.2793196509087976   -0.5393325381940866    3.1200669450018541
  33 2    0.8992960600000000   10.6864644599999998    7.5390086700000003    0.6033985996632855   -0.7301964586448315   -0.9876159401526230
  34 2    6.7075754400000003    9.5422469000000003    5.4586596199999997   -1.3681395334569375   -1.6577225067897650   -2.2538364936682189
  35 2    4.2623142899999999    1.3604461200000000    9.2361252300000007   -0.1175264466361129   -0.3951265302084720   -2.5443183574367909
  36 2    6.5996505900000004   10.6072639899999999    7.8373401700000001    3.3397833332658182   -2.1187712340935883    2.4974269580921029
  37 2    3.1314888000000001   10.4900214900000002    0.0162407800000000    0.6584723262375300    0.5610389881367477   -1.8823859994694550
  38 2   10.9008224200000008    7.2841989299999996    2.1318183700000000   -2.5435308954914895   -0.0297737975821776   -0.2380712975030259
  39 2    9.0988866500000007    9.1267366499999998    4.4419974299999998   -0.0485704155480960   -1.5075507503069980    0.1237560680773883
  40 2    0.4414378900000000    4.7006667699999998    0.6985599700000000   -1.8714309256038126   -0.7051642982727355    1.1050891123838607
  41 2    5.6597280300000001    4.4100263699999998    7.4915150300000004   -1.2514808028944779   -1.1754834827189189    2.4581915836830595
  42 2    1.8611853700000001    1.1568000100000000    5.4640654700000004    0.8922370235740460   -0.1905933965031406    0.6125753124737270
  43 2    0.2583514500000000    8.9755244199999993   10.9068411899999997   -6.3823705332607510    2.5703884814021070   -2.3350651109449925
  44 2    9.0548527399999994    8.0792885600000002    7.6211215000000001    0.3495816994879613   -0.8334311430321928   -2.7164585662087024
  45 2    9.7293191100000005    1.1732500600000000   10.4309134100000005   -0.4445224265228320   -2.0023508639883052   -2.1210044160024690
  46 2    4.3930576099999996   11.0582403500000002    5.0160466699999997    3.6488615772770721    1.9267945793166543    1.0018462054298243
  47 2    6.0054828699999998    6.6232011499999999    4.6454218400000000   -0.7150748405834799    1.1653328588651926   -1.1657132913621617
  48 2    6.5573901899999996    2.9991108199999998    0.8416408200000000    1.3156513608124318    1.2458821479612434   -0.3428256813502654
  49 2   10.8289244000000000    6.5058321299999999    5.4410252999999997   -0.3266406840633281    0.8769433183035613    0.1633043986445817
  50 2    1.8983061600000000    7.3741918899999996    3.3560855599999999    0.8271625758595604    3.3368126129654021    4.1125237184522216
  51 2    5.3609917800000000    6.6518150100000000    1.0310178200000000    1.3647111176935867   -0.7159489544475910    0.5404070389665058
  52 2    3.3383210700000001    1.8896659400000000    0.3776929100000000   -4.2318435048237468    2.6667396367933920    1.7002842423342619
  53 2    5.6323954100000000    8.9796486000000009   10.0535500500000001    2.7168783189145063   -2.5073991684127872    1.1994264774053085
  54 2    4.0083879199999997    2.5170635300000002    2.9854359499999998   -0.2053808677089309   -1.0636883581872134    2.1824843568159595
  55 2    2.2748493399999998    3.2579365500000002    7.2145859100000003    0.3628591871197893   -2.4405746715735095    1.5027535574010091
  56 2    8.1754375699999997    7.0892364600000004    0.8372943900000001    1.7689902047424795   -4.3191632009976244    2.0369821033901045
  57 2    8.7372767899999992   10.1572731899999997    1.1427389500000000   -0.2633190971143583    0.4007935135549582   -0.1185883629765011
  58 2    7.6721479600000002    5.7576417900000001    6.5717552699999997    0.7338692152655946   -0.5929367812348332    0.3086895437962250
  59 2    2.8573021000000001    5.3058821299999996    2.5846852100000000    7.5799677070210025   -4.4236831233043565    3.3779997508640833
  60 2   11.0496160200000002    4.5237725900000001    7.8645253999999998    0.0779840845006587   -0.9503542969014979   -1.7906122357858063
  61 2    7.0974205000000001    8.7987293199999996    2.4469050299999999   -2.0561038959027385    0.6089016758917754    1.0343683853032428
  62 2    2.7639507100000000    5.0433260899999999    6.0009321699999996   -0.8801585546372549    0.9697672419687621   -1.3627551855922717
  63 2    0.3105592900000000    9.0883059700000004    5.6079435999999996    2.6015045830724874    0.0947781973624331   -0.3851171004983105
  64 2    3.1714078699999999    5.7927073699999996    9.0546962299999993   -1.0328848661785921   -2.2515288694763309   -1.6998798951105556
  65 2   10.2930971299999996    1.2217674700000001    7.9251554200000003   -1.2056970990052061    1.6208459283222139   -1.1385138040456741
  66 2    4.7185160200000000    4.2404048599999999   10.0406465899999997    2.5283753566145082    1.0485140319343231    4.4916239062407968
  67 2    1.1462654299999999    6.6556243999999998   11.0138255699999998   -1.1266473935941763    0.8095039376078410   -3.3975269098942436
  68 2    9.8782392199999993    4.7216192000000001    3.7816931999999999   -2.6497109596447386    2.3590559881236444   -1.1124873433316202
  69 2    5.0942635799999998    3.9785664700000001    5.0894828499999996    1.5735068595336692   -0.1812879517678376    0.0313227216358325
  70 2    8.8305780899999995    4.3079392299999997    0.0261620100000000    1.1907036360488701    4.2050985692349609    1.3882582118058460
  71 2    3.0712221000000000   10.2141261399999994    3.2803941399999998    0.4920138612444958    0.6928424725585340    1.8739134201458065
  72 2    7.0356257600000003    0.4958538800000000   10.2378326499999996    0.3239754075144957   -0.4839080149278454    1.3025732837354604
  73 2    3.3472604000000001    8.1563256400000004    9.8034061799999996   -0.6688276063826772    0.4750693947206488   -0.5653930246004535
  74 2    5.6974389600000004    6.8821400700000002    8.0734096399999995   -1.0071339868284237    1.2119252180326898    0.8672851907405522
  75 2    8.0485931799999992    2.7970448399999999    5.0298017300000000    1.4688427980011021    1.5116695120672989    1.5474481721838997
  76 2    0.3021852100000000   10.1073913500000003    2.5455883099999999   -0.0137409209863844   -2.4474107663040257    2.2603079916585385
  77 2    1.1153934400000001    7.1461635000000001    8.0700614300000009   -0.4994032768458441   -0.5556185189836561   -1.3480080468183835
  78 2    0.6031487200000000    0.8197781400000000    0.1607944700000000    1.4832708773015970   -0.3882644159041275    0.6765200975150530
  79 2    9.7410407400000008    2.2071615699999998    1.6428867199999999    1.5446100877456930    1.2795418242868566   -1.2063768293212436
  80 2    6.9329835900000001    5.7775663300000000   10.2127439399999993   -2.9792207795230832    0.3828339574789550   -2.2532339002445019
  81 2    0.4413329300000000    3.4393040099999999    4.9126227699999996   -1.6715209939127120   -1.8536424276046748    6.3468674059890855
  82 2    6.2104950800000003    4.9301905499999998    2.8262671699999999    0.6369468865328036   -0.0325388193541936   -0.2226630290165406
  83 2    9.7264287500000002   10.0820245100000001    9.0428253200000004   -2.0078213291378431    0.1510987647387223   -2.9116916799866890
  84 2    1.5449955200000001    3.6458910300000000   10.0669020200000006    2.5636324461219071   -1.5680648606597085   -2.6131222153584663
  85 2    3.4866860300000000    7.3412674700000000    5.9582810100000003    1.1353242360588114    2.2126521325498820   -0.3940423384463262
  86 2    1.1235467100000001    3.1292215600000000    2.9788549400000002    0.3027900125730972   -1.8531735436558758   -4.5039677235968121
  87 2    8.4392817400000002    0.1819419400000000    5.8820224500000000    2.9383220477003293   -0.8176180437733123    3.3972443295261066
  88 2    5.3682652300000004    0.5115820599999999    1.2046327699999999    0.2951023887371300   -3.9497457377551384    2.7651482602644530
  89 2    8.0774973800000005    8.5162950500000001   10.2922670800000002   -0.8699283437120213    0.4911540753935557   -2.0774279782250731
  90 2    9.5140077999999999    5.8985431400000001    9.1500391800000003   -0.3781762168561114    1.9613208978186718    0.1983106823454994
  91 2    8.2219958599999998    2.5738912699999998    8.9791284400000002   -0.3151445619548079    1.5506143418790885   -1.0619409161952609
  92 2    3.9301748999999999   10.0729433299999993    7.4269552100000000   -1.4325166891020240    0.3565064772626734   -2.2088499080407784
  93 2    3.2190650199999999    7.1542058099999997    1.0534665200000000   -1.2466728957098574    1.8003605519458485   -0.6664309748107512
  94 2    6.3645665700000000    2.0810346100000001    7.3590762900000000   -0.9625067615859704   -2.7310147768757957   -1.9695525299927139
  95 2    6.7014198299999999    1.0770554000000001    3.4241068800000001   -3.5401154578006517    1.6691486980886894    0.5965065574803682
  96 2    9.3346107899999993    0.8531612900000000    3.4202645000000000    0.0013964816007596   -1.7144904339786347    1.5010982474123775
ITEM: TIMESTEP
1
ITEM: NUMBER OF ATOMS
96
ITEM: BOX BOUNDS pp pp pp
0.0000000000000000e+00 1.1107390000000001e+01
0.0000000000000000e+00 1.1107390000000001e+01
0.0000000000000000e+00 1.1107390000000001e+01
ITEM: ATOMS id type x y z fx fy fz
   1 1   10.8864808236844350    8.4520565076557954    3.7529086081536613    2.4950917146857821   -0.7286554773335605   -3.9123723955873850
   2 1    2.7707205986447256   10.2767777585494784    5.4031507983711000   -4.2505569042382607   -0.1949953525213659   -1.2704565365253775
   3 1    5.2607241872514159    5.8858366345336384    6.3493066543223842   -3.5224218433519008    1.2031442486769564   -1.7486057093034413
   4 1    2.3245875957184605    3.2894246624933401    4.5889201080007371    1.2261836854311468    0.1707585768090836   -0.6959030210783832
   5 1    4.2081193614484027    6.7828180211500353    2.6572590729911765   -0.3600354303371155   -1.3302368127082438    2.2525555278510785
   6 1    4.2425455076411742    9.9334227185874600    9.3843561020045527   -3.3448183729292325    2.5815465039719125    0.6367684642483484
   7 1    0.1179214676419813    0.0569478814698729    9.2516394806389108    1.1443099518496780   -0.1927344956820907    5.2287117847376390
   8 1    0.6001078745284385    2.3350603336555182    7.0599511604473690   -0.1208485748170967    2.0214044876459258   -4.2535030596678940
   9 1    1.2368658093280518    5.4594320826534402    9.2403225769269781   -4.2477304251237200    2.8462388323239667    1.5941051368986636
  10 1    6.5458267117211797    3.3019451201256418    3.9799174359435376   -3.8256290326141049   -0.2654309686332444   -1.4596901462367362
  11 1    5.3368137874356298    0.1949592577020397    6.8035134710434821    1.6491246263784110    4.1879670168585132    0.4178429290513925
  12 1    3.5550685401809630    3.7961093885915762    8.7181251619211739   -0.0433549784402767   -3.7097941480351109   -3.2805206909732965
  13 1    7.4207883450838796    7.1811586328463823    8.9588333821866186    3.7417763821950993    2.3985995910157265    0.3455365283522776
  14 1    5.1395923961303263    1.8026644060335093   10.9861555955530168    2.2310273605205455    1.1562316733816680   -1.3356597281263973
  15 1    9.6002321325597126    6.0179228626409191    6.9586895012438932    3.4413994082641581    1.3599671339925021    2.4691252308303633
  16 1    1.6393130068997102    6.7944123933634559    6.2062418164077302    1.9776455643924193   -2.0296266996481247   -0.8191115881331538
  17 1    9.9791821042975997    6.2522525787763223    0.0634899540385034   -0.6679033012212350   -0.2235409501440240    1.8769718103123263
  18 1    1.4521949050675083    2.5198940572038797    0.5872816319211466    0.9948915619937044    1.8571527997249451    2.6070098416311973
  19 1    9.9781776642190891    9.7840605115978558    6.6986868494567888   -1.8550813754127333   -0.1733769866259149    1.6366112744289749
  20 1    1.5439391706976457    6.2395241805950228    1.9095295176913099   -9.5937466805469036   -0.3497992734563387   -7.1011852890109735
  21 1   10.1447208670687079    0.1314774927396044    1.7053255128551525    1.6404579903263166    0.9973842561360828   -1.2400153063962343
  22 1    7.2394627583885072    8.0323500054453305    4.1694936252981831    0.2313741180218357   -0.6821489220339192    1.4002625840035341
  23 1    8.3206013952327513    0.5598709538586860    8.6545456286718281   -3.2499411845593285    1.1602047534125426    0.8023979523713098
  24 1    6.8773318732804167    5.3316079823465685    0.9820343224094333    4.0806329353099331   -1.2324684021191887    0.4766939834376863
  25 1    4.5572728829869042    6.4208496191423130   10.2800752263655877    0.6373214155983593    2.2268201255681332   -1.1825291978261832
  26 1    1.9670596280984338    8.9902840600334670    0.0421089154297805    4.4236725859134420   -4.7860773360816733    2.5248234179911733
  27 1    7.4183607017847732    3.6288695157882045    7.2694252270647342   -0.5955583481817381   -2.9336555786149403    1.1046380400061615
  28 1    4.5355444116991670    0.6787892562588064    3.1216271416263455   -0.6372253414665887    0.3665464558709395   -3.6920043884849103
  29 1    6.9894967669181671    9.6084615819391033    0.3799047019742102    1.7229310347736619    0.9549910224425341    0.0713060387955045
  30 1    8.6145562447734108    2.4934112342867820    0.1107822918265913   -5.5959256874531782   -0.8153810203287065   -2.0794119200905312
  31 1    7.7280752338739065   10.7545033181538940    4.2086662257605001    3.2149482065923749    3.1980609658679060   -0.1991389359012445
  32 1    9.9911502696265195    2.9730157655861755    3.4543854414169792    3.1781626510757643   -0.4319794325207246    3.3229922632836448
  33 2    0.8943792159267929   10.6799755097960105    7.5625186603410617    0.8801164022361029   -0.9706420968434610   -1.5371541624665310
  34 2    6.7065598967960822    9.5522642091338135    5.4502582893568903   -1.3834938609386114   -1.8280094550844388   -2.1660968663559732
  35 2    4.2585694147941435    1.3661331024288166    9.2412351476427794   -0.0795268783295793   -0.3952139089839528   -2.4082565812598129
  36 2    6.6087574147498405   10.6162466372868192    7.8390612422706809    3.3312978049738815   -2.2286337898784123    2.5886089793692646
  37 2    3.1323534259168837   10.4752962205809350    0.0418684396432212    0.9401718589499739    0.8517135846227656   -1.9063943047485512
  38 2   10.8922198721672139    7.2752638787745170    2.1153138098072279   -2.6678354596200977    0.0578905418656578   -0.1102376567840584
  39 2    9.1161839587281488    9.1590628039847743    4.4358114221145417   -0.2984972721487571   -1.6899715386524079    0.1484976466098830
  40 2    0.4468289105766848    4.7137038921675920    0.6759443991935337   -2.0894600823484888   -0.8200508642017216    1.3013904204561011
  41 2    5.6427305321826200    4.3958370215468179    7.4735947567879997   -0.9863296325812808   -1.1311768883986142    2.6924687426655733
  42 2    1.8660370578805279    1.1467018033889562    5.4623104186919225    0.8558680192191127   -0.2024955537609112    0.7030086478382466
  43 2    0.2409161357626885    8.9559287034820692   10.9405896359257255   -5.6411421729483360    2.5377205312390743   -2.1329222250079867
  44 2    9.0549890267798858    8.0777956130541995    7.6285954658794166    0.4355818237955453   -0.7647388452530894   -2.8794109501663803
  45 2    9.7274660663748840    1.1993659097359417   10.4118639135575677    0.1544831453797422   -2.3209087671910096   -2.0724946412204539
  46 2    4.3999048929805493   11.0710680705570006    5.0150900217400460    3.3451809390932428    1.7547097420658531    1.0136050940799430
  47 2    5.9933174090934029    6.6282878208103462    4.6501614620626679   -0.5319231529663175    1.2426182277180118   -1.3051376809351374
  48 2    6.5650745069932217    2.9966122284172338    0.8427670114542620    1.1540665952365778    1.2685027462619098   -0.4301671829338863
  49 2   10.8565444710634349    6.4893880333963816    5.4363239629582081   -0.6558519849133220    0.8521530514491332    0.2075623013745617
  50 2    1.8786820121866976    7.3638446373504616    3.3350506214420248    0.9719109585211841    4.0825172501371343    4.9687973242412475
  51 2    5.3580477936942899    6.6558448370640759    1.0443842046472711    1.3917785057798597   -0.8524433939870806    0.2251732568156561
  52 2    3.3223432079056456    1.8848838192947730    0.3788700431102639   -3.4764662739701491    2.5963012088421737    1.5406319733256755
  53 2    5.6171887276806345    8.9827454836054272   10.0517206067940137    3.1847928897294917   -2.4156401439438007    1.4964663277762509
  54 2    3.9989949124213409    2.5484424194200077    2.9898618294862613   -0.0013409370120942   -1.7014364581772643    2.2018849403140823
  55 2    2.2599230745912098    3.2715699681958679    7.2075267864249755    0.6749098793301379   -2.3540034746999332    1.5019781787423312
  56 2    8.1792542179365739    7.0686684978152527    0.8450115906067299    1.6843039367979378   -4.1500994856708200    1.9749984936401677
  57 2    8.7425861516373917   10.1592282007753205    1.1649277222241106   -0.8231074616621867    0.0744642198865142   -0.3630830704217697
  58 2    7.6951766661973826    5.7511858858037854    6.5577528978787756    0.2324557721288948   -0.7432651884090324    0.3314172964413037
  59 2    2.8475572679477903    5.3272584203060847    2.5844177345466219    8.5512707499825975   -5.3893557752634855    3.8798718028207064
  60 2   11.0615036916520193    4.5431415870836220    7.8899374964569917   -0.1203128749639149   -1.1389510021116287   -2.1025420120155962
  61 2    7.0943242764685142    8.7869825420282002    2.4437176574142376   -2.0235822424131840    0.6165415711000336    1.0321147280259517
  62 2    2.7516309406234001    5.0456109507367577    5.9805059398912146   -0.7591927519623152    0.8395945344775219   -1.3751376995992313
  63 2    0.2920435578040879    9.0772226805233078    5.5950796391858120    2.8771178771269783    0.2182355585035061   -0.0744861248072284
  64 2    3.1479128596322652    5.7996693660510514    9.0687849485867460   -0.1774837109821665   -2.3876720259204034   -1.7509552621536930
  65 2   10.2880812248220366    1.2237553290636778    7.9040825764398184   -1.0651494827577932    1.4354526937561456   -0.9721671010416023
  66 2    4.7089250857199598    4.2235210262133291   10.0291004989400054    2.8697097428107510    1.2307720200382510    4.7541431464668582
  67 2    1.1654551125850821    6.6479012039877396   11.0000968730584336   -1.1389607803656674    1.0027297939762836   -3.2643873642602106
  68 2    9.8648384022413023    4.7314142390249092    3.7618679943117832   -2.5701680617897078    2.2877883352200681   -1.1362641454809150
  69 2    5.1040383392118880    3.9901309625378807    5.0928417771200554    1.3579662145886733   -0.0987165063820786    0.1252055327421396
  70 2    8.8455091949214282    4.2944938879270866    0.0295096364787343    1.0892331633703309    4.7797437050258127    1.2420211331660203
  71 2    3.0583905758229082   10.2106338896685251    3.2942438397251368    0.6080285471886697    0.7187107861782366    1.8921029574586383
  72 2    7.0761181538693139    0.5152441704903964   10.2367434909724242   -0.1836277101886891   -0.6427095084678708    1.7614915353388849
  73 2    3.3674297072791983    8.1453456726024687    9.8014599694881817   -0.8666439756274633    0.6453742548646688   -0.5334701240317419
  74 2    5.7054009290713212    6.8956650658947716    8.0831764309753975   -1.2824062707252717    0.8761357693102010    0.5925244245284425
  75 2    8.0591786685505102    2.8127569621352442    5.0096491192332939    1.3369545020390494    1.5638324914168349    1.5784889929605590
  76 2    0.3035270928433635   10.0985064234918518    2.5378186072080706   -0.1241923876380131   -2.3851168975284089    2.2978862131040643
  77 2    1.1223423467776055    7.1425299870769861    8.0448573830141061   -0.5910537279487897   -0.3084717074440354   -0.9638702985318317
  78 2    0.6127677656978232    0.8037521723892221    0.1730710841721103    1.2816373760520268   -0.3251580182956354    0.5614382534247027
  79 2    9.7367980824038813    2.2143477566335359    1.6473330969402606    1.5589910892592755    1.0310261487118098   -1.2944325155741083
  80 2    6.9480057247942204    5.8097813971530270   10.2181472631907155   -3.2077503810004666   -0.2538653153537681   -1.9933127632930592
  81 2    0.4301393690247155    3.4369473712879590    4.9184731515504607   -1.4212210646206624   -1.9326315804958192    6.2386408681493073
  82 2    6.1986669399126448    4.9022537481726207    2.8277147310605177    0.7032932122917162    0.4196536877420556   -0.6676662754125464
  83 2    9.7286772420567971   10.0920467443139685    9.0402911197167697   -2.0577225431590467   -0.0445071207227175   -2.8117851250019399
  84 2    1.5247411744274273    3.6643140547340094   10.0644526211824008    2.7922990800497125   -2.1301232937019421   -2.5038975097097902
  85 2    3.4959600716072767    7.3411380707321818    5.9414093612529797    0.9638865664752813    2.1234130598830361   -0.3642594010039225
  86 2    1.1243574124068834    3.1397401432337393    2.9739230181654306    0.3163144680980513   -1.8013828123614835   -4.3474543477200047
  87 2    8.4330862037627199    0.2015607213585905    5.8849513162483840    2.8430534612781413   -1.0312804418407178    3.1498799871263294
  88 2    5.3768912985421089    0.5058715038288087    1.2199196303409621    0.2243931766050062   -3.6314618269887311    2.3087939432141269
  89 2    8.0666608704173122    8.5213292899447666   10.2828746573560323   -0.8953467350837904    0.6197639181191847   -1.6787217644753367
  90 2    9.5164008924014638    5.9098011923204670    9.1436245695350920   -0.5404557859471288    1.9028533899966733    0.2212102334324574
  91 2    8.2099588460865380    2.5469872355642091    8.9878834604590558   -0.4277593555848758    2.1688116339783248   -1.3340742342551173
  92 2    3.9395448373693256   10.0757724168049059    7.4188884088068985   -1.6447227306580863    0.1726254644910381   -1.9582859702688546
  93 2    3.2076767916111537    7.1643574343652681    1.0550386928680178   -0.8845594950035064    1.8381756022489892   -0.5057144205805361
  94 2    6.3388660843371483    2.0717161970519777    7.3521947872118742   -0.6174359261956867   -2.1625289077633636   -1.9655652058193640
  95 2    6.7021937627460142    1.0841252120316880    3.4304455821134781   -3.5887460459358076    1.5214128835069141    0.5529380840928502
  96 2    9.3354966344225687    0.8555436441225883    3.4277777910475571    0.0922277389741046   -1.7056924000679525    1.3263186327057295
ITEM: TIMESTEP
2
ITEM: NUMBER OF ATOMS
96
ITEM: BOX BOUNDS pp pp pp
0.0000000000000000e+00 1.1107390000000001e+01
0.0000000000000000e+00 1.1107390000000001e+01
0.0000000000000000e+00 1.1107390000000001e+01
ITEM: ATOMS id type x y z fx fy fz
   1 1   10.8858345527482161    8.4477892544457145    3.7536855278743890    2.4982507562882721   -0.9158138666996067   -4.4193437090768954
   2 1    2.7729937086374155   10.2729763142483872    5.4011563193033991   -3.8537843400294554   -0.0416273158089236   -1.3814934437690420
   3 1    5.2551500618954714    5.8813608742717696    6.3511278862783920   -3.5163322498156404    1.4985783115465052   -1.8620485140239262
   4 1    2.3258286252276639    3.2965027394931026    4.5870554969429538    0.9398281353385303    0.1938856235588683   -0.7549733558789288
   5 1    4.2055808792671554    6.7774140214706398    2.6622460138332271   -0.2593497513292505   -1.0480537236332348    2.2076873458102781
   6 1    4.2366256530926245    9.9355753575365267    9.3867142267374444   -3.4277758449577815    2.5982266230904032    0.4758467760894716
   7 1    0.1216304146361584    0.0517970315579016    9.2483046048987489    0.8501405230844590    0.2444989471396850    5.6175761855777786
   8 1    0.6040156185728183    2.3368661982067036    7.0649417944846293   -0.4604488330164744    1.9568198100605054   -4.3559797446727542
   9 1    1.2384777524283401    5.4617727140930814    9.2442691276566880   -4.6470284572797862    3.0513328446912662    1.7786852074514836
  10 1    6.5328819264686375    3.3084182455765556    3.9733825626488875   -3.4083227536914942   -0.7354934304037766   -1.1712983996220825
  11 1    5.3382345014361441    0.1900945892396110    6.8061283306254614    1.9492066979959652    4.3116074791255414    0.2603551596749654
  12 1    3.5512648846465265    3.7934364775009879    8.7113956869083431   -0.2500085148707241   -3.6479527389558344   -3.3904537115237936
  13 1    7.4190551062621646    7.1791354242926255    8.9683977481236266    4.1948981668332976    2.8943178464938981   -0.2349810710984370
  14 1    5.1478381681752339    1.8064246558931794   10.9882899912957175    1.7082326205260154    0.8718104478792907   -0.9932732550027673
  15 1    9.5962969826928539    6.0183247604640817    6.9597373751473341    3.9656157128667133    1.5062106061906471    2.5587054315699991
  16 1    1.6342509454518539    6.7897696898014264    6.2081934556496181    2.3167930691573262   -2.0068669677285067   -1.2706117033959381
  17 1    9.9810677251722062    6.2492498720701857    0.0687167733475700   -0.3593385509642664   -0.2058230806645793    1.9077330623995201
  18 1    1.4555293322565424    2.5188289748592321    0.5804358856921771    0.6914643607456754    1.8792604826798751    2.5584877813857689