96
 Atoms. Timestep: 0
1   10.8872619700000008    8.4562843700000005    3.7519201999999998
1    2.7682177200000000   10.2805686600000001    5.4050766000000001
1    5.2661078999999997    5.8903774300000000    6.3473908999999997
1    2.3234128500000000    3.2823558199999998    4.5907470999999997
1    4.2106383799999998    6.7881501100000001    2.6523938999999999
1    4.2482845500000002    9.9314096299999992    9.3820323999999999
1    0.1142743800000000    0.0620883100000000    9.2552570000000003
1    0.5961936000000000    2.3333637399999998    7.0547306000000001
1    1.2350242499999999    5.4572453100000002    9.2364622000000001
1    6.5585646899999999    3.2954576499999999    3.9863734000000002
1    5.3354822200000003    0.2000503100000000    6.8009212000000003
1    3.5588698499999998    3.7985817599999998    8.7246772999999997
1    7.4227238499999997    7.1833115000000003    8.9492876999999993
1    5.1314672300000002    1.7989666600000001   10.9839490000000009
1    9.6043533100000005    6.0175944799999996    6.9577751000000001
1    1.6444819700000000    6.7989453800000001    6.2042459000000001
1    9.9772603800000006    6.2552431999999998    0.0583646000000000
1    1.4489142600000000    2.5210595300000000    0.5942683000000000
1    9.9731027799999996    9.7864869599999995    6.7025277000000001
1    1.5403115300000001    6.2348670200000003    1.9041433999999999
1   10.1504474800000004    0.1355879100000000    1.7069723000000001
1    7.2382545399999998    8.0330458300000007    4.1684805999999996
1    8.3199954799999993    0.5598223400000000    8.6503259000000003
1    6.8774039900000004    5.3320168199999998    0.9926531000000000
1    4.5566227000000001    6.4139282599999996   10.2857575000000008
1    1.9637026900000001    8.9887812000000000    0.0439998000000000
1    7.4158237199999997    3.6301289699999999    7.2695812999999996
1    4.5377032599999998    0.6808431300000000    3.1163341000000000
1    6.9858429900000001    9.6046346600000003    0.3723487000000000
1    8.6115279200000003    2.4922300700000002    0.1118609000000000
1    7.7270777800000001   10.7591459999999994    4.2118387000000004
1    9.9888031799999997    2.9678138600000001    3.4581238000000001
2    0.8992960600000000   10.6864644599999998    7.5390086700000003
2    6.7075754400000003    9.5422469000000003    5.4586596199999997
2    4.2623142899999999    1.3604461200000000    9.2361252300000007
2    6.5996505900000004   10.6072639899999999    7.8373401700000001
2    3.1314888000000001   10.4900214900000002    0.0162407800000000
2   10.9008224200000008    7.2841989299999996    2.1318183700000000
2    9.0988866500000007    9.1267366499999998    4.4419974299999998
2    0.4414378900000000    4.7006667699999998    0.6985599700000000
2    5.6597280300000001    4.4100263699999998    7.4915150300000004
2    1.8611853700000001    1.1568000100000000    5.4640654700000004
2    0.2583514500000000    8.9755244199999993   10.9068411899999997
2    9.0548527399999994    8.0792885600000002    7.6211215000000001
2    9.7293191100000005    1.1732500600000000   10.4309134100000005
2    4.3930576099999996   11.0582403500000002    5.0160466699999997
2    6.0054828699999998    6.6232011499999999    4.6454218400000000
2    6.5573901899999996    2.9991108199999998    0.8416408200000000
2   10.8289244000000000    6.5058321299999999    5.4410252999999997
2    1.8983061600000000    7.3741918899999996    3.3560855599999999
2    5.3609917800000000    6.6518150100000000    1.0310178200000000
2    3.3383210700000001    1.8896659400000000    0.3776929100000000
2    5.6323954100000000    8.9796486000000009   10.0535500500000001
2    4.0083879199999997    2.5170635300000002    2.9854359499999998
2    2.2748493399999998    3.2579365500000002    7.2145859100000003
2    8.1754375699999997    7.0892364600000004    0.8372943900000001
2    8.7372767899999992   10.1572731899999997    1.1427389500000000
2    7.6721479600000002    5.7576417900000001    6.5717552699999997
2    2.8573021000000001    5.3058821299999996    2.5846852100000000
2   11.0496160200000002    4.5237725900000001    7.8645253999999998
2    7.0974205000000001    8.7987293199999996    2.4469050299999999
2    2.7639507100000000    5.0433260899999999    6.0009321699999996
2    0.3105592900000000    9.0883059700000004    5.6079435999999996
2    3.1714078699999999    5.7927073699999996    9.0546962299999993
2   10.2930971299999996    1.2217674700000001    7.9251554200000003
2    4.7185160200000000    4.2404048599999999   10.0406465899999997
2    1.1462654299999999    6.6556243999999998   11.0138255699999998
2    9.8782392199999993    4.7216192000000001    3.7816931999999999
2    5.0942635799999998    3.9785664700000001    5.0894828499999996
2    8.8305780899999995    4.3079392299999997    0.0261620100000000
2    3.0712221000000000   10.2141261399999994    3.2803941399999998
2    7.0356257600000003    0.4958538800000000   10.2378326499999996
2    3.3472604000000001    8.1563256400000004    9.8034061799999996
2    5.6974389600000004    6.8821400700000002    8.0734096399999995
2    8.0485931799999992    2.7970448399999999    5.0298017300000000
2    0.3021852100000000   10.1073913500000003    2.5455883099999999
2    1.1153934400000001    7.1461635000000001    8.0700614300000009
2    0.6031487200000000    0.8197781400000000    0.1607944700000000
2    9.7410407400000008    2.2071615699999998    1.6428867199999999
2    6.9329835900000001    5.7775663300000000   10.2127439399999993
2    0.4413329300000000    3.4393040099999999    4.9126227699999996
2    6.2104950800000003    4.9301905499999998    2.8262671699999999
2    9.7264287500000002   10.0820245100000001    9.0428253200000004
2    1.5449955200000001    3.6458910300000000   10.0669020200000006
2    3.4866860300000000    7.3412674700000000    5.9582810100000003
2    1.1235467100000001    3.1292215600000000    2.9788549400000002
2    8.4392817400000002    0.1819419400000000    5.8820224500000000
2    5.3682652300000004    0.5115820599999999    1.2046327699999999
2    8.0774973800000005    8.5162950500000001   10.2922670800000002
2    9.5140077999999999    5.8985431400000001    9.1500391800000003
2    8.2219958599999998    2.5738912699999998    8.9791284400000002
2    3.9301748999999999   10.0729433299999993    7.4269552100000000
2    3.2190650199999999    7.1542058099999997    1.0534665200000000
2    6.3645665700000000    2.0810346100000001    7.3590762900000000
2    6.7014198299999999    1.0770554000000001    3.4241068800000001
2    9.3346107899999993    0.8531612900000000    3.4202645000000000
96
 Atoms. Timestep: 1
1   10.8864808236844350    8.4520565076557954    3.7529086081536613
1    2.7707205986447256   10.2767777585494784    5.4031507983711000
1    5.2607241872514159    5.8858366345336384    6.3493066543223842
1    2.3245875957184605    3.2894246624933401    4.5889201080007371
1    4.2081193614484027    6.7828180211500353    2.6572590729911765
1    4.2425455076411742    9.9334227185874600    9.3843561020045527
1    0.1179214676419813    0.0569478814698729    9.2516394806389108
1    0.6001078745284385    2.3350603336555182    7.0599511604473690
1    1.2368658093280518    5.4594320826534402    9.2403225769269781
1    6.5458267117211797    3.3019451201256418    3.9799174359435376
1    5.3368137874356298    0.1949592577020397    6.8035134710434821
1    3.5550685401809630    3.7961093885915762    8.7181251619211739
1    7.4207883450838796    7.1811586328463823    8.9588333821866186
1    5.1395923961303263    1.8026644060335093   10.9861555955530168
1    9.6002321325597126    6.0179228626409191    6.9586895012438932
1    1.6393130068997102    6.7944123933634559    6.2062418164077302
1    9.9791821042975997    6.2522525787763223    0.0634899540385034
1    1.4521949050675083    2.5198940572038797    0.5872816319211466
1    9.9781776642190891    9.7840605115978558    6.6986868494567888
1    1.5439391706976457    6.2395241805950228    1.9095295176913099
1   10.1447208670687079    0.1314774927396044    1.7053255128551525
1    7.2394627583885072    8.0323500054453305    4.1694936252981831
1    8.3206013952327513    0.5598709538586860    8.6545456286718281
1    6.8773318732804167    5.3316079823465685    0.9820343224094333
1    4.5572728829869042    6.4208496191423130   10.2800752263655877
1    1.9670596280984338    8.9902840600334670    0.0421089154297805
1    7.4183607017847732    3.6288695157882045    7.2694252270647342
1    4.5355444116991670    0.6787892562588064    3.1216271416263455
1    6.9894967669181671    9.6084615819391033    0.3799047019742102
1    8.6145562447734108    2.4934112342867820    0.1107822918265913
1    7.7280752338739065   10.7545033181538940    4.2086662257605001
1    9.9911502696265195    2.9730157655861755    3.4543854414169792
2    0.8943792159267929   10.6799755097960105    7.5625186603410617
2    6.7065598967960822    9.5522642091338135    5.4502582893568903
2    4.2585694147941435    1.3661331024288166    9.2412351476427794
2    6.6087574147498405   10.6162466372868192    7.8390612422706809
2    3.1323534259168837   10.4752962205809350    0.0418684396432212
2   10.8922198721672139    7.2752638787745170    2.1153138098072279
2    9.1161839587281488    9.1590628039847743    4.4358114221145417
2    0.4468289105766848    4.7137038921675920    0.6759443991935337
2    5.6427305321826200    4.3958370215468179    7.4735947567879997
2    1.8660370578805279    1.1467018033889562    5.4623104186919225
2    0.2409161357626885    8.9559287034820692   10.9405896359257255
2    9.0549890267798858    8.0777956130541995    7.6285954658794166
2    9.7274660663748840    1.1993659097359417   10.4118639135575677
2    4.3999048929805493   11.0710680705570006    5.0150900217400460
2    5.9933174090934029    6.6282878208103462    4.6501614620626679
2    6.5650745069932217    2.9966122284172338    0.8427670114542620
2   10.8565444710634349    6.4893880333963816    5.4363239629582081
2    1.8786820121866976    7.3638446373504616    3.3350506214420248
2    5.3580477936942899    6.6558448370640759    1.0443842046472711
2    3.3223432079056456    1.8848838192947730    0.3788700431102639
2    5.6171887276806345    8.9827454836054272   10.0517206067940137
2    3.9989949124213409    2.5484424194200077    2.9898618294862613
2    2.2599230745912098    3.2715699681958679    7.2075267864249755
2    8.1792542179365739    7.0686684978152527    0.8450115906067299
2    8.7425861516373917   10.1592282007753205    1.1649277222241106
2    7.6951766661973826    5.7511858858037854    6.5577528978787756
2    2.8475572679477903    5.3272584203060847    2.5844177345466219
2   11.0615036916520193    4.5431415870836220    7.8899374964569917
2    7.0943242764685142    8.7869825420282002    2.4437176574142376
2    2.7516309406234001    5.0456109507367577    5.9805059398912146
2    0.2920435578040879    9.0772226805233078    5.5950796391858120
2    3.1479128596322652    5.7996693660510514    9.0687849485867460
2   10.2880812248220366    1.2237553290636778    7.9040825764398184
2    4.7089250857199598    4.2235210262133291   10.0291004989400054
2    1.1654551125850821    6.6479012039877396   11.0000968730584336
2    9.8648384022413023    4.7314142390249092    3.7618679943117832
2    5.1040383392118880    3.9901309625378807    5.0928417771200554
2    8.8455091949214282    4.2944938879270866    0.0295096364787343
2    3.0583905758229082   10.2106338896685251    3.2942438397251368
2    7.0761181538693139    0.5152441704903964   10.2367434909724242
2    3.3674297072791983    8.1453456726024687    9.8014599694881817
2    5.7054009290713212    6.8956650658947716    8.0831764309753975
2    8.0591786685505102    2.8127569621352442    5.0096491192332939
2    0.3035270928433635   10.0985064234918518    2.5378186072080706
2    1.1223423467776055    7.1425299870769861    8.0448573830141061
2    0.6127677656978232    0.8037521723892221    0.1730710841721103
2    9.7367980824038813    2.2143477566335359    1.6473330969402606
2    6.9480057247942204    5.8097813971530270   10.2181472631907155
2    0.4301393690247155    3.4369473712879590    4.9184731515504607
2    6.1986669399126448    4.9022537481726207    2.8277147310605177
2    9.7286772420567971   10.0920467443139685    9.0402911197167697
2    1.5247411744274273    3.6643140547340094   10.0644526211824008
2    3.4959600716072767    7.3411380707321818    5.9414093612529797
2    1.1243574124068834    3.1397401432337393    2.9739230181654306
2    8.4330862037627199    0.2015607213585905    5.8849513162483840
2    5.3768912985421089    0.5058715038288087    1.2199196303409621
2    8.0666608704173122    8.5213292899447666   10.2828746573560323
2    9.5164008924014638    5.9098011923204670    9.1436245695350920
2    8.2099588460865380    2.5469872355642091    8.9878834604590558
2    3.9395448373693256   10.0757724168049059    7.4188884088068985
2    3.2076767916111537    7.1643574343652681    1.0550386928680178
2    6.3388660843371483    2.0717161970519777    7.3521947872118742
2    6.7021937627460142    1.0841252120316880    3.4304455821134781
2    9.3354966344225687    0.8555436441225883    3.4277777910475571
96
 Atoms. Timestep: 2
1   10.8858345527482161    8.4477892544457145    3.7536855278743890
1    2.7729937086374155   10.2729763142483872    5.4011563193033991
1    5.2551500618954714    5.8813608742717696    6.3511278862783920
1    2.3258286252276639    3.2965027394931026    4.5870554969429538
1    4.2055808792671554    6.7774140214706398    2.6622460138332271
1    4.2366256530926245    9.9355753575365267    9.3867142267374444
1    0.1216304146361584    0.0517970315579016    9.2483046048987489
1    0.6040156185728183    2.3368661982067036    7.0649417944846293
1    1.2384777524283401    5.4617727140930814    9.2442691276566880
1    6.5328819264686375    3.3084182455765556    3.9733825626488875
1    5.3382345014361441    0.1900945892396110    6.8061283306254614
1    3.5512648846465265    3.7934364775009879    8.7113956869083431
1    7.4190551062621646    7.1791354242926255    8.9683977481236266
1    5.1478381681752339    1.8064246558931794   10.9882899912957175
1    9.5962969826928539    6.0183247604640817    6.9597373751473341
1    1.6342509454518539    6.7897696898014264    6.2081934556496181
1    9.9810677251722062    6.2492498720701857    0.0687167733475700
1    1.4555293322565424    2.5188289748592321    0.5804358856921771
1    9.9831522721192485    9.7816246897107675    6.6949344661949333
1    1.5470482094715885    6.2441624348532656    1.9145317734602896
1   10.1390829283173147    0.1274209882657605    1.7036116939705281
1    7.2406834847085495    8.0316173059545672    4.1705823443857968
1    8.3210316305037004    0.5599822842991813    8.6588087344617541
1    6.8774803410678595    5.3311325215958130    0.9714413073418353
1    4.5579575176686555    6.4278913561062891   10.2743290262582789
1    1.9706556961044595    8.9915282025270820    0.0403545128165886
1    7.4208654911979162    3.6274514778629210    7.2693288668587632
1    4.5333511160638622    0.6767551955851659    3.1267206095097353
1    6.9932436813962173    9.6123401294196889    0.3874645626722880
1    8.6172820753190855    2.4945483226191008    0.1095912774226462
1    7.7292464769986555   10.7500335095799198    4.2054829850244877
1    9.9936691607524288    2.9781943227683740    3.4508267099483785
2    0.8899931420131618   10.6729011896931141    7.5851016502240460
2    6.7047100076975088    9.5611791039023313    5.4405506433897299
2    4.2547765771487231    1.3715817458626594    9.2448927178668363
2    6.6198732543676799   10.6238852646297204    7.8423434310731945
2    3.1337850429034346   10.4610845869835138    0.0663464218937316
2   10.8820084247925060    7.2663637347351457    2.0987427593425734
2    9.1333012618926901    9.1903698026177025    4.4297149654705716
2    0.4509598408841603    4.7262464724568920    0.6541136470109316
2    5.6251381979623920    4.3809654850297601    7.4572982240967267
2    1.8714048978126105    1.1364814719607705    5.4609793306993515
2    0.2200788013920299    8.9378634023666965   10.9730517964730794
2    9.0553880004979579    8.0758414732938064    7.6343329460042915
2    9.7257061860658816    1.2240821006051741   10.3915645447197331
2    4.4087695621000940   11.0849540131462838    5.0147446490149665
2    5.9808311539232282    6.6341238817230010    4.6541139957658118
2    6.5734548125818701    2.9948786329566031    0.8436337820815351
2   10.8837690319198064    6.4734578366951050    5.4317477981712559
2    1.8596439850671931    7.3559594276558968    3.3170122099451960
2    5.3559431473277623    6.6593605822736972    1.0578863921864017
2    3.3042687802232060    1.8816674504926920    0.3809762876779316
2    5.6039026939055665    8.9843855658664040   10.0507936383554171
2    3.9896010909755488    2.5787952388020772    2.9956156048589273
2    2.2454038196664028    3.2837837621667925    7.2013734587683267
2    8.1840866232146681    7.0455977187034415    0.8539198602305178
2    8.7473991237834277   10.1612281198582668    1.1868975417492573
2    7.7183455724973564    5.7442817361970251    6.5439503862598407
2    2.8429694558189387    5.3453845570403624    2.5864900979764198
2   11.0733188126355717    4.5618237262892807    7.9140816243646519
2    7.0900076870108091    8.7756075760490333    2.4411527217591633
2    2.7388533171431368    5.0484021480373906    5.9592503925300582
2    0.2752629223793384    9.0662709965117063    5.5821707508300920
2    3.1243108009725704    5.8051914296590086    9.0818177242226614
2   10.2824229558738001    1.2266088694357233    7.8824234352416820
2    4.7010647855065395    4.2073794262903963   10.0204214884233043
2    1.1839579312962034    6.6407827211934896   10.9843995104580454
2    9.8498875826881829    4.7425889827663275    3.7413575294693477
2    5.1146320541661865    4.0016359283772429    5.0962762139485180
2    8.8610971932627898    4.2839310643088870    0.0336062920089745
2    3.0459257290797388   10.2075750712010791    3.3092346199412255
2    7.1164998295099782    0.5342468720787626   10.2367166361968973
2    3.3870763776536754    8.1347549057828274    9.7991920374218964
2    5.7125895202217682    6.9097184415271293    8.0933005617728018
2    8.0705704417319275    2.8294121953185956    4.9904484386252888
2    0.3047940795726597   10.0881830967146922    2.5314346891733495
2    1.1289348098980265    7.1387104417379437    8.0190720396719275
2    0.6231597353261148    0.7875301024856953    0.1856862923768874
2    9.7334956051269668    2.2221557294349510    1.6509988413362344
2    6.9610933659399157    5.8418433832284435   10.2223484798002477
2    0.4180887043438585    3.4334252167849426    4.9280858811058215
2    6.1872629291912933    4.8745700119816107    2.8287596426034805
2    9.7296847821057053   10.1020421431982932    9.0360612113417567
2    1.5061707728903579    3.6814524735822149   10.0604931924803598
2    3.5058154105853689    7.3422892407025895    5.9243180288275763
2    1.1253588754143562    3.1491723701409513    2.9663692689997698
2    8.4286052278306354    0.2205575779935414    5.8897797860882628
2    5.3856526969146534    0.4979709143812859    1.2365988663085852
2    8.0552843970009480    8.5267372944530262   10.2724698407392108
2    9.5184680527928567    5.9222068069773268    9.1373433610540609
2    8.1976638561690400    2.5213911341558597    8.9958339439732189
2    3.9479228949648411   10.0787056106218582    7.4096406172455955
2    3.1957551045580463    7.1756176151434659    1.0563058847903515
2    6.3127932266442963    2.0610936200066616    7.3441279048125612
2    6.7008034264545833    1.0921125482945957    3.4371177487733302
2    9.3364380992295644    0.8568973455599178    3.4360909508429001
96
 Atoms. Timestep: 3
1   10.8853233270485052    8.4434724859325048    3.7542235550916172
1    2.7750585016564102   10.2691726111585826    5.3990871570433070
1    5.2493858433709972    5.8769661118279997    6.3528484665106921
1    2.3271204613515648    3.3035913132125168    4.5851500704684156
1    4.2030283718288315    6.7719533555040767    2.6673523057580550
1    4.2305204916461845    9.9378684523713297    9.3890980793926300
1    0.1253853256049303    0.0466593868023870    9.2452733881548781
1    0.6078984811659743    2.3387778456552084    7.0696969707427755
1    1.2398384970651954    5.4642782951783380    9.2483118367718795
1    6.5197528700624936    3.3148516274057833    3.9667843583442548
1    5.3397605859283388    0.1854629802306263    6.8087572699853922
1    3.5474477059601042    3.7905663648330892    8.7044829206780800
1    7.4175486250496423    7.1772686678748707    8.9779494333474865
1    5.1561762998681795    1.8102320412432800   10.9903706989698335
1    9.5925761912690071    6.0188080796660728    6.9609235660710382
1    1.6293141103276749    6.7850184915786915    6.2100764144654708
1    9.9829339257092720    6.2462360325259079    0.0740467298009476
1    1.4589011450986946    2.5178654763600972    0.5737284269398378
1    9.9880115819102908    9.7791893610028513    6.6912775079036289
1    1.5495783276581214    6.2487821006485964    1.9190754963372254
1   10.1335682399954692    0.1234366567171468    1.7018515364508033
1    7.2419140735623397    8.0308399891455426    4.1717495982652721
1    8.3213018066265505    0.5601426216292860    8.6630888154226522
1    6.8778447234333608    5.3305862727557569    0.9608998151989594
1    4.5586648382434918    6.4350531898428489   10.2685243004010882
1    1.9744257737101341    8.9924904302976501    0.0387223859431944
1    7.4233158379090511    3.6258532676621611    7.2692856784322206
1    4.5311153038671845    0.6747699008620094    3.1316158392642786
1    6.9970828786073787    9.6162652520027070    0.3950193489943626
1    8.6196993152357138    2.4956264495557372    0.1082950239982745
1    7.7305920773853742   10.7457679993726387    4.2022976117162409
1    9.9963542349208883    2.9833585293059053    3.4474589360652081
2    0.8863057672273923   10.6650991071410317    7.6064120681842038
2    6.7020229930617843    9.5689034889247768    5.4295976179794030
2    4.2509664817026813    1.3767971400759842    9.2472047018718726
2    6.6329360394943953   10.6301388427529364    7.8472007337411354
2    3.1359483815474083   10.4475411618722696    0.0896710740406718
2   10.8701540002768127    7.2575240060181772    2.0821692169919839
2    9.1501027384204789    9.2205639913515736    4.4237231984535468
2    0.4537192245218908    4.7382430010278584    0.6331860925904575
2    5.6071008837497640    4.3654461943929119    7.4427585862673791
2    1.8772678030785990    1.1261332481408584    5.4601201022710253
2    0.1963841900224855    8.9213171195794274   11.0043391227999656
2    9.0561000795147812    8.0734685459009867    7.6382415608388419
2    9.7243825761616502    1.2472355580481811   10.3700600013919235
2    4.4194458676761901   11.0997836132642984    5.0150145566095485
2    5.9681278832689042    6.6407410909757978    4.6572069719976783
2    6.5824297092115298    2.9939073560895837    0.8441830016562233
2   10.9103847952850028    6.4580253186032976    5.4273069312165925
2    1.8412614152068079    7.3509713322912216    3.3024736049061176
2    5.3546821423498265    6.6622908110802666    1.0713394491406514
2    3.2845871449537198    1.8799600618384067    0.3839111743206500
2    5.5927519634463421    8.9846478141631607   10.0509151450411487
2    3.9803029332381361    2.6078199848347059    3.0027014879581091
2    2.2314965438028072    3.2946494656815313    7.1961215934253007
2    8.1898743048526725    7.0201435676256621    0.8639768140340928
2    8.7513709004036571   10.1630651910163952    1.2085066624748733
2    7.7413344274200604    5.7368369472432743    6.5303498972371523
2    2.8439914469598420    5.3597719070685939    2.5911477851434230
2   11.0849202614961904    4.5797002858962621    7.9367557212170468
2    7.0844966445909003    8.7646129732470541    2.4391994551979979
2    2.7256976005211970    5.0516069964091708    5.9371596127849156
2    0.2603737188617122    9.0555217655398152    5.5694169228540966
2    3.1011712754073568    5.8092189306770061    9.0937624194622924
2   10.2762143257479721    1.2302131436536150    7.8602769985046566
2    4.6950833046153502    4.1920580322644430   10.0147171018458074
2    1.2017725371644954    6.6343923485764575   10.9668580573710130
2    9.8334485271595398    4.7550617875096215    3.7201462805695447
2    5.1259063436736412    4.0131366388758343    5.0998475688389480
2    8.8772726985613541    4.2765339131888078    0.0383661649559952
2    3.0338930802374362   10.2049594242116903    3.3253657436551936
2    7.1564400553251479    0.5527646455175353   10.2380660259603982
2    3.4060773647085330    8.1246627076909679    9.7966202544411676
2    5.7188338905514309    6.9241027047512524    8.1036148542833022
2    8.0826745983099091    2.8470363964779897    4.9722069619816400
2    0.3059086111225480   10.0764761023799885    2.5264455074639778
2    1.1351050219636440    7.1348592095208545    7.9930008026506867
2    0.6342023976812827    0.7711509088929603    0.1985707919554238
2    9.7311325336949164    2.2304265592183117    1.6538364047087903
2    6.9721025145642965    5.8733315569144056   10.2255723358997077
2    0.4053443921744668    3.4286866403810374    4.9413496962517707
2    6.1763075462165276    4.8474384713486325    2.8291265979206845
2    9.7294363144899432   10.1119004318680936    9.0301946165582549
2    1.4894166491898955    3.6969591920279812   10.0551064104992314
2    3.5161495580469393    7.3446601301722376    5.9070321273314432
2    1.1265524421858875    3.1575548793857378    2.9563355518020820
2    8.4257689867967311    0.2387915452746722    5.8963349697890983
2    5.3945056782447409    0.4880912990339608    1.2543753240171587
2    8.0433711037968365    8.5325949295688002   10.2613072930123508
2    9.5201114032483787    5.9357188453920022    9.1312029168679398
2    8.1850388300036965    2.4975064415569119    9.0028270744553147
2    3.9551811207040095   10.0816272643145748    7.3993865693373539
2    3.1835078374922174    7.1880016181369264    1.0573714670710466
2    6.2865402224023610    2.0494885400004637    7.3348867272083993
2    6.6972469505274930    1.1009144456911226    3.4441079803087242
2    9.3374900718131215    0.8572425353688574    3.4450874024430811
96
 Atoms. Timestep: 4
1   10.8849466977562095    8.4390965884349836    3.7544969437375260
1    2.7769367345113833   10.2653753684097566    5.3969387337968717
1    5.2434325491296585    5.8726670651364286    6.3544627062373058
1    2.3284471002651119    3.3106921340953601    4.5831994871385149
1    4.2004698696494058    6.7664518568066532    2.6725768101542808
1    4.2242307393792125    9.9403001062575473    9.3914996889454123
1    0.1291691134439451    0.0415574716915722    9.2425678560685309
1    0.6117372615952592    2.3407908185048969    7.0742115960462675
1    1.2409249773581223    5.4669595664738662    9.2524592023318277
1    6.5064646948091189    3.3212167146856446    3.9601410578868577
1    5.3414119593364395    0.1810682928605168    6.8113946548401358
1    3.5436104246713063    3.7875038950380580    8.6973859359906669
1    7.4162936980268341    7.1755881044445688    8.9874516533974713
1    5.1645805449129183    1.8140712725138339   10.9924148274690321
1    9.5890990037811221    6.0193808718172717    6.9622536263778914
1    1.6245232324118428    6.7801605069742346    6.2118604543776152
1    9.9847961889363752    6.2432119206160124    0.0794812285306025
1    1.4622903912859586    2.5170054752266942    0.5671568690891829
1    9.9927419312978980    9.7767641318278677    6.6877224627498952
1    1.5514872442233509    6.2533736096081523    1.9230980487397671
1   10.1282130937632999    0.1195418213508934    1.7000657832874939
1    7.2431512058270728    8.0300098964143114    4.1729975757507809
1    8.3214300042084304    0.5603357823308337    8.6673559379459348
1    6.8784206110288775    5.3299650806498589    0.9504330950949471
1    4.5593842260832318    6.4423331849935286   10.2626658661950518
1    1.9783011366982699    8.9931499785982698    0.0371996307265519
1    7.4256913631912562    3.6240561925316408    7.2692882790878937
1    4.5288307509680639    0.6728562076104249    3.1363158076319078
1    7.0010126966127277    9.6202321328846097    0.4025615439125751
1    8.6218055912968712    2.4966352694039764    0.1068991865905489
1    7.7321114630805443   10.7417385656023221    4.1991185337943442
1    9.9991995517167123    2.9885202636308681    3.4442935188566941
2    0.8834794447573076   10.6564307276980319    7.6261031057463917
2    6.6985021880666036    9.5753643116732778    5.4174670846490809
2    4.2471756586996090    1.3817878676879993    9.2482973303859222
2    6.6478280680841548   10.6349902899806619    7.8536077946324978
2    3.1389967811599653   10.4347942114792058    0.1118473454450653
2   10.8566668977327101    7.2487439804855036    2.0656472651592552
2    9.1664677473848535    9.2495679080651136    4.4178518220577283
2    0.4550211225791119    4.7496611993353151    0.6132782986588080
2    5.5887543561924709    4.3493245509792064    7.4300974246098734
2    1.8836047053347915    1.1156540438544333    5.4597735532796072
2    0.1704278856582187    8.9062849848084724   11.0345415349231182
2    9.0571731920482783    8.0707199284031699    7.6402358011926257
2    9.7238107967639085    1.2686997796393811   10.3474138020489423
2    4.4317150301297890   11.1154356458676631    5.0158987420128298
2    5.9553043213970263    6.6481561024836342    4.6593810607905866
2    6.5918969988854332    2.9936801521695364    0.8443532070756836
2   10.9361638404898631    6.4430722094555968    5.4229935200237822
2    1.8235789413490540    7.3492618299699934    3.2918807187452641
2    5.3542573035245464    6.6645753912604500    1.0845667207197445
2    3.2638095541790255    1.8796902190893587    0.3875735274862217
2    5.5838761151250695    8.9836385626864050   10.0521950243407385
2    3.9711749071956484    2.6352844619818376    3.0111172827788377
2    2.2184187153053805    3.3042574899436219    7.1917617828981069