LAMMPS DATA file

256 atoms

1 atom types

0.0000000000000000e+00 2.1105598636581512e+01 xlo xhi
0.0000000000000000e+00 2.1105598636581512e+01 ylo yhi
0.0000000000000000e+00 2.1105598636581512e+01 zlo zhi

Masses

1 39.948000

Atoms

   1 1     1.3190999999999999     1.3190999999999999     1.3194999999999999
   2 1     3.9572998295726887     3.9572998295726887     1.3194999999999999
   3 1     3.9572998295726887     1.3190999999999999     3.9576998295726966
   4 1     1.3190999999999999     3.9572998295726887     3.9576998295726966
   5 1     6.5954996591453767     1.3190999999999999     1.3194999999999999
   6 1     9.2336994887180488     3.9572998295726887     1.3194999999999999
   7 1     9.2336994887180488     1.3190999999999999     3.9576998295726966
   8 1     6.5954996591453767     3.9572998295726887     3.9576998295726966
   9 1    11.8718993182907564     1.3190999999999999     1.3194999999999999
  10 1    14.5100991478634356     3.9572998295726887     1.3194999999999999
  11 1    14.5100991478634356     1.3190999999999999     3.9576998295726966
  12 1    11.8718993182907564     3.9572998295726887     3.9576998295726966
  13 1    17.1482989774361165     1.3190999999999999     1.3194999999999999
  14 1    19.7864988070088366     3.9572998295726887     1.3194999999999999
  15 1    19.7864988070088366     1.3190999999999999     3.9576998295726966
  16 1    17.1482989774361165     3.9572998295726887     3.9576998295726966
  17 1     1.3190999999999999     6.5954996591453767     1.3194999999999999
  18 1     3.9572998295726887     9.2336994887180488     1.3194999999999999
  19 1     3.9572998295726887     6.5954996591453767     3.9576998295726966
  20 1     1.3190999999999999     9.2336994887180488     3.9576998295726966
  21 1     6.5954996591453767     6.5954996591453767     1.3194999999999999
  22 1     9.2336994887180488     9.2336994887180488     1.3194999999999999
  23 1     9.2336994887180488     6.5954996591453767     3.9576998295726966
  24 1     6.5954996591453767     9.2336994887180488     3.9576998295726966
  25 1    11.8718993182907564     6.5954996591453767     1.3194999999999999
  26 1    14.5100991478634356     9.2336994887180488     1.3194999999999999
  27 1    14.5100991478634356     6.5954996591453767     3.9576998295726966
  28 1    11.8718993182907564     9.2336994887180488     3.9576998295726966
  29 1    17.1482989774361165     6.5954996591453767     1.3194999999999999
  30 1    19.7864988070088366     9.2336994887180488     1.3194999999999999
  31 1    19.7864988070088366     6.5954996591453767     3.9576998295726966
  32 1    17.1482989774361165     9.2336994887180488     3.9576998295726966
  33 1     1.3190999999999999     1.3190999999999999     6.5958996591454282
  34 1     3.9572998295726887     3.9572998295726887     6.5958996591454282
  35 1     3.9572998295726887     1.3190999999999999     9.2340994887180816
  36 1     1.3190999999999999     3.9572998295726887     9.2340994887180816
  37 1     6.5954996591453767     1.3190999999999999     6.5958996591454282
  38 1     9.2336994887180488     3.9572998295726887     6.5958996591454282
  39 1     9.2336994887180488     1.3190999999999999     9.2340994887180816
  40 1     6.5954996591453767     3.9572998295726887     9.2340994887180816
  41 1    11.8718993182907564     1.3190999999999999     6.5958996591454282
  42 1    14.5100991478634356     3.9572998295726887     6.5958996591454282
  43 1    14.5100991478634356     1.3190999999999999     9.2340994887180816
  44 1    11.8718993182907564     3.9572998295726887     9.2340994887180816
  45 1    17.1482989774361165     1.3190999999999999     6.5958996591454282
  46 1    19.7864988070088366     3.9572998295726887     6.5958996591454282
  47 1    19.7864988070088366     1.3190999999999999     9.2340994887180816
  48 1    17.1482989774361165     3.9572998295726887     9.2340994887180816
  49 1     1.3190999999999999     6.5954996591453767     6.5958996591454282
  50 1     3.9572998295726887     9.2336994887180488     6.5958996591454282
  51 1     3.9572998295726887     6.5954996591453767     9.2340994887180816
  52 1     1.3190999999999999     9.2336994887180488     9.2340994887180816
  53 1     6.5954996591453767     6.5954996591453767     6.5958996591454282
  54 1     9.2336994887180488     9.2336994887180488     6.5958996591454282
  55 1     9.2336994887180488     6.5954996591453767     9.2340994887180816
  56 1     6.5954996591453767     9.2336994887180488     9.2340994887180816
  57 1    11.8718993182907564     6.5954996591453767     6.5958996591454282
  58 1    14.5100991478634356     9.2336994887180488     6.5958996591454282
  59 1    14.5100991478634356     6.5954996591453767     9.2340994887180816
  60 1    11.8718993182907564     9.2336994887180488     9.2340994887180816
  61 1    17.1482989774361165     6.5954996591453767     6.5958996591454282
  62 1    19.7864988070088366     9.2336994887180488     6.5958996591454282
  63 1    19.7864988070088366     6.5954996591453767     9.2340994887180816
  64 1    17.1482989774361165     9.2336994887180488     9.2340994887180816
  65 1     1.3190999999999999     1.3190999999999999    11.8722993182908567
  66 1     3.9572998295726887     3.9572998295726887    11.8722993182908567
  67 1     6.5954996591453767     1.3190999999999999    11.8722993182908567
  68 1     9.2336994887180488     3.9572998295726887    11.8722993182908567
  69 1    11.8718993182907564     1.3190999999999999    11.8722993182908567
  70 1    14.5100991478634356     3.9572998295726887    11.8722993182908567
  71 1    17.1482989774361165     1.3190999999999999    11.8722993182908567
  72 1    19.7864988070088366     3.9572998295726887    11.8722993182908567
  73 1     1.3190999999999999     6.5954996591453767    11.8722993182908567
  74 1     3.9572998295726887     9.2336994887180488    11.8722993182908567
  75 1     6.5954996591453767     6.5954996591453767    11.8722993182908567
  76 1     9.2336994887180488     9.2336994887180488    11.8722993182908567
  77 1    11.8718993182907564     6.5954996591453767    11.8722993182908567
  78 1    14.5100991478634356     9.2336994887180488    11.8722993182908567
  79 1    17.1482989774361165     6.5954996591453767    11.8722993182908567
  80 1    19.7864988070088366     9.2336994887180488    11.8722993182908567
  81 1     3.9572998295726887     1.3190999999999999    14.5104991478635554
  82 1     1.3190999999999999     3.9572998295726887    14.5104991478635554
  83 1     9.2336994887180488     1.3190999999999999    14.5104991478635554
  84 1     6.5954996591453767     3.9572998295726887    14.5104991478635554
  85 1    14.5100991478634356     1.3190999999999999    14.5104991478635554
  86 1    11.8718993182907564     3.9572998295726887    14.5104991478635554
  87 1    19.7864988070088366     1.3190999999999999    14.5104991478635554
  88 1    17.1482989774361165     3.9572998295726887    14.5104991478635554
  89 1     3.9572998295726887     6.5954996591453767    14.5104991478635554
  90 1     1.3190999999999999     9.2336994887180488    14.5104991478635554
  91 1     9.2336994887180488     6.5954996591453767    14.5104991478635554
  92 1     6.5954996591453767     9.2336994887180488    14.5104991478635554
  93 1    14.5100991478634356     6.5954996591453767    14.5104991478635554
  94 1    11.8718993182907564     9.2336994887180488    14.5104991478635554
  95 1    19.7864988070088366     6.5954996591453767    14.5104991478635554
  96 1    17.1482989774361165     9.2336994887180488    14.5104991478635554
  97 1     1.3190999999999999     1.3190999999999999    17.1486989774362755
  98 1     3.9572998295726887     3.9572998295726887    17.1486989774362755
  99 1     3.9572998295726887     1.3190999999999999    19.7868988070090168
 100 1     1.3190999999999999     3.9572998295726887    19.7868988070090168
 101 1     6.5954996591453767     1.3190999999999999    17.1486989774362755
 102 1     9.2336994887180488     3.9572998295726887    17.1486989774362755
 103 1     9.2336994887180488     1.3190999999999999    19.7868988070090168
 104 1     6.5954996591453767     3.9572998295726887    19.7868988070090168
 105 1    11.8718993182907564     1.3190999999999999    17.1486989774362755
 106 1    14.5100991478634356     3.9572998295726887    17.1486989774362755
 107 1    14.5100991478634356     1.3190999999999999    19.7868988070090168
 108 1    11.8718993182907564     3.9572998295726887    19.7868988070090168
 109 1    17.1482989774361165     1.3190999999999999    17.1486989774362755
 110 1    19.7864988070088366     3.9572998295726887    17.1486989774362755
 111 1    19.7864988070088366     1.3190999999999999    19.7868988070090168
 112 1    17.1482989774361165     3.9572998295726887    19.7868988070090168
 113 1     1.3190999999999999     6.5954996591453767    17.1486989774362755
 114 1     3.9572998295726887     9.2336994887180488    17.1486989774362755
 115 1     3.9572998295726887     6.5954996591453767    19.7868988070090168
 116 1     1.3190999999999999     9.2336994887180488    19.7868988070090168
 117 1     6.5954996591453767     6.5954996591453767    17.1486989774362755
 118 1     9.2336994887180488     9.2336994887180488    17.1486989774362755
 119 1     9.2336994887180488     6.5954996591453767    19.7868988070090168
 120 1     6.5954996591453767     9.2336994887180488    19.7868988070090168
 121 1    11.8718993182907564     6.5954996591453767    17.1486989774362755
 122 1    14.5100991478634356     9.2336994887180488    17.1486989774362755
 123 1    14.5100991478634356     6.5954996591453767    19.7868988070090168
 124 1    11.8718993182907564     9.2336994887180488    19.7868988070090168
 125 1    17.1482989774361165     6.5954996591453767    17.1486989774362755
 126 1    19.7864988070088366     9.2336994887180488    17.1486989774362755
 127 1    19.7864988070088366     6.5954996591453767    19.7868988070090168
 128 1    17.1482989774361165     9.2336994887180488    19.7868988070090168
 129 1     1.3190999999999999    11.8718993182907564     1.3194999999999999
 130 1     3.9572998295726887    14.5100991478634356     1.3194999999999999
 131 1     3.9572998295726887    11.8718993182907564     3.9576998295726966
 132 1     1.3190999999999999    14.5100991478634356     3.9576998295726966
 133 1     6.5954996591453767    11.8718993182907564     1.3194999999999999
 134 1     9.2336994887180488    14.5100991478634356     1.3194999999999999
 135 1     9.2336994887180488    11.8718993182907564     3.9576998295726966
 136 1     6.5954996591453767    14.5100991478634356     3.9576998295726966
 137 1    11.8718993182907564    11.8718993182907564     1.3194999999999999
 138 1    14.5100991478634356    14.5100991478634356     1.3194999999999999
 139 1    14.5100991478634356    11.8718993182907564     3.9576998295726966
 140 1    11.8718993182907564    14.5100991478634356     3.9576998295726966
 141 1    17.1482989774361165    11.8718993182907564     1.3194999999999999
 142 1    19.7864988070088366    14.5100991478634356     1.3194999999999999
 143 1    19.7864988070088366    11.8718993182907564     3.9576998295726966
 144 1    17.1482989774361165    14.5100991478634356     3.9576998295726966
 145 1     1.3190999999999999    17.1482989774361165     1.3194999999999999
 146 1     3.9572998295726887    19.7864988070088366     1.3194999999999999
 147 1     3.9572998295726887    17.1482989774361165     3.9576998295726966
 148 1     1.3190999999999999    19.7864988070088366     3.9576998295726966
 149 1     6.5954996591453767    17.1482989774361165     1.3194999999999999
 150 1     9.2336994887180488    19.7864988070088366     1.3194999999999999
 151 1     9.2336994887180488    17.1482989774361165     3.9576998295726966
 152 1     6.5954996591453767    19.7864988070088366     3.9576998295726966
 153 1    11.8718993182907564    17.1482989774361165     1.3194999999999999
 154 1    14.5100991478634356    19.7864988070088366     1.3194999999999999
 155 1    14.5100991478634356    17.1482989774361165     3.9576998295726966
 156 1    11.8718993182907564    19.7864988070088366     3.9576998295726966
 157 1    17.1482989774361165    17.1482989774361165     1.3194999999999999
 158 1    19.7864988070088366    19.7864988070088366     1.3194999999999999
 159 1    19.7864988070088366    17.1482989774361165     3.9576998295726966
 160 1    17.1482989774361165    19.7864988070088366     3.9576998295726966
 161 1     1.3190999999999999    11.8718993182907564     6.5958996591454282
 162 1     3.9572998295726887    14.5100991478634356     6.5958996591454282
 163 1     3.9572998295726887    11.8718993182907564     9.2340994887180816
 164 1     1.3190999999999999    14.5100991478634356     9.2340994887180816
 165 1     6.5954996591453767    11.8718993182907564     6.5958996591454282
 166 1     9.2336994887180488    14.5100991478634356     6.5958996591454282
 167 1     9.2336994887180488    11.8718993182907564     9.2340994887180816
 168 1     6.5954996591453767    14.5100991478634356     9.2340994887180816
 169 1    11.8718993182907564    11.8718993182907564     6.5958996591454282
 170 1    14.5100991478634356    14.5100991478634356     6.5958996591454282
 171 1    14.5100991478634356    11.8718993182907564     9.2340994887180816
 172 1    11.8718993182907564    14.5100991478634356     9.2340994887180816
 173 1    17.1482989774361165    11.8718993182907564     6.5958996591454282
 174 1    19.7864988070088366    14.5100991478634356     6.5958996591454282
 175 1    19.7864988070088366    11.8718993182907564     9.2340994887180816
 176 1    17.1482989774361165    14.5100991478634356     9.2340994887180816
 177 1     1.3190999999999999    17.1482989774361165     6.5958996591454282
 178 1     3.9572998295726887    19.7864988070088366     6.5958996591454282
 179 1     3.9572998295726887    17.1482989774361165     9.2340994887180816
 180 1     1.3190999999999999    19.7864988070088366     9.2340994887180816
 181 1     6.5954996591453767    17.1482989774361165     6.5958996591454282
 182 1     9.2336994887180488    19.7864988070088366     6.5958996591454282
 183 1     9.2336994887180488    17.1482989774361165     9.2340994887180816
 184 1     6.5954996591453767    19.7864988070088366     9.2340994887180816
 185 1    11.8718993182907564    17.1482989774361165     6.5958996591454282
 186 1    14.5100991478634356    19.7864988070088366     6.5958996591454282
 187 1    14.5100991478634356    17.1482989774361165     9.2340994887180816
 188 1    11.8718993182907564    19.7864988070088366     9.2340994887180816
 189 1    17.1482989774361165    17.1482989774361165     6.5958996591454282
 190 1    19.7864988070088366    19.7864988070088366     6.5958996591454282
 191 1    19.7864988070088366    17.1482989774361165     9.2340994887180816
 192 1    17.1482989774361165    19.7864988070088366     9.2340994887180816
 193 1     1.3190999999999999    11.8718993182907564    11.8722993182908567
 194 1     3.9572998295726887    14.5100991478634356    11.8722993182908567
 195 1     6.5954996591453767    11.8718993182907564    11.8722993182908567
 196 1     9.2336994887180488    14.5100991478634356    11.8722993182908567
 197 1    11.8718993182907564    11.8718993182907564    11.8722993182908567
 198 1    14.5100991478634356    14.5100991478634356    11.8722993182908567
 199 1    17.1482989774361165    11.8718993182907564    11.8722993182908567
 200 1    19.7864988070088366    14.5100991478634356    11.8722993182908567
 201 1     1.3190999999999999    17.1482989774361165    11.8722993182908567
 202 1     3.9572998295726887    19.7864988070088366    11.8722993182908567
 203 1     6.5954996591453767    17.1482989774361165    11.8722993182908567
 204 1     9.2336994887180488    19.7864988070088366    11.8722993182908567
 205 1    11.8718993182907564    17.1482989774361165    11.8722993182908567
 206 1    14.5100991478634356    19.7864988070088366    11.8722993182908567
 207 1    17.1482989774361165    17.1482989774361165    11.8722993182908567
 208 1    19.7864988070088366    19.7864988070088366    11.8722993182908567
 209 1     3.9572998295726887    11.8718993182907564    14.5104991478635554
 210 1     1.3190999999999999    14.5100991478634356    14.5104991478635554
 211 1     9.2336994887180488    11.8718993182907564    14.5104991478635554
 212 1     6.5954996591453767    14.5100991478634356    14.5104991478635554
 213 1    14.5100991478634356    11.8718993182907564    14.5104991478635554
 214 1    11.8718993182907564    14.5100991478634356    14.5104991478635554
 215 1    19.7864988070088366    11.8718993182907564    14.5104991478635554
 216 1    17.1482989774361165    14.5100991478634356    14.5104991478635554
 217 1     3.9572998295726887    17.1482989774361165    14.5104991478635554
 218 1     1.3190999999999999    19.7864988070088366    14.5104991478635554
 219 1     9.2336994887180488    17.1482989774361165    14.5104991478635554
 220 1     6.5954996591453767    19.7864988070088366    14.5104991478635554
 221 1    14.5100991478634356    17.1482989774361165    14.5104991478635554
 222 1    11.8718993182907564    19.7864988070088366    14.5104991478635554
 223 1    19.7864988070088366    17.1482989774361165    14.5104991478635554
 224 1    17.1482989774361165    19.7864988070088366    14.5104991478635554
 225 1     1.3190999999999999    11.8718993182907564    17.1486989774362755
 226 1     3.9572998295726887    14.5100991478634356    17.1486989774362755
 227 1     3.9572998295726887    11.8718993182907564    19.7868988070090168
 228 1     1.3190999999999999    14.5100991478634356    19.7868988070090168
 229 1     6.5954996591453767    11.8718993182907564    17.1486989774362755
 230 1     9.2336994887180488    14.5100991478634356    17.1486989774362755
 231 1     9.2336994887180488    11.8718993182907564    19.7868988070090168
 232 1     6.5954996591453767    14.5100991478634356    19.7868988070090168
 233 1    11.8718993182907564    11.8718993182907564    17.1486989774362755
 234 1    14.5100991478634356    14.5100991478634356    17.1486989774362755
 235 1    14.5100991478634356    11.8718993182907564    19.7868988070090168
 236 1    11.8718993182907564    14.5100991478634356    19.7868988070090168
 237 1    17.1482989774361165    11.8718993182907564    17.1486989774362755
 238 1    19.7864988070088366    14.5100991478634356    17.1486989774362755
 239 1    19.7864988070088366    11.8718993182907564    19.7868988070090168
 240 1    17.1482989774361165    14.5100991478634356    19.7868988070090168
 241 1     1.3190999999999999    17.1482989774361165    17.1486989774362755
 242 1     3.9572998295726887    19.7864988070088366    17.1486989774362755
 243 1     3.9572998295726887    17.1482989774361165    19.7868988070090168
 244 1     1.3190999999999999    19.7864988070088366    19.7868988070090168
 245 1     6.5954996591453767    17.1482989774361165    17.1486989774362755
 246 1     9.2336994887180488    19.7864988070088366    17.1486989774362755
 247 1     9.2336994887180488    17.1482989774361165    19.7868988070090168
 248 1     6.5954996591453767    19.7864988070088366    19.7868988070090168
 249 1    11.8718993182907564    17.1482989774361165    17.1486989774362755
 250 1    14.5100991478634356    19.7864988070088366    17.1486989774362755
 251 1    14.5100991478634356    17.1482989774361165    19.7868988070090168
 252 1    11.8718993182907564    19.7864988070088366    19.7868988070090168
 253 1    17.1482989774361165    17.1482989774361165    17.1486989774362755
 254 1    19.7864988070088366    19.7864988070088366    17.1486989774362755
 255 1    19.7864988070088366    17.1482989774361165    19.7868988070090168
 256 1    17.1482989774361165    19.7864988070088366    19.7868988070090168
