ITEM: TIMESTEP
0
ITEM: NUMBER OF ATOMS
108
ITEM: BOX BOUNDS pp pp pp
0.0000000000000000e+00 1.0956000000000000e+01
0.0000000000000000e+00 1.0956000000000000e+01
0.0000000000000000e+00 1.0629000000000000e+01
ITEM: ATOMS id type x y z fx fy fz
   1 1    1.9498426099999999    1.6123894800000000    2.2463115000000000    0.2628846757785639    2.3388213753790348    4.0230021187827329
   2 1    3.2310994800000001    7.2917578000000001   10.6101818899999998    2.3689865064409008    0.2616244923849584   -1.3623857058310460
   3 1    5.0867491899999999    5.3743590899999996    2.2430686899999999    0.8922486989107113    1.1139319641272416    0.1988027373519114
   4 1    8.9265713699999996    5.1206595400000001    7.8247845199999997    2.3100654959732010    1.5536100289223194    2.7977024859750546
   5 1    0.2592721000000000    7.0133755899999999    5.3305418199999997   -0.1469146507992394    5.0565074020083927   -1.9806875045187713
   6 1   10.7365987599999997   10.8800927800000000   10.6153213300000004    0.5796876950408478    1.6473822214785252    0.7088123705742845
   7 1    7.1881782400000001    3.5480399000000000    5.1419050200000003   -0.9463800687983734   -2.2875614718731292    0.2330520579631181
   8 1    7.2680072800000000    7.1069656900000000    5.4505338700000001   -1.5967375983730385   -0.2383993399526078   -0.6120448395813192
   9 1    1.6494264599999999    5.2833683000000002    2.6433772400000000   -0.8223652322812425   -0.1666378080437920   -0.8037404208524702
  10 1   10.7283949100000005    3.2646578100000001    5.3122076399999996    3.6539265591356043    2.5085875392552883   -3.0875851629028528
  11 1   10.8235741700000005    3.6351975099999998    0.1936622900000000    0.0577283047614547    0.4079173826578242   -2.5827512927966980
  12 1    1.9354248400000000    5.1519876800000004    7.7933675300000003    0.2547020156744371    1.9760210257216935   -0.8546575151848990
  13 1    8.9461627799999999    9.0473408899999992    8.0078490599999999    0.4932084358605881   -0.5046225820952700    0.2611021014974203
  14 1    1.7098071600000000    1.6894044600000000    7.9303547200000004    0.5037638430130940    0.5629559637197772    2.4586510055827557
  15 1    7.3893707199999996    7.2870110099999996   10.4758578999999994   -2.2515377464603517   -0.4606987780226647    1.1212964221213526
  16 1    8.7307771299999999    9.0393448700000008    2.9513383800000002    1.3012344433140446   -0.7233747508978269   -2.8081026215558165
  17 1    5.0789946400000003    8.9861253300000001    2.4193840299999998    1.7277067474735821    0.0475188929217154    0.6210584274548767
  18 1    5.4426058800000003    9.3071524599999993    7.9839223300000004   -4.8367450337438900   -4.5726864156486950    0.5526358990273252
  19 1   10.9507573300000001   10.7516530699999997    5.3004673799999997   -1.4086682570711959    0.6604687283144990   -2.7896320224178250
  20 1    3.5276752199999999    3.4735595899999998    5.1816768299999998   -0.8413706225104898   -0.3793476040494855   -1.2066443204820356
  21 1   10.9538038699999998    7.2940740100000001   10.3258917399999994   -3.7070763864299465   -2.6855782802586581   -0.7327279723559957
  22 1    1.6456279000000000    9.0987234299999997    7.9318484199999997    2.0234580814441681   -0.6223340401083581   -0.6911171148927764
  23 1    7.2406413799999996    3.7825271200000001    0.0748470800000000    0.6527319451833604   -3.0786431984730909   -1.6446376599770047
  24 1    8.9499556299999998    5.4080370699999998    2.6872656600000000    1.1782169283144353    0.8137865466406640   -0.7669105813165625
  25 1    3.8236803699999999    6.9904107199999999    4.8131646100000003   -1.9707534725920297    0.0658074458806076    2.7028622621336544
  26 1    3.7737331799999998    0.0466739800000000    0.0220746300000000   -2.9687177474224336   -2.3088330648165756   -0.4416544572094916
  27 1    7.1999626299999999    0.0728454600000000    5.2426781499999997    2.2782802246880913   -1.8408100527081137   -1.7792570298546666
  28 1    5.6696258100000003    1.6242438699999999    2.6256736900000002   -1.5858639305145448   -1.8214075588675522    1.2682856314722308
  29 1    5.3494679300000003    1.7250430200000000    7.5813982700000002    1.6918446845771822    0.6530419253742576    2.0282131156055057
  30 1    1.4256022800000001    8.9866387299999992    2.5796010100000002   -1.8635441395119154    3.3569622704918665   -0.7879680796701727
  31 1    3.3299887699999999   10.9341262399999994    5.2506655200000001    3.5415328443811784   -1.4918882032367000   -1.1665418778361440
  32 1    3.7357748000000002    3.6106027200000002   10.2165931000000008   -2.4035708304463035   -1.0791901470548322   -2.1802974241458184
  33 1    7.1817182600000002   10.9535638199999994   10.5472857399999995    3.5428598812200285    1.9476682208900464   -2.0614360057805081
  34 1    9.0363334999999996    1.7914524800000000    2.5222215200000000    0.9294006713875731   -0.3390186766593425    2.3516838870994832
  35 1    5.4428051599999998    5.4758693899999997    7.8838400899999996   -1.8530839886511949   -0.2094879178023572   -1.1463898688195167
  36 1    9.0497654500000007    1.7001676400000001    7.7713846300000000   -1.2888893289071139   -0.2230662735415468    3.1899731743083524
  37 2   10.5057749000000005    9.5845480799999994    1.6476423200000001    0.9801715114206169   -0.2509891308041275   -1.0316200847491319
  38 2    5.0698647899999996    7.1086391100000004    3.3652439699999999    2.9500705166386374   -0.1997826553196060   -2.4579500184513767
  39 2   10.8249983400000005    5.5721666000000001    4.0577155600000001    0.4630492931934246   -2.9408250217980578   -0.9285807546518723
  40 2   10.5201266100000002    1.7316611000000000    4.2294791399999996    1.1154538898290298   -1.9729742270350137   -0.0330230870428004
  41 2    1.7629813400000001   10.8695582599999998    3.8848047999999999    0.0294660628536754    1.3224532228585564   -1.7419555905090454
  42 2    1.7024185500000000    0.0846790300000000    1.1687234900000001   -0.6647662060965591   -1.0969856558686477   -2.9318519143778774
  43 2    2.1226030599999999    3.9810609000000001    0.6740873500000000   -1.9417398777037758   -1.0723942251392111    1.5526768293852902
  44 2    0.4495063800000000    1.9355864400000000    9.7257516200000005   -0.4461186171497228   -0.8936744090307481   -0.2465063054571959
  45 2    1.7441040500000000   10.8285213500000008    8.9739178099999997   -0.2397566172909204    0.3666822726272131   -0.3336828349972584
  46 2    1.7574875700000001   10.4756398799999992    6.2722654799999997   -4.1024262446911193    1.4522774788281576    1.1208308095605282
  47 2   10.9542293999999991    1.8100072300000001    6.7498245399999997    0.7693826197387503   -1.1337930391563420    1.6517281771052539
  48 2    1.8843236500000000    3.3871044800000001    3.3237903400000000   -1.1768506078417116   -0.0700150997263140    0.9615225227842743
  49 2    1.4719650000000000    7.5332583900000003    0.9597057000000000   -0.4823589307126956    0.9363070782223775   -0.2106635194069840
  50 2    1.8063053099999999    7.1928590899999998    8.9430213199999997   -0.2800441213708432    1.6002247240265064    0.0742354120875604
  51 2   10.7286291499999997    2.2867134199999999    1.6239633499999999    4.2061042379519886   -0.4174338309948921    0.3761170624188852
  52 2    3.7478391100000001    5.1082562500000002    6.4553532999999996   -1.7916371300116309    2.7942556345294696    2.1939761577021684
  53 2    3.5104206200000001    1.6528777100000001    6.7340960599999997   -1.4729632002022113    0.0724109859910700    0.5350847045307890
  54 2    5.3909712299999999    3.5057395499999999    8.6978579099999997   -0.4302960745700157    0.9249338236158308   -0.4248539465644212
  55 2   10.8328709900000000    5.2844045199999998    1.4801322500000000    0.0319814348515720    0.0395568344462294    0.1922678916822464
  56 2    2.3622152700000001    7.5195828899999997    5.9504287099999997   -3.9332242066715852    0.1727443144127901    1.4929929379053961
  57 2   10.8529835800000001    8.6150234799999996    6.8946615600000003   -0.0576008762344352    1.5842301706503534    0.5579473893817681
  58 2    3.8762220599999999    1.6630748900000001    4.1044106700000000   -1.0696914146066350   -0.5668669518341248    0.8728901371891059
  59 2    5.8673867599999996   10.6716270499999997    3.3763120500000001    0.7390104716919461    0.4551103420989442    0.2486573157067918
  60 2    5.5116577099999997   10.6540145099999997    0.7522161400000000   -1.6535785165549841   -1.2131164247721733    2.2418184766814653
  61 2    3.9002888900000001    1.6740566400000001    1.6405635100000000   -1.9192336919444029   -0.6481900600047299   -2.3903927443951907
  62 2    3.6148129999999998    1.6211643600000001    9.5406527899999993    0.6313947659512856    1.0186368304876436   -0.8653318272403582
  63 2    5.7888704700000000    0.0107577000000000    8.8401978700000008   -0.8442640476454746    1.8401455819063863    0.2259792535155993
  64 2   10.8968633500000003    9.1563911000000004    9.6441568300000000    0.3922158759085038   -1.5228874090305100   -1.4455192272416149
  65 2    3.4844188500000000    5.0834485799999998    3.7930377300000000    0.8287796045088529    0.8857238937543420    0.9170195016854578
  66 2    5.5925345699999998    3.3697822799999999    3.3712241600000001    0.0523905122103985    4.0327801449102569   -0.1300739281854090
  67 2    5.3253816100000000    4.1550901700000002    0.5425526300000000    0.5431294944045566    1.5254733226552974    2.2671854949116073
  68 2    8.9840330700000006    7.0992439000000003    6.2406166699999996    1.3172502901667817   -0.4337026414919333    1.7411362987119741
  69 2    3.5141731500000000    5.4887050000000004    9.1911944400000003    2.3669772587082036    0.6453928292089036    1.2270283041630987
  70 2    5.3005107200000001    3.7454195800000001    6.0235617599999998    3.1238535174752293   -3.3931498439194776   -0.0688406583997085
  71 2   10.9428808499999999    5.4587485600000001    9.1918897899999994   -0.1048056146714578   -0.5465325252493367    0.7164975305844136
  72 2    9.1598810299999993    0.0837115100000000    6.4382472000000002   -0.4049908625928126   -2.3279769912985824   -1.2134394090421270
  73 2    1.7347139899999999    3.5966836700000000    6.2946254899999996   -0.2948342188525132   -1.3410292627915523   -1.2695062268237787
  74 2    6.6201868800000003    1.9379128400000001    0.9569061200000000    1.1484567433027775   -0.1656447559251830    0.7828087568651518
  75 2    9.0192770899999992    0.7570895100000000    0.8552598300000001   -1.4783039787560028   -2.2003605140820914   -1.5842528653099781
  76 2    7.3258765400000003    8.7171040400000006    4.3839670799999997   -0.4895121240298517    2.8746742952434783   -0.4000652187617517
  77 2    7.5008020100000001    1.9078092600000001    3.9086825300000001   -2.0715922999669205   -2.6337977875213148    1.5836946456446177
  78 2    3.5114363499999999    9.5687969699999993    7.2567654399999997    2.7738499201317288    0.0420955560096530   -0.2537406239412610
  79 2    8.9451281999999992    7.2605082200000002    9.0573037999999997    1.5951596943583264   -0.3520059895308365   -4.3887030196053090
  80 2    7.3484578400000000    1.7218183400000000    9.3133880799999993    0.6250926458358474    0.3935669701419572   -0.2027984192781818
  81 2    7.7142563300000004    9.0940986899999992    9.6450297799999998   -1.6048274597259222    2.8376047071921926   -1.0340909585240587
  82 2    5.8448564000000003    7.2782907999999997    8.6964975100000004    0.5146436323701180   -0.4947934772034209    0.0462586550590261
  83 2    9.0571913199999994    7.2096918800000003    3.6427283600000000   -0.1298184708910023   -1.1267847605639740   -0.2762572527496790
  84 2    5.1491348400000003    7.4112087700000000    6.1715991800000003    2.7085874747902192   -1.4126793859653375    0.6582854959318104
  85 2    7.3006592200000000    8.9426611299999994    1.4384127900000001   -0.5897970473020383    0.7963869393854390    1.4954953978838561
  86 2    9.0891076799999997    7.3007725099999998    0.6677890300000000    3.9996169189271233   -0.7794187163533627    2.7125485345630711
  87 2    7.6362253999999998    5.2474180500000003    9.4663071900000002   -1.4545833124820837    1.1086341842622240   -0.6736011988527832
  88 2    4.0345408599999999    8.9785132099999991    9.6397276099999996   -1.2712320336872529    0.8149386889221590    1.7265977987951859
  89 2    9.3238728500000008   10.8999822999999996    9.0311523099999995    0.0349342896578287    0.5217827030793132   -1.3757876388001415
  90 2    7.2296911899999996    5.1815925399999996    6.8325191099999998   -0.8371858181140688    0.2693371494920741    1.6280174379091430
  91 2    5.4810941900000003    0.4163562700000000    5.9070828000000004   -2.4835603893880496   -0.5906876657536428    0.7509639220496933
  92 2    0.4158410100000000    5.6138053200000000    6.4924396900000003   -1.1540433530696916   -2.4682074929007278    3.1787092102144392
  93 2   10.8613636099999997    9.2070802399999998    4.0367162700000003   -0.0096681870794482   -1.3825487968476970    2.1647902422120993
  94 2    1.5810151100000001    7.3236430500000003    3.4513526899999998    1.1652576323021617   -3.2420757036021803    1.5566899145951170
  95 2    3.9574907100000001    9.0638144399999998    4.2112619899999997   -0.9667757498982059    1.2512498067190894    0.0115914241965164
  96 2    3.2360449099999999    5.9970761100000001    1.5488692500000001    1.1254793820746956   -0.6688042496063993    0.0384702594870370
  97 2    5.2545450400000000    7.1741711099999996    0.8439352700000000   -0.9009555564471733    0.6829704753638519   -0.3946250242549884
  98 2    9.1459865199999992   10.8676504900000008    3.5999253800000002   -2.2970086156975036    0.3832284264475465    0.7897210664918236
  99 2    9.1962395000000008    3.3834953600000000    9.0509243799999997    0.8473245490365813    1.0125925095888766   -0.8109064901501201
 100 2    7.1961840099999996    5.9043847300000003    1.6130177100000000   -0.3980344264262652   -2.3801956085427354    0.6758937100492185
 101 2    8.7533348699999998    3.6848508700000000    1.3186781700000001   -0.1154867784497235    0.0413399080273971   -2.1923413783096617
 102 2    9.0494758799999993    3.5659999700000000    3.5588294199999999    0.4475144757428379    2.8287006770447913    2.3374368185566001
 103 2    7.1367621699999999    5.2613336000000004    4.5414043599999996    0.5408090401204234    4.2379094825733681   -3.5686212681571270
 104 2    3.2418811700000001    9.3051311900000009    1.6329740900000000    2.0039515077277827   -0.5543827662102281   -0.5926532679900612
 105 2    9.1155543699999999    3.4867889600000002    6.2457008399999996   -2.5876103110340001    1.2475098123667641    2.5020917252056818
 106 2    7.2934387799999998    1.7093592799999999    6.7606757899999996   -0.4317964489035147    0.8088457615640441   -1.4214233251961332
 107 2    2.1277929200000001    3.5278868900000000    8.7864617900000006   -0.3050317034569228   -1.6445269407859406   -0.7112472850118576
 108 2    6.9259656700000001    9.2839186199999997    6.8249149100000004    5.0643962302795007    0.3774992159477854   -1.2327141299421887
ITEM: TIMESTEP
50
ITEM: NUMBER OF ATOMS
108
ITEM: BOX BOUNDS pp pp pp
0.0000000000000000e+00 1.0956000000000000e+01
0.0000000000000000e+00 1.0956000000000000e+01
0.0000000000000000e+00 1.0629000000000000e+01
ITEM: ATOMS id type x y z fx fy fz
   1 1    1.8755919579938898    1.6602614310776325    2.3970139239844253    1.1967408091341338    1.9241368356286630   -0.1242688489525739
   2 1    3.4948323677303432    7.2453385868137410   10.5291178727265908   -2.0195974103878016    1.1176787336165295   -0.2083750436541360
   3 1    5.0482921272986463    5.2604865400779106    2.3199709833937909    1.4837938396817207   -1.8570605881645306    2.3944580029044431
   4 1    9.0862154212385633    5.3628077832223902    7.9453351968345949   -2.0546177926218285   -2.5201198797575053   -0.3711260730933686
   5 1    0.1031302406299862    7.0704320363685103    5.4247285391218290   -0.7923312723098296   -0.5720302003919089   -0.0526952781477912
   6 1   10.7190023816222766   10.9047398741605743    0.0513561311714756   -0.2769724954183030    0.4062609567314714    1.0367216268714923
   7 1    7.2605451154986458    3.3842817035920651    5.0122251751480666   -4.7763565688574747    2.0369686547895904    0.8274622384955264
   8 1    7.3521190243667220    7.1123106468541986    5.5005461598541796    0.4230040181462408   -1.0281968218849602   -1.3565738902040378
   9 1    1.6600609312189283    5.2558851612091413    2.7387889479543226    2.3247016925589201   -1.0060341504642514    0.8810189542999484
  10 1   10.4990293682207039    3.4906054778302034    5.0596068574314641   -0.1227875781006715   -2.3879658528635797    5.4204502595747099
  11 1   10.8946485274200189    3.4534575325678394    0.1264885152228425    1.5310898643381683    0.5193503458017676   -1.5557451533724058
  12 1    1.7995138323837996    5.2649948808767437    7.5398442964133938    0.1208058336918416    0.1662526538351149    0.5783929324069500
  13 1    9.0429801099848408    9.0483012788044732    8.2338059706033597   -0.7638634597748433    2.7491329421632518   -2.5274503979351164
  14 1    1.9280480473828563    1.8035596401413136    7.9851264295074449   -2.3731396470822212    0.0199350370023502   -0.5965994223603363
  15 1    7.1790564828733654    7.2474919143983456   10.5319111976339492   -1.1766105488398804    0.1647543315694671   -3.3953735839992625
  16 1    8.7146925553312524    8.8703956015674059    2.9358796205818729    1.2339181861462221    0.3250389789588273   -2.4806436994269063
  17 1    5.2965069603094381    9.0059210224012318    2.5559635294988849   -0.0996347161466911    1.9088188147853136   -0.6699742056760238
  18 1    5.4690842027380739    9.1230052499737937    7.7602658261196966    0.6531641539781383   -1.4014527843172391    2.1655327585054316
  19 1    0.0882723043587026   10.7171614657186574    5.0647531859384554   -0.4543298530697584   -0.4295588585640422    2.2790178688452309
  20 1    3.5866127430405270    3.5822405194581139    5.3015140785813806   -1.5556828088192205   -1.0487952508539973   -1.7772297730366455
  21 1   10.6894407584985878    7.0137942838554617   10.2362565000903274    3.1467155828050624    0.9986275494320739    2.5825904191821221
  22 1    1.7703998238571794    9.0984854368687476    7.9252609163592496   -0.4936863121620044   -0.3516017297797921    0.9812607294069445
  23 1    7.3390632013909434    3.6466068756193208    0.0069660746747726   -0.4117177065854198   -2.4531659427766450    0.6124571420549754
  24 1    8.9795301240169394    5.4871733247335666    2.2544048312131229    0.0520929443569740    0.0052638029836834    2.0003753850137445
  25 1    3.7986718353988387    7.2585974591245046    4.8005961458330804   -1.5102301301714112   -0.7890251923156056    4.5441853333745961
  26 1    3.6937161311435829    0.0304317184113572   10.5767367461920241   -0.0887963424406696    0.1420277763705852    0.1468384911410098
  27 1    7.2842629769479235   10.8116393565740694    5.1578917929575079    1.3550644238392122    0.1173669881920851    1.9152228771972388
  28 1    5.3986741839517949    1.5135921564643633    2.7527553989681777   -0.4886310591140548    1.4395372995261606   -0.7722072834422464
  29 1    5.4312173084695283    1.8870176838451704    7.8617551821012883    1.3321188162324138   -1.0977770833969458   -0.7070281514123273
  30 1    1.4670782556757924    9.1329635851951405    2.4200760869912168   -0.1302404572484077   -1.3934662997699276   -1.1639160819475904
  31 1    3.5299434270303629   10.8000714846890133    5.1717930990207650    1.4743569995876562    2.1364910940864705    0.8071095918889699
  32 1    3.6346654650071994    3.7665497745879697   10.0514101451320403   -1.1314436312811937   -0.5802032774714365    2.4055225556125337
  33 1    7.2187087561556487   10.9288397305481570    0.1084319303202946   -0.0449289434084658   -0.5540284209575036   -0.4408662526234554
  34 1    9.0604354357305166    1.8122122920483541    2.5246883058418685   -3.5029589681633815   -1.1871420850288379    3.0942850749821984
  35 1    5.3671858881511314    5.5630977870225298    7.8696879825258526    2.1428074180338386    2.9242555371315992    0.9621169103270313
  36 1    9.0956490551077565    1.7540948754940711    7.8719507874028594   -0.4919100528727948    0.1386585864495985   -1.2812189101169507
  37 2   10.4287056936111089    9.6831956115070437    1.8688088686818547    1.7736482733105667   -1.3811986635323148    0.3045756386753350
  38 2    5.1503702512350014    7.2312519719206474    3.4382329714086626    0.0818706979456619   -0.4434234037937440   -2.7714820171909476
  39 2    0.2306341704588233    4.9820017158542251    4.2128569758209373   -0.3822435069575635    4.5966916122056620   -0.4692984365068866
  40 2   10.5761561265868931    1.5297868468783398    4.3891899776585888   -0.2352713843059387    3.5992667651766017   -2.0741520547886694
  41 2    1.7155771427597044   10.8427120400175951    3.6350455005466107   -0.8786990811800852    0.4538896299507078   -1.0820664438445569
  42 2    1.7204387300330226   10.8031033946579331    0.7283008132257616   -0.6416175701093898    0.8044293306241230    2.3016587428989701
  43 2    1.8365294570533730    3.4889985531067933    0.9570804933988961   -1.1558881081508430   -0.5120676349173692    0.4563278103863412
  44 2    0.3193887439988429    1.7601577098455570    9.8696637816382413    0.1970660882012232   -0.7940959439735907   -0.5718159928952395
  45 2    1.8094366262461574   10.8718991328995607    8.9867503329295442    0.3803896115935448   -0.6582928816857466   -2.1523724540195150
  46 2    1.8260220916332526   11.0237727717875931    6.1432177947985043   -1.5512068183473633   -0.6468092835867105    1.4128231292451314
  47 2    0.0272746471757869    2.2933990505700357    7.3498728692777835    0.1300640141118354   -2.0801916568357339   -1.3173828184913652
  48 2    2.0337520786571153    3.3576158193609387    3.7053174044153896   -0.9955859384403392   -0.6579551150307450   -2.2483928779397053
  49 2    1.3576393057451350    7.8355587156882098    0.6870188672314625    0.7489780318187942   -0.4023731655633657    0.6707388369098123
  50 2    1.6486263288217262    7.0492467429973811    8.8707519575878528   -0.8288855150511922    1.5831135551312137    0.0605773767894927
  51 2   10.7491645409437968    1.7166094742129483    1.7072900389579093    6.0176000685454714    0.5145499131756872   -0.1093290511212934
  52 2    3.8906671741286272    5.3285135775730685    6.7520214589262562   -3.6868570197959443   -1.1305053859299714   -1.9706961260891747
  53 2    3.6450749366725352    1.7506278131437660    6.7718247228725454   -1.2288763157694733   -0.4647080569239775    0.3883688964464938
  54 2    5.1612233102739786    3.7302361829125688    8.5195232476024003   -1.3818972303908248   -1.0052446581995940    1.4482166123859144
  55 2   11.0775892429584371    5.3388336073831226    1.5419955573048292   -3.3074397192556937    0.9531282145514252   -0.4516540673821599
  56 2    1.9532287861973763    7.0247093905288462    6.2844244780455725   -2.2179262777417970   -0.3415564538849473   -0.9218338637085626
  57 2   10.7991737626989419    9.0964285083749310    7.0722294841207338    1.1982034168479629   -0.7848073320964506    0.7565554550969775
  58 2    3.6916528994815634    1.5475303114370693    4.0368526828730333   -0.2161400306310270   -0.9149564252792806    0.2797710795323436
  59 2    5.5959681620389370   10.7349637552624113    3.8161892792352337   -0.2980723756462268   -0.6784665713022723   -0.1161805375454628
  60 2    5.5256126559558068   11.0394305961263939    1.1888028726442790   -1.8849395964314843   -0.6961086969388631    0.6563501171017925
  61 2    3.5900021325590563    1.8754990921582895    1.3604516084797036    0.5688755333806140   -2.1897626243129387    0.3803571578123095
  62 2    3.6145683442903427    1.8353988087085720    9.2839821341921880   -0.3158782148806963    0.3410533509579943    0.7526148428354615
  63 2    5.4971738137720321    0.2132841965217722    9.4218806503275516   -0.0212112200075198    1.0032918096880306   -2.3505023166917356
  64 2   10.3703910769115613    9.0749283082146697    9.7740168135688137    1.3615435224893240   -0.2148988908127035    0.4604065016787522
  65 2    3.4901151908721482    5.3491493843432609    4.2763584463074471    0.4446668104735478   -0.2753653722820878   -2.4626389390713865
  66 2    5.3352169288135896    3.4664771352360337    3.4884805339844283   -0.6733318908227341    2.4536604536473208   -1.6772148103021083
  67 2    5.1874702962104848    3.9449351432735491    0.7718962516889016    0.4262108754642330    0.2686500192580220   -0.7802787542893135
  68 2    9.2025795936030619    6.8718914429293578    6.3525437690293485    1.4884670863456362    0.5203777773800720    0.2170125986810464
  69 2    3.7598606268886630    5.6802228947954800    9.2891132176215550    0.2556704984603432    0.5052896886886840    1.0819917912691832
  70 2    5.3193617561870674    3.1692943503975841    5.9619538807285544    3.8685355089066702   -0.1304591706484108    1.3624973091574566
  71 2   10.8337418142114537    5.1959513319644062    9.5391809512191230   -1.8381584686712589    1.6610009338603309    0.0322719195532514
  72 2    9.3803101584981956    0.1895108315404148    6.0395262125826576   -1.0666345851984378   -0.1257740805184693    0.5577084076501878
  73 2    1.7316655389808837    3.6377637249845738    6.2425063819523201    1.0792619599251863    0.4598156803121725    0.4565773310297639
  74 2    7.1998566816728955    2.0044903265583183    1.6524036920984508   -2.0505696939671787    0.6192682100182492   -2.8274565078802598
  75 2    8.9723944816156482    0.5124139665152747    1.0807462393115366   -1.0266603905496587   -1.1376627925612908   -4.4527431632768621
  76 2    7.1371332266506453    8.7876886642872591    4.3999815441218262    0.4527077844195447    2.3511600828315928   -1.8262984740224648
  77 2    7.0842288926202572    1.8032176550223098    3.9066200030712079    1.6902683374323473   -2.2087279893639842    2.2881563790456489
  78 2    3.5052507783570501    8.8750375420093164    7.1511687025407582    0.3526813950322396    0.7131760510824832   -0.6838481147070823
  79 2    9.0330151911588832    7.1964791536330770    9.0053587382471871   -1.0742921871935180   -1.1420129319355283   -0.4941409580186806
  80 2    7.1422777611903889    2.4327161504271304    9.0097179519773327    0.2311086088318391   -1.6663990521472829    1.2784966296865425
  81 2    7.0412374142044767    9.2850908872852500    9.4331300539363276    2.5695532232301832   -0.6813109994010474    1.2685362949780001
  82 2    5.8333173583334270    7.4130595290518402    8.7648945723984202   -0.3582058028515996   -2.5338705916497233    0.7529541697320024
  83 2    8.8320073261263587    7.0019525285376449    3.6180810544225057    1.9509311268907106   -1.0393903638647839    0.0526172654048484
  84 2    5.5113723950813336    7.4220119702777714    6.2383583098729707   -2.0261050828993019    1.3128567829308131   -0.3983271230791561
  85 2    7.2284795383487905    9.3227427059255277    1.5419791518336921   -0.0235916482059123   -1.1562272920121455    0.3658291649218883
  86 2    8.8115923717538411    7.2082199999307157    0.9649543412618380    3.0005763949338742   -0.4294146271765140    0.9673260881960873
  87 2    7.1901518368460948    5.2317344580488552    9.5370823448046149    0.6925069566874267    1.9682521210364619   -1.0577609643399581
  88 2    3.8104900597686497    9.0771760696635226    9.7741166402153894   -0.4386996234004817    0.2423129938672693   -0.3127316148101869
  89 2    9.0254832072533109    0.0392331571474270    9.0852923834099872   -0.0119724526086282    0.7450314519796610   -0.1551045405697195
  90 2    7.0562448903721533    5.7544107577858803    6.9444497142754802    2.5595484655559355   -2.0728873108959909    0.9939205179008916
  91 2    5.3467928843933432   10.5363422772208004    6.4584220404765551   -0.1532461997592584    3.1487890361291271   -2.8430864844589987
  92 2   10.6327301226473274    4.8752688576316165    6.8944900368617192    3.0183524650011950    1.8023136750286419   -1.3803573712941410
  93 2   10.6870988017193209    8.7607765556441954    4.5783902026180137    0.0191923921083780    0.5678939698613070   -2.1822209318788217
  94 2    2.0300128207770078    7.3123712416436790    3.5509954740424745   -2.3082903596304511   -0.8291788865474090   -0.9835409324669987
  95 2    3.5223256255785840    9.1263965440926693    4.2321438658497819    1.1152665233143044   -0.1073862162101129    0.5780662164719549
  96 2    3.1122742782153452    5.5871202423801449    1.3089777626032073    2.8302196433713873    1.3098302915555067    0.3679592308458116
  97 2    5.4816440636456640    7.5808510188687315    0.7748303905977657   -2.7694041729451278   -1.2094001630194950    1.7447843968363093
  98 2    8.6772221573716166   10.7713812459073210    3.2911456757922211   -0.9449997179209377    1.1810278931400808    3.6906386445812647
  99 2    9.4456409952770990    3.3976288166562574    8.9043128425257656   -1.3787438239900069    1.7149655368579695    2.2710161419221411
 100 2    7.2419852754591005    5.2407833736517828    1.3204462354061794   -0.9869111895713172    1.5606848126002379    2.0222098022925579
 101 2    9.1451951978080555    3.4377769984040047    1.2365329174608608   -0.3310502618145235    2.6229248413357622   -1.7900730863810967
 102 2    8.7051012254125375    3.9433586458513679    3.7855375729083027    3.2495486634036679   -0.8092481349068712   -1.6414830429315226
 103 2    6.9036804626293131    5.7297750179025311    4.2182712257598967   -0.9582909878470234   -2.6099236292624179   -0.1192611753450361
 104 2    3.3652902583157154    9.3947069570458979    1.8909145262271705    2.8988865115328695   -0.3359140499226239   -1.5246126503136497