108
 Atoms. Timestep: 0
1    1.9498426099999999    1.6123894800000000    2.2463115000000000
1    3.2310994800000001    7.2917578000000001   10.6101818899999998
1    5.0867491899999999    5.3743590899999996    2.2430686899999999
1    8.9265713699999996    5.1206595400000001    7.8247845199999997
1    0.2592721000000000    7.0133755899999999    5.3305418199999997
1   10.7365987599999997   10.8800927800000000   10.6153213300000004
1    7.1881782400000001    3.5480399000000000    5.1419050200000003
1    7.2680072800000000    7.1069656900000000    5.4505338700000001
1    1.6494264599999999    5.2833683000000002    2.6433772400000000
1   10.7283949100000005    3.2646578100000001    5.3122076399999996
1   10.8235741700000005    3.6351975099999998    0.1936622900000000
1    1.9354248400000000    5.1519876800000004    7.7933675300000003
1    8.9461627799999999    9.0473408899999992    8.0078490599999999
1    1.7098071600000000    1.6894044600000000    7.9303547200000004
1    7.3893707199999996    7.2870110099999996   10.4758578999999994
1    8.7307771299999999    9.0393448700000008    2.9513383800000002
1    5.0789946400000003    8.9861253300000001    2.4193840299999998
1    5.4426058800000003    9.3071524599999993    7.9839223300000004
1   10.9507573300000001   10.7516530699999997    5.3004673799999997
1    3.5276752199999999    3.4735595899999998    5.1816768299999998
1   10.9538038699999998    7.2940740100000001   10.3258917399999994
1    1.6456279000000000    9.0987234299999997    7.9318484199999997
1    7.2406413799999996    3.7825271200000001    0.0748470800000000
1    8.9499556299999998    5.4080370699999998    2.6872656600000000
1    3.8236803699999999    6.9904107199999999    4.8131646100000003
1    3.7737331799999998    0.0466739800000000    0.0220746300000000
1    7.1999626299999999    0.0728454600000000    5.2426781499999997
1    5.6696258100000003    1.6242438699999999    2.6256736900000002
1    5.3494679300000003    1.7250430200000000    7.5813982700000002
1    1.4256022800000001    8.9866387299999992    2.5796010100000002
1    3.3299887699999999   10.9341262399999994    5.2506655200000001
1    3.7357748000000002    3.6106027200000002   10.2165931000000008
1    7.1817182600000002   10.9535638199999994   10.5472857399999995
1    9.0363334999999996    1.7914524800000000    2.5222215200000000
1    5.4428051599999998    5.4758693899999997    7.8838400899999996
1    9.0497654500000007    1.7001676400000001    7.7713846300000000
2   10.5057749000000005    9.5845480799999994    1.6476423200000001
2    5.0698647899999996    7.1086391100000004    3.3652439699999999
2   10.8249983400000005    5.5721666000000001    4.0577155600000001
2   10.5201266100000002    1.7316611000000000    4.2294791399999996
2    1.7629813400000001   10.8695582599999998    3.8848047999999999
2    1.7024185500000000    0.0846790300000000    1.1687234900000001
2    2.1226030599999999    3.9810609000000001    0.6740873500000000
2    0.4495063800000000    1.9355864400000000    9.7257516200000005
2    1.7441040500000000   10.8285213500000008    8.9739178099999997
2    1.7574875700000001   10.4756398799999992    6.2722654799999997
2   10.9542293999999991    1.8100072300000001    6.7498245399999997
2    1.8843236500000000    3.3871044800000001    3.3237903400000000
2    1.4719650000000000    7.5332583900000003    0.9597057000000000
2    1.8063053099999999    7.1928590899999998    8.9430213199999997
2   10.7286291499999997    2.2867134199999999    1.6239633499999999
2    3.7478391100000001    5.1082562500000002    6.4553532999999996
2    3.5104206200000001    1.6528777100000001    6.7340960599999997
2    5.3909712299999999    3.5057395499999999    8.6978579099999997
2   10.8328709900000000    5.2844045199999998    1.4801322500000000
2    2.3622152700000001    7.5195828899999997    5.9504287099999997
2   10.8529835800000001    8.6150234799999996    6.8946615600000003
2    3.8762220599999999    1.6630748900000001    4.1044106700000000
2    5.8673867599999996   10.6716270499999997    3.3763120500000001
2    5.5116577099999997   10.6540145099999997    0.7522161400000000
2    3.9002888900000001    1.6740566400000001    1.6405635100000000
2    3.6148129999999998    1.6211643600000001    9.5406527899999993
2    5.7888704700000000    0.0107577000000000    8.8401978700000008
2   10.8968633500000003    9.1563911000000004    9.6441568300000000
2    3.4844188500000000    5.0834485799999998    3.7930377300000000
2    5.5925345699999998    3.3697822799999999    3.3712241600000001
2    5.3253816100000000    4.1550901700000002    0.5425526300000000
2    8.9840330700000006    7.0992439000000003    6.2406166699999996
2    3.5141731500000000    5.4887050000000004    9.1911944400000003
2    5.3005107200000001    3.7454195800000001    6.0235617599999998
2   10.9428808499999999    5.4587485600000001    9.1918897899999994
2    9.1598810299999993    0.0837115100000000    6.4382472000000002
2    1.7347139899999999    3.5966836700000000    6.2946254899999996
2    6.6201868800000003    1.9379128400000001    0.9569061200000000
2    9.0192770899999992    0.7570895100000000    0.8552598300000001
2    7.3258765400000003    8.7171040400000006    4.3839670799999997
2    7.5008020100000001    1.9078092600000001    3.9086825300000001
2    3.5114363499999999    9.5687969699999993    7.2567654399999997
2    8.9451281999999992    7.2605082200000002    9.0573037999999997
2    7.3484578400000000    1.7218183400000000    9.3133880799999993
2    7.7142563300000004    9.0940986899999992    9.6450297799999998
2    5.8448564000000003    7.2782907999999997    8.6964975100000004
2    9.0571913199999994    7.2096918800000003    3.6427283600000000
2    5.1491348400000003    7.4112087700000000    6.1715991800000003
2    7.3006592200000000    8.9426611299999994    1.4384127900000001
2    9.0891076799999997    7.3007725099999998    0.6677890300000000
2    7.6362253999999998    5.2474180500000003    9.4663071900000002
2    4.0345408599999999    8.9785132099999991    9.6397276099999996
2    9.3238728500000008   10.8999822999999996    9.0311523099999995
2    7.2296911899999996    5.1815925399999996    6.8325191099999998
2    5.4810941900000003    0.4163562700000000    5.9070828000000004
2    0.4158410100000000    5.6138053200000000    6.4924396900000003
2   10.8613636099999997    9.2070802399999998    4.0367162700000003
2    1.5810151100000001    7.3236430500000003    3.4513526899999998
2    3.9574907100000001    9.0638144399999998    4.2112619899999997
2    3.2360449099999999    5.9970761100000001    1.5488692500000001
2    5.2545450400000000    7.1741711099999996    0.8439352700000000
2    9.1459865199999992   10.8676504900000008    3.5999253800000002
2    9.1962395000000008    3.3834953600000000    9.0509243799999997
2    7.1961840099999996    5.9043847300000003    1.6130177100000000
2    8.7533348699999998    3.6848508700000000    1.3186781700000001
2    9.0494758799999993    3.5659999700000000    3.5588294199999999
2    7.1367621699999999    5.2613336000000004    4.5414043599999996
2    3.2418811700000001    9.3051311900000009    1.6329740900000000
2    9.1155543699999999    3.4867889600000002    6.2457008399999996
2    7.2934387799999998    1.7093592799999999    6.7606757899999996
2    2.1277929200000001    3.5278868900000000    8.7864617900000006
2    6.9259656700000001    9.2839186199999997    6.8249149100000004
108
 Atoms. Timestep: 50
1    1.8755919579938898    1.6602614310776325    2.3970139239844253
1    3.4948323677303432    7.2453385868137410   10.5291178727265908
1    5.0482921272986463    5.2604865400779106    2.3199709833937909
1    9.0862154212385633    5.3628077832223902    7.9453351968345949
1    0.1031302406299862    7.0704320363685103    5.4247285391218290
1   10.7190023816222766   10.9047398741605743    0.0513561311714756
1    7.2605451154986458    3.3842817035920651    5.0122251751480666
1    7.3521190243667220    7.1123106468541986    5.5005461598541796
1    1.6600609312189283    5.2558851612091413    2.7387889479543226
1   10.4990293682207039    3.4906054778302034    5.0596068574314641
1   10.8946485274200189    3.4534575325678394    0.1264885152228425
1    1.7995138323837996    5.2649948808767437    7.5398442964133938
1    9.0429801099848408    9.0483012788044732    8.2338059706033597
1    1.9280480473828563    1.8035596401413136    7.9851264295074449
1    7.1790564828733654    7.2474919143983456   10.5319111976339492
1    8.7146925553312524    8.8703956015674059    2.9358796205818729
1    5.2965069603094381    9.0059210224012318    2.5559635294988849
1    5.4690842027380739    9.1230052499737937    7.7602658261196966
1    0.0882723043587026   10.7171614657186574    5.0647531859384554
1    3.5866127430405270    3.5822405194581139    5.3015140785813806
1   10.6894407584985878    7.0137942838554617   10.2362565000903274
1    1.7703998238571794    9.0984854368687476    7.9252609163592496
1    7.3390632013909434    3.6466068756193208    0.0069660746747726
1    8.9795301240169394    5.4871733247335666    2.2544048312131229
1    3.7986718353988387    7.2585974591245046    4.8005961458330804
1    3.6937161311435829    0.0304317184113572   10.5767367461920241
1    7.2842629769479235   10.8116393565740694    5.1578917929575079
1    5.3986741839517949    1.5135921564643633    2.7527553989681777
1    5.4312173084695283    1.8870176838451704    7.8617551821012883
1    1.4670782556757924    9.1329635851951405    2.4200760869912168
1    3.5299434270303629   10.8000714846890133    5.1717930990207650
1    3.6346654650071994    3.7665497745879697   10.0514101451320403
1    7.2187087561556487   10.9288397305481570    0.1084319303202946
1    9.0604354357305166    1.8122122920483541    2.5246883058418685
1    5.3671858881511314    5.5630977870225298    7.8696879825258526
1    9.0956490551077565    1.7540948754940711    7.8719507874028594
2   10.4287056936111089    9.6831956115070437    1.8688088686818547
2    5.1503702512350014    7.2312519719206474    3.4382329714086626
2    0.2306341704588233    4.9820017158542251    4.2128569758209373
2   10.5761561265868931    1.5297868468783398    4.3891899776585888
2    1.7155771427597044   10.8427120400175951    3.6350455005466107
2    1.7204387300330226   10.8031033946579331    0.7283008132257616
2    1.8365294570533730    3.4889985531067933    0.9570804933988961
2    0.3193887439988429    1.7601577098455570    9.8696637816382413
2    1.8094366262461574   10.8718991328995607    8.9867503329295442
2    1.8260220916332526   11.0237727717875931    6.1432177947985043
2    0.0272746471757869    2.2933990505700357    7.3498728692777835
2    2.0337520786571153    3.3576158193609387    3.7053174044153896
2    1.3576393057451350    7.8355587156882098    0.6870188672314625
2    1.6486263288217262    7.0492467429973811    8.8707519575878528
2   10.7491645409437968    1.7166094742129483    1.7072900389579093
2    3.8906671741286272    5.3285135775730685    6.7520214589262562
2    3.6450749366725352    1.7506278131437660    6.7718247228725454
2    5.1612233102739786    3.7302361829125688    8.5195232476024003
2   11.0775892429584371    5.3388336073831226    1.5419955573048292
2    1.9532287861973763    7.0247093905288462    6.2844244780455725
2   10.7991737626989419    9.0964285083749310    7.0722294841207338
2    3.6916528994815634    1.5475303114370693    4.0368526828730333
2    5.5959681620389370   10.7349637552624113    3.8161892792352337
2    5.5256126559558068   11.0394305961263939    1.1888028726442790
2    3.5900021325590563    1.8754990921582895    1.3604516084797036
2    3.6145683442903427    1.8353988087085720    9.2839821341921880
2    5.4971738137720321    0.2132841965217722    9.4218806503275516
2   10.3703910769115613    9.0749283082146697    9.7740168135688137
2    3.4901151908721482    5.3491493843432609    4.2763584463074471
2    5.3352169288135896    3.4664771352360337    3.4884805339844283
2    5.1874702962104848    3.9449351432735491    0.7718962516889016
2    9.2025795936030619    6.8718914429293578    6.3525437690293485
2    3.7598606268886630    5.6802228947954800    9.2891132176215550
2    5.3193617561870674    3.1692943503975841    5.9619538807285544
2   10.8337418142114537    5.1959513319644062    9.5391809512191230
2    9.3803101584981956    0.1895108315404148    6.0395262125826576
2    1.7316655389808837    3.6377637249845738    6.2425063819523201
2    7.1998566816728955    2.0044903265583183    1.6524036920984508
2    8.9723944816156482    0.5124139665152747    1.0807462393115366
2    7.1371332266506453    8.7876886642872591    4.3999815441218262
2    7.0842288926202572    1.8032176550223098    3.9066200030712079
2    3.5052507783570501    8.8750375420093164    7.1511687025407582
2    9.0330151911588832    7.1964791536330770    9.0053587382471871
2    7.1422777611903889    2.4327161504271304    9.0097179519773327
2    7.0412374142044767    9.2850908872852500    9.4331300539363276
2    5.8333173583334270    7.4130595290518402    8.7648945723984202
2    8.8320073261263587    7.0019525285376449    3.6180810544225057
2    5.5113723950813336    7.4220119702777714    6.2383583098729707
2    7.2284795383487905    9.3227427059255277    1.5419791518336921
2    8.8115923717538411    7.2082199999307157    0.9649543412618380
2    7.1901518368460948    5.2317344580488552    9.5370823448046149
2    3.8104900597686497    9.0771760696635226    9.7741166402153894
2    9.0254832072533109    0.0392331571474270    9.0852923834099872
2    7.0562448903721533    5.7544107577858803    6.9444497142754802
2    5.3467928843933432   10.5363422772208004    6.4584220404765551
2   10.6327301226473274    4.8752688576316165    6.8944900368617192
2   10.6870988017193209    8.7607765556441954    4.5783902026180137
2    2.0300128207770078    7.3123712416436790    3.5509954740424745
2    3.5223256255785840    9.1263965440926693    4.2321438658497819
2    3.1122742782153452    5.5871202423801449    1.3089777626032073
2    5.4816440636456640    7.5808510188687315    0.7748303905977657
2    8.6772221573716166   10.7713812459073210    3.2911456757922211
2    9.4456409952770990    3.3976288166562574    8.9043128425257656
2    7.2419852754591005    5.2407833736517828    1.3204462354061794
2    9.1451951978080555    3.4377769984040047    1.2365329174608608
2    8.7051012254125375    3.9433586458513679    3.7855375729083027
2    6.9036804626293131    5.7297750179025311    4.2182712257598967
2    3.3652902583157154    9.3947069570458979    1.8909145262271705
2    8.5890766814134807    3.6078267123832672    6.3625426533343541
2    7.4260926469742836    1.5815159999067119    6.6500808133109039
2    1.8083150673192423    3.9341136974475979    9.0519391664885358
2    7.5789037225559488    9.4014751365269618    6.7966919489390847
108
 Atoms. Timestep: 100
1    1.9181208064525628    1.7921176584872287    2.5341864441018758
1    3.5755290940215358    7.3957858066991848   10.5400042011876565
1    5.2168703778159253    5.1637831238313616    2.5212562912241818
1    9.1519898302163547    5.3621811148282399    8.0556045392072235
1   10.7270101408627276    7.2009109550035726    5.3570491060018117
1   10.7688772354377900   10.8990076092206376    0.1596954773589754
1    7.0761082615755795    3.4703137828413180    5.0018848280622095
1    7.4985872484783949    6.9651486749666596    5.3426282703333685
1    1.7751034721301060    5.2549561456653695    2.7568235261868099
1   10.5777437990868659    3.6939210873225714    5.1948612722918686
1    0.1107434571212050    3.3546847797593875   10.5139290953588969
1    1.6978590323534277    5.5260181632686134    7.4655332304211095
1    9.1826692947228796    9.2697087847780963    8.3024270046730084
1    1.8852945013170275    1.8458289011359497    7.9486553036748981
1    6.8961881411484125    7.1907892751610589   10.4865317621561154
1    8.9759749639081843    8.7590921428984014    2.7156271720585994
1    5.5207956067838779    9.1303453839513296    2.6110314507766086
1    5.4727617363453591    8.9442117349888672    7.6424255718169176
1   -0.0025901828869921   10.7649157512828584    5.0099416268813144
1    3.6081817934211342    3.5311033142444455    5.2231488776666142
1   10.7184806248636608    6.9645174896939173   10.4504308919604760
1    1.8775431198367756    9.0223891945956272    7.9328963104877941
1    7.3188949518508037    3.4526100259358206   10.5559829094096411
1    9.0102983505878562    5.5180567490993537    2.1043889007845742
1    3.5807913023461952    7.3868286685110736    5.1043139150237451
1    3.5546959906334652   10.8824358577629461   10.4565140202137350
1    7.4554693482390002   10.6103846807384024    5.2698231443217507
1    5.0570115061404826    1.5031236718359580    2.7506377260348844
1    5.5551529967856013    1.8746574436312731    8.0166122467693572
1    1.6079160413158762    9.1197454308774741    2.1912943443765647
1    3.7748778409306163   10.8543770421113415    5.2847381380844327
1    3.4473965590869575    3.8595815358052445   10.2359386599091398
1    7.1026072227159860   10.8940602155857000    0.1743045899801495
1    8.9471023699611933    1.6626811418538361    2.6463533924410836
1    5.3864701298550530    5.6998004327737846    7.8030881172892164
1    9.0463151178244043    1.8504788688622944    7.8529644505537952
2   10.5930813677532534    9.3947218657292471    1.5026612190286228
2    5.0743459626165652    7.3262005548837301    3.5939522299616371
2    0.2152408745325784    5.0855660311459614    4.1271113339945664
2   10.6555677667029602    1.6774159987891653    4.0640637405754170
2    1.2095871887024470   11.0574889859802266    3.3635835430364498
2    1.8978641065636845   10.8560164600949403    0.8398018761518112
2    1.7959283224416049    3.5613160327711566    1.0206841381624834
2    0.1759507035762747    1.6065797447907313    9.5638608602386856
2    1.9944179384889094   10.9306261537013842    8.9054775661055388
2    1.5393376167267598   -0.0924011252056954    6.2921439350603219
2   10.7444036117400277    1.9439511758778183    6.7002690317344769
2    1.7033007326842986    3.3280115605507250    3.9558866771501360
2    1.6271197409790890    7.6139963070336867    0.6071039892317960
2    1.2069834298599686    7.1478567326352920    8.6544010010605827
2   -0.2443283808341045    1.8839772651893962    1.4938638929839505
2    3.6296326164710773    5.5656360774620932    6.6141236629525570
2    3.8805245159784905    1.6998532552710093    6.8178726770277054
2    4.7900994339651266    3.7525200140881370    8.5827926804776613
2   11.0961905504969263    5.6358894397652843    1.1962719226892733
2    1.8337834670192641    7.2136665869838552    6.1220927209504108
2   10.7756862431185390    9.0025484061513374    7.0538314419136929
2    3.4366205447356446    1.6962215360439714    4.3008390129550040
2    5.4038731561084745   10.7973103144941120    3.7480298447772258
2    5.4599753562037279   10.7596544804480647    1.1204978287696907
2    3.5723524528977708    1.6357822829307056    1.5718214284204173
2    3.2890741864971771    1.8067107951329444    9.8223726362930837
2    5.2314124376464211   -0.2556622385573404    8.7383212229105407
2   10.7019033803370949    9.1776676588452766    9.6082840215768108
2    3.5470969644522397    5.2604588229467035    3.9757623808322480
2    5.1972759143964291    3.2805457478349882    3.5227793194259913
2    5.2969435725779803    3.8223140831900144    0.4357270137026801
2    9.1460648540420717    7.1771413750658626    6.4869729695289653
2    3.7452103514673598    5.7656523576150622    9.2028140280914119
2    5.5163618991410788    3.5035388777104237    6.5062695444491672
2   10.6715136461787452    4.9799558669287718    9.5304070685196667
2    9.0845897695216582   -0.1181310943910731    6.2668622181494857
2    1.6141772316572116    3.0202608513714293    6.0762634883234652
2    7.0681755013835481    1.7555368381410155    1.5865284597923459
2    8.9240829763415359    0.4577685228099050    0.9077498780240595
2    7.0936328029413946    8.6740116716813880    4.2495868823662173
2    7.2188089943463671    1.6993380744152680    4.1154853225415859
2    3.5298309139422721    9.0499607625750809    6.5752186980175056
2    9.2220018869600473    7.0581845956460070    8.8097053297775094
2    6.9834676410244896    1.5021318595845305    9.8304320332763204
2    7.7529405577934272    9.2446522744457038    9.8892392490743433
2    5.4850576592748936    7.6946620549160913    9.0830520301654314
2    8.9974540077204868    6.8298880116030887    3.7385408413616306
2    5.5760678504726879    7.1096053241129242    6.1934764913750824
2    7.2925495284133355    9.1666501688090598    1.6033437092551051
2    9.1435120957437981    7.5390501223295452    1.0643374049268790
2    7.0315041405555458    5.4159455430613539    9.7320865186764731
2    3.6490509392859356    9.0193337615871432    9.2151786792081278
2    9.1484119321834658    0.0792807407389389    8.6364367889543825
2    7.0760197615756368    5.5977916330231237    7.0395814418159590
2    5.4611296637249689   10.5302005503210001    6.3209669447761758
2   10.7872746144528797    5.3380148647030943    6.7716869435662410
2   10.6876787753527633    8.8086982990014295    4.2345358667971009
2    1.7362272726599837    7.2735732653083396    3.1410945059847473
2    3.3607442364693072    9.3435620748415715    4.0321395789510097
2    3.4833542840554963    5.5258022382172749    1.2340013318392957
2    5.3807213864593448    7.1406632543692794    0.7448422581944898
2    8.9005433604155453   10.6215496041491733    3.6818944587806257
2    8.5715144483110599    3.4744984600201159    8.7013027247409731
2    7.1540635431076538    5.5486811867792154    1.8795927722468802
2    9.1916226287156348    3.7281219731238213    0.6801565812777159
2    9.2140296977107692    3.8712771573418263    3.4385240797612271
2    6.7145187202377183    5.4722766299330994    4.4922374563849559
2    3.6575134258263433    8.9849049537352368    1.0373868394150911
2    8.6011443930611957    3.5576038177120735    6.2768119389642347
2    7.3093305198243614    1.4211160246512153    7.1683341646467555
2    1.7234230785983777    3.7493656218621965    8.5962381964270982
2    7.5280280180940906    8.5546608577424212    7.1508965035572070
108
 Atoms. Timestep: 150
1    1.6804895064154404    1.7875184841183189    2.6246717192065105
1    3.5589294073258335    7.4135731646541219   10.6393655430348915
1    5.3348873946292814    5.3233753387313962    2.6208467433663762
1    9.0573464868753621    5.3506920204286050    7.9961948552514448
1   10.5985236466181814    7.4100820312641140    5.1704860889249851
1   10.7261020299602787   10.9270153949800832    0.1211604641531372
1    6.9937106887975418    3.5763558062915739    5.0632405897280037
1    7.3683749114057093    6.8599786505270615    5.2139904677348348
1    1.8465964132639823    5.4549406685915551    2.6626723816334907
1   10.8146951178929154    3.6345613605730898    5.2891765015488525
1    0.2521256301291265    3.4025226849874834   10.3876466161974861
1    1.7820221259611977    5.6438664326994328    7.6088465736901254
1    9.3051152871415432    9.2476924438047163    8.2153114792940194
1    1.7711568405477001    1.7827030276540243    7.7709810059371494
1    7.0077685405964800    7.1787931506592804   10.5376578649992751
1    9.3381497655085717    8.7237055142354745    2.5411115815820948
1    5.4741833289793931    9.0123391878615333    2.7114000972559560
1    5.4199177103633120    8.9911265089612566    7.5218184017331806
1   10.8358216390565989   10.8672828004061692    5.1039304465754745
1    3.5469425009492670    3.4448150726051230    5.1388910265094481
1   10.9274578434018288    7.1749848096569453   10.5388880422805524
1    1.7401643008567020    9.0438092061767215    7.7797481180762169
1    7.0819901853910894    3.4348086821577897   10.5869951561366111
1    9.1517356504636815    5.3196946020070310    2.2526477737813742
1    3.4303288159754777    7.3384595578389744    5.2078413767367104
1    3.4324372732961677   10.7496738873789148   10.2228730947739486
1    7.6109587072238156   10.6008390065525138    5.3744914018538044
1    5.1069162582277823    1.5156342082236176    2.5690657656797149
1    5.4513716170734057    1.7647125410643023    8.0444774349580470
1    1.9291513450469584    9.0325518082464207    2.1803369805903570
1    3.8113135193468599   10.8479775517837513    5.4820717612467424
1    3.4987500318342302    4.0170413687390685   10.5378150399762003
1    7.0697033501782869   10.7868509765456206    0.1674936511160383
1    8.8619380973265862    1.4893736666467821    2.7822926159274206
1    5.3107501808993378    5.5209608833875805    7.7711354497005631
1    8.9919682562935037    1.8951135641783503    7.6485146942912046
2   10.8846382645272151    8.8953677960091593    1.2588931721565069
2    4.7089511327590321    7.4494334877819464    3.7075110628089964
2    0.0305592563893252    5.6929887655816813    4.2272573262884583
2   10.4119016477865500    1.9934509852166729    4.0271149927098611
2    0.9813299230725461   11.0797985366817162    3.1519999396327929
2    1.6741332503922015   10.6295917081605591    0.5383579021639494
2    1.9068699582324582    3.2602477691837528    0.7660040595822922
2    0.0221832910409072    1.9374472525706359    9.0822741668652380
2    2.1048898206672924   10.9134939383767051    8.4205868072017775
2    1.5395525764445033   10.8982532121145805    5.7655910896518332
2   11.0266071152960521    1.7852103307543756    6.5721057703777213
2    1.9169372447952571    3.7601378841412099    3.5692883017276413
2    1.6705128166350522    7.7428662148097862    0.7117746085566209
2    1.2273300609810254    7.1937005585932576    8.7585195880128168
2   10.8216603245239593    1.7658350254751114    1.5079503557399769
2    3.5718941920428575    5.5249325557588946    6.7645719826445143
2    3.7047100857225317    1.3217777361297143    6.8869878586945115
2    5.3988312869565762    3.8333847008753206    8.8954202361104446
2   -0.0022342468337451    5.5147118460647340    1.4179487083208915
2    1.6173119388774957    7.1393408802382341    5.7436509827704789
2    0.0271217728029782    8.8376838262607187    6.8311090377629933
2    3.3418834811618257    1.5798294762000651    4.2404314758781911
2    5.5960258583759872   10.7712538162762996    3.5213369572272453
2    5.4475620260728492   10.7834159240368468    0.9540452895976466
2    3.3873455389712706    1.3349539117518916    1.6093861260842486
2    3.3930726152873616    1.8988479737806625    9.3034627176977835
2    5.1606757034819344   10.9093413445421827    9.0172183081128487
2    0.0886302194732637    9.3711588894371705    9.5518756057346881
2    3.5134493951906363    5.3708986895838819    4.1734308336586095
2    5.1878570036169407    3.2452897925446673    3.4778960695051722
2    5.1531247625396688    3.6893276412651521    1.1675375778823176
2    9.0996209433946635    6.9822679245220050    6.5532548257628722
2    2.9925751613275633    5.7159665181221531    9.5748528386311449
2    5.2202441666976256    3.5381888478439154    6.4051261974772666
2   10.5656462320277100    5.2465436912202179    9.5987673652405174
2    9.3857803923477903   10.5090105326344787    6.3558080980632496
2    2.0530655471995276    3.6950661233066020    6.4557878905126831
2    7.0297162310215251    1.9152676253954666    1.5957800444814361
2    8.8564663276522744    0.0648391718750231    1.1500769287320822
2    7.4347277118892361    8.7803498103884170    4.7121713071017579
2    7.9012382670548966    1.6870566209665723    4.7097867029976790
2    3.3526562318665283    8.9441098881544274    6.5996134479659974
2    9.0477822231939182    7.4208145078251109    8.9138649435000374
2    6.7478446413554281    1.5680466881889563    9.8640241046520689
2    7.3728542869740581    9.0543206309781414    9.9814251359441979
2    5.4320733005825330    7.3294104506533975    8.9515876991260779
2    8.9047211011526315    7.0857969947693098    3.8240117712602122
2    5.4433248408058441    7.3438257110449880    6.4041069003247166
2    7.2995342217858532    8.9550454849136081    1.8139211909512964
2    9.0492772932602836    6.9793389306313562    0.7994138665590080
2    7.3030396908956901    5.4843906703020862    9.4978115051727219
2    3.5042408473650277    8.8364954350105283    9.2229469433705180
2    9.1112641553280458    0.1334311210928320    9.3256293532206218
2    6.8379508578656658    5.5385249574408304    6.8213495161639113
2    5.4677762417415581   10.3838558869370665    6.1730736078183632
2   11.0649588487233199    5.2558249354831563    6.8457224028512407
2   10.6041886153677289    9.0229201844159164    4.0797953798836426
2    2.0871120998339725    7.3639551569630441    3.1669211428036630
2    3.3777402455936727    9.6061141056682828    3.9160142054032718
2    3.5140336889074844    5.4716468846053985    1.4956629236150045
2    5.2641572878071621    7.4665450834103009    0.9889619622912443
2    9.0190719471026330   10.6259093999675880    3.5568124843124096
2    8.6588382724634556    3.3018955329929240    8.7627081961888127
2    7.0605511037807558    5.6972122505405496    1.6299835506602889
2    8.9587484348023985    3.7176898595603025    0.9158212056813452
2    8.5338454783044799    3.8039330859213578    3.6875104264336720
2    6.6227833983693047    5.4102199662272454    4.3441029469699108
2    3.7515346310666939    9.1297371693373925    1.1246708045536324
2    9.0496549552707979    3.6455290597272181    6.4148793784446640
2    7.1728259607595177    1.4750767833113412    6.8880727494265317
2    1.7512600830214813    3.7849733706843538    9.1032198512440861
2    7.4401697306937029    9.2849284655723991    7.4136458027861218
108
 Atoms. Timestep: 200
1    1.3934748597025814    1.7642628261454862    2.5720019100028493
1    3.7664791020185677    7.3509249990023777    0.0146202706224472
1    5.3350173722122873    5.4976447509275808    2.6188532466985257
1    8.9716308167592764    5.4101464073056516    7.9986835612409308
1   10.6476959208707758    7.3046611514832760    5.1803230566403284
1   10.5294371254137555   10.9689202218791522   -0.0420566436073200
1    7.1230014171376066    3.5159208744552979    5.1436731567772602