LAMMPS (2 Aug 2023 - Development - patch_2Aug2023-219-g06e2d5d306)
# Siviraman GAP test

units          metal
boundary       p p p
atom_style     atomic

read_data     tetrag_hfo2_sample_DATA
Reading data file ...
  orthogonal box = (0 0 0) to (10.956 10.956 10.629)
  2 by 3 by 1 MPI processor grid
  reading atoms ...
  108 atoms
  read_data CPU = 0.003 seconds

pair_style     quip
pair_coeff     * * gap.xml "Potential xml_label=GAP_2020_2_11_0_18_44_47_601" 72 8

variable T        equal  2000
variable Tdamp    equal  0.1
variable Tseed    equal  12280329
variable dumpf    equal  50

velocity     all create $T ${Tseed} mom yes rot yes dist gaussian
velocity     all create 2000 ${Tseed} mom yes rot yes dist gaussian
velocity     all create 2000 12280329 mom yes rot yes dist gaussian

thermo       10
thermo_style custom step temp pe ke etotal press

dump           run_dump all xyz ${dumpf} dump_run.xyz
dump           run_dump all xyz 50 dump_run.xyz
dump_modify    run_dump sort id format line "%s %21.16f %21.16f %21.16f"

dump           run_forces all custom ${dumpf} dump_run_forces.custom id type x y z fx fy fz
dump           run_forces all custom 50 dump_run_forces.custom id type x y z fx fy fz
dump_modify    run_forces sort id format line "%4d %1d %21.16f %21.16f %21.16f %21.16f %21.16f %21.16f"


fix          nvt all nvt temp $T $T ${Tdamp}
fix          nvt all nvt temp 2000 $T ${Tdamp}
fix          nvt all nvt temp 2000 2000 ${Tdamp}
fix          nvt all nvt temp 2000 2000 0.1
run 500
Neighbor list info ...
  update: every = 1 steps, delay = 0 steps, check = yes
  max neighbors/atom: 2000, page size: 100000
  master list distance cutoff = 6
  ghost atom cutoff = 6
  binsize = 3, bins = 4 4 4
  1 neighbor lists, perpetual/occasional/extra = 1 0 0
  (1) pair quip, perpetual
      attributes: full, newton on
      pair build: full/bin/atomonly
      stencil: full/bin/3d
      bin: standard
Per MPI rank memory allocation (min/avg/max) = 3.109 | 3.109 | 3.109 Mbytes
   Step          Temp          PotEng         KinEng         TotEng         Press     
         0   2000          -1063.2762      27.661671     -1035.6146      24960.978    
        10   2090.3559     -1064.5307      28.911369     -1035.6193      19680.672    
        20   2171.18       -1065.6754      30.029234     -1035.6462      11600.723    
        30   2063.5793     -1064.2568      28.541026     -1035.7157      11106.927    
        40   1929.0317     -1062.4836      26.680119     -1035.8035      17492.243    
        50   2028.6642     -1063.942       28.058121     -1035.8839      9315.0293    
        60   2074.2554     -1064.6598      28.688686     -1035.9712      6613.8584    
        70   2045          -1064.3781      28.284059     -1036.094       22619.827    
        80   2058.9771     -1064.6974      28.477373     -1036.2201      32536.612    
        90   2351.5119     -1068.9583      32.523374     -1036.4349      10950.888    
       100   1833.098      -1062.0503      25.353277     -1036.697       10838.314    
       110   1987.2722     -1064.4584      27.485635     -1036.9727      10796.259    
       120   1877.7049     -1063.2288      25.970228     -1037.2586      10775.041    
       130   1826.1542     -1062.793       25.257238     -1037.5358      3237.1994    
       140   1938.0486     -1064.628       26.804832     -1037.8231      7254.2081    
       150   1987.9751     -1065.6343      27.495356     -1038.139       17468.239    
       160   2058.812      -1066.9941      28.47509      -1038.5191      13238.41     
       170   1862.247      -1064.7065      25.756431     -1038.9501      8229.2757    
       180   1756.1942     -1063.6385      24.289633     -1039.3488      1266.9482    
       190   1984.8293     -1067.2519      27.451847     -1039.8        -8974.7262    
       200   1757.4446     -1064.5558      24.306927     -1040.2489      2629.2162    
       210   1808.2363     -1065.6862      25.009419     -1040.6768      7124.1374    
       220   1785.9879     -1065.7942      24.701705     -1041.0925      7483.0055    
       230   1820.193      -1066.6607      25.174789     -1041.4859      3633.7261    
       240   1772.7973     -1066.3627      24.519268     -1041.8434      1485.8487    
       250   1810.2505     -1067.2195      25.037277     -1042.1822     -2206.944     
       260   1663.7758     -1065.4664      23.011409     -1042.455       7797.2166    
       270   1780.3127     -1067.2959      24.623212     -1042.6727      3848.4181    
       280   1847.6484     -1068.4115      25.554521     -1042.8569     -3897.1445    
       290   1903.0484     -1069.3425      26.32075      -1043.0217     -4491.7846    
       300   1724.0364     -1066.9935      23.844864     -1043.1487      11642.796    
       310   1817.1562     -1068.3692      25.132789     -1043.2365      17717.997    
       320   1840.2917     -1068.7246      25.452772     -1043.2718      9258.821     
       330   1771.6195     -1067.7767      24.502978     -1043.2738      8941.6468    
       340   1682.2326     -1066.4806      23.266682     -1043.2139      8357.2349    
       350   1759.8817     -1067.4091      24.340635     -1043.0685      530.74182    
       360   1870.2264     -1068.6901      25.866793     -1042.8233     -6742.5562    
       370   2001.7399     -1070.1677      27.685735     -1042.4819     -9321.628     
       380   1850.6372     -1067.6519      25.595859     -1042.0561     -979.91955    
       390   1875.7521     -1067.517       25.943218     -1041.5738      6898.1377    
       400   2069.3194     -1069.5597      28.620416     -1040.9393      12968.13     
       410   1787.8699     -1064.9822      24.727735     -1040.2545      23488.157    
       420   1768.6291     -1064.0415      24.461618     -1039.5799      17229.113    
       430   1856.8256     -1064.4968      25.68145      -1038.8154      17607.951    
       440   1656.0202     -1060.9874      22.904144     -1038.0832      30209.194    
       450   1860.6731     -1063.1293      25.734663     -1037.3947      12735.156    
       460   2033.7031     -1064.8228      28.127814     -1036.695      -4810.3268    
       470   2086.6566     -1064.9778      28.860204     -1036.1176     -942.67961    
       480   1952.0314     -1062.6676      26.998225     -1035.6694      12298.059    
       490   2092.1211     -1064.2569      28.935783     -1035.3211      8102.2123    
       500   2183.9447     -1065.2325      30.20578      -1035.0267      5457.9677    
Loop time of 47.5377 on 6 procs for 500 steps with 108 atoms

Performance: 0.909 ns/day, 26.410 hours/ns, 10.518 timesteps/s, 1.136 katom-step/s
94.3% CPU use with 6 MPI tasks x no OpenMP threads

MPI task timing breakdown:
Section |  min time  |  avg time  |  max time  |%varavg| %total
---------------------------------------------------------------
Pair    | 40.591     | 41.622     | 44.662     |  22.2 | 87.56
Neigh   | 0.00057208 | 0.00064415 | 0.00079658 |   0.0 |  0.00
Comm    | 2.8563     | 5.8963     | 6.9281     |  58.9 | 12.40
Output  | 0.006216   | 0.006899   | 0.0085692  |   1.0 |  0.01
Modify  | 0.0067267  | 0.0068265  | 0.006914   |   0.1 |  0.01
Other   |            | 0.004961   |            |       |  0.01

Nlocal:             18 ave          20 max          15 min
Histogram: 1 0 1 0 0 0 0 0 3 1
Nghost:          544.5 ave         549 max         534 min
Histogram: 1 0 0 0 0 0 1 0 2 2
Neighs:              0 ave           0 max           0 min
Histogram: 6 0 0 0 0 0 0 0 0 0
FullNghs:      1349.33 ave        1513 max        1125 min
Histogram: 1 1 0 0 0 0 0 3 0 1

Total # of neighbors = 8096
Ave neighs/atom = 74.962963
Neighbor list builds = 10
Dangerous builds = 0
Total wall time: 0:00:50
