TiAl config # 214

2 atoms

2 atom types

0.0000000000000000e+00  2.8186357315284174 xlo xhi
0.0000000000000000e+00  2.8186357315284174 ylo yhi
0.0000000000000000e+00  4.064092262967999 zlo zhi
0.0 0.0 0.1959273402867757 xy xz yz

Masses

1 47.867 # Ti
2 26.981539  # Al

Atoms

1 1       1.47692848       1.36039173       1.98890986
2 2      -0.07703613       0.04783871      -0.03196409
