ITEM: TIMESTEP
0
ITEM: NUMBER OF ATOMS
2
ITEM: BOX BOUNDS xy xz yz pp pp pp
0.0000000000000000e+00 2.8186357315284174e+00 0.0000000000000000e+00
0.0000000000000000e+00 3.0145630718151932e+00 0.0000000000000000e+00
0.0000000000000000e+00 4.0640922629679990e+00 1.9592734028677569e-01
ITEM: ATOMS id type x y z fx fy fz
   1 1    1.4769284800000000    1.3603917299999999    1.9889098599999999   -0.4461309280728121    0.5403359378812906   -0.1331972766772402
   2 2    2.7415996015284176    0.2437660502867757    4.0321281729679992    0.4461309280728120   -0.5403359378812910    0.1331972766772405
