LAMMPS (2 Aug 2023 - Development - patch_2Aug2023-219-g06e2d5d306)
units          metal
boundary       p p p
atom_style     atomic

read_data     alt_TiAl_example_non-orthog_DATA
Reading data file ...
  triclinic box = (0 0 0) to (2.8186357 2.8186357 4.0640923) with tilt (0 0 0.19592734)
  1 by 1 by 1 MPI processor grid
  reading atoms ...
  2 atoms
  read_data CPU = 0.009 seconds

pair_style     pace
ACE version: 2022.6.27
Recursive evaluator is used
pair_coeff     * * IBP_ACE_example_TiAl_2.yace Ti Al
Loading IBP_ACE_example_TiAl_2.yace
Total number of basis functions
	Al: 12 (r=1) 52 (r>1)
	Ti: 12 (r=1) 52 (r>1)
Mapping LAMMPS atom type #1(Ti) -> ACE species type #1
Mapping LAMMPS atom type #2(Al) -> ACE species type #0

dump           run_forces all custom 1 dump_forces.custom id type x y z fx fy fz
dump_modify    run_forces sort id element Ti Al format line "%4d %1d %21.16f %21.16f %21.16f %21.16f %21.16f %21.16f"

fix eprint all print 1 "$(step) $(pe)" file pe.dat

run 0
WARNING: No fixes with time integration, atoms won't move (src/verlet.cpp:60)
Neighbor list info ...
  update: every = 1 steps, delay = 0 steps, check = yes
  max neighbors/atom: 2000, page size: 100000
  master list distance cutoff = 7.5
  ghost atom cutoff = 7.5
  binsize = 3.75, bins = 1 1 2
  1 neighbor lists, perpetual/occasional/extra = 1 0 0
  (1) pair pace, perpetual
      attributes: full, newton on
      pair build: full/bin/atomonly
      stencil: full/bin/3d
      bin: standard
0 -2.586194324082285334
Per MPI rank memory allocation (min/avg/max) = 2.978 | 2.978 | 2.978 Mbytes
   Step          Temp          E_pair         E_mol          TotEng         Press     
         0   0             -2.5861943      0             -2.5861943     -198786.41    
Loop time of 3.33e-07 on 1 procs for 0 steps with 2 atoms

0.0% CPU use with 1 MPI tasks x no OpenMP threads

MPI task timing breakdown:
Section |  min time  |  avg time  |  max time  |%varavg| %total
---------------------------------------------------------------
Pair    | 0          | 0          | 0          |   0.0 |  0.00
Neigh   | 0          | 0          | 0          |   0.0 |  0.00
Comm    | 0          | 0          | 0          |   0.0 |  0.00
Output  | 0          | 0          | 0          |   0.0 |  0.00
Modify  | 0          | 0          | 0          |   0.0 |  0.00
Other   |            | 3.33e-07   |            |       |100.00

Nlocal:              2 ave           2 max           2 min
Histogram: 1 0 0 0 0 0 0 0 0 0
Nghost:            387 ave         387 max         387 min
Histogram: 1 0 0 0 0 0 0 0 0 0
Neighs:              0 ave           0 max           0 min
Histogram: 1 0 0 0 0 0 0 0 0 0
FullNghs:          216 ave         216 max         216 min
Histogram: 1 0 0 0 0 0 0 0 0 0

Total # of neighbors = 216
Ave neighs/atom = 108
Neighbor list builds = 0
Dangerous builds = 0
Total wall time: 0:00:01
