108
 Atoms. Timestep: 0
1    1.9498426099999999    1.6123894800000000    2.2463115000000000
1    3.2310994800000001    7.2917578000000001   10.6101818899999998
1    5.0867491899999999    5.3743590899999996    2.2430686899999999
1    8.9265713699999996    5.1206595400000001    7.8247845199999997
1    0.2592721000000000    7.0133755899999999    5.3305418199999997
1   10.7365987599999997   10.8800927800000000   10.6153213300000004
1    7.1881782400000001    3.5480399000000000    5.1419050200000003
1    7.2680072800000000    7.1069656900000000    5.4505338700000001
1    1.6494264599999999    5.2833683000000002    2.6433772400000000
1   10.7283949100000005    3.2646578100000001    5.3122076399999996
1   10.8235741700000005    3.6351975099999998    0.1936622900000000
1    1.9354248400000000    5.1519876800000004    7.7933675300000003
1    8.9461627799999999    9.0473408899999992    8.0078490599999999
1    1.7098071600000000    1.6894044600000000    7.9303547200000004
1    7.3893707199999996    7.2870110099999996   10.4758578999999994
1    8.7307771299999999    9.0393448700000008    2.9513383800000002
1    5.0789946400000003    8.9861253300000001    2.4193840299999998
1    5.4426058800000003    9.3071524599999993    7.9839223300000004
1   10.9507573300000001   10.7516530699999997    5.3004673799999997
1    3.5276752199999999    3.4735595899999998    5.1816768299999998
1   10.9538038699999998    7.2940740100000001   10.3258917399999994
1    1.6456279000000000    9.0987234299999997    7.9318484199999997
1    7.2406413799999996    3.7825271200000001    0.0748470800000000
1    8.9499556299999998    5.4080370699999998    2.6872656600000000
1    3.8236803699999999    6.9904107199999999    4.8131646100000003
1    3.7737331799999998    0.0466739800000000    0.0220746300000000
1    7.1999626299999999    0.0728454600000000    5.2426781499999997
1    5.6696258100000003    1.6242438699999999    2.6256736900000002
1    5.3494679300000003    1.7250430200000000    7.5813982700000002
1    1.4256022800000001    8.9866387299999992    2.5796010100000002
1    3.3299887699999999   10.9341262399999994    5.2506655200000001
1    3.7357748000000002    3.6106027200000002   10.2165931000000008
1    7.1817182600000002   10.9535638199999994   10.5472857399999995
1    9.0363334999999996    1.7914524800000000    2.5222215200000000
1    5.4428051599999998    5.4758693899999997    7.8838400899999996
1    9.0497654500000007    1.7001676400000001    7.7713846300000000
2   10.5057749000000005    9.5845480799999994    1.6476423200000001
2    5.0698647899999996    7.1086391100000004    3.3652439699999999
2   10.8249983400000005    5.5721666000000001    4.0577155600000001
2   10.5201266100000002    1.7316611000000000    4.2294791399999996
2    1.7629813400000001   10.8695582599999998    3.8848047999999999
2    1.7024185500000000    0.0846790300000000    1.1687234900000001
2    2.1226030599999999    3.9810609000000001    0.6740873500000000
2    0.4495063800000000    1.9355864400000000    9.7257516200000005
2    1.7441040500000000   10.8285213500000008    8.9739178099999997
2    1.7574875700000001   10.4756398799999992    6.2722654799999997
2   10.9542293999999991    1.8100072300000001    6.7498245399999997
2    1.8843236500000000    3.3871044800000001    3.3237903400000000
2    1.4719650000000000    7.5332583900000003    0.9597057000000000
2    1.8063053099999999    7.1928590899999998    8.9430213199999997
2   10.7286291499999997    2.2867134199999999    1.6239633499999999
2    3.7478391100000001    5.1082562500000002    6.4553532999999996
2    3.5104206200000001    1.6528777100000001    6.7340960599999997
2    5.3909712299999999    3.5057395499999999    8.6978579099999997
2   10.8328709900000000    5.2844045199999998    1.4801322500000000
2    2.3622152700000001    7.5195828899999997    5.9504287099999997
2   10.8529835800000001    8.6150234799999996    6.8946615600000003
2    3.8762220599999999    1.6630748900000001    4.1044106700000000
2    5.8673867599999996   10.6716270499999997    3.3763120500000001
2    5.5116577099999997   10.6540145099999997    0.7522161400000000
2    3.9002888900000001    1.6740566400000001    1.6405635100000000
2    3.6148129999999998    1.6211643600000001    9.5406527899999993
2    5.7888704700000000    0.0107577000000000    8.8401978700000008
2   10.8968633500000003    9.1563911000000004    9.6441568300000000
2    3.4844188500000000    5.0834485799999998    3.7930377300000000
2    5.5925345699999998    3.3697822799999999    3.3712241600000001
2    5.3253816100000000    4.1550901700000002    0.5425526300000000
2    8.9840330700000006    7.0992439000000003    6.2406166699999996
2    3.5141731500000000    5.4887050000000004    9.1911944400000003
2    5.3005107200000001    3.7454195800000001    6.0235617599999998
2   10.9428808499999999    5.4587485600000001    9.1918897899999994
2    9.1598810299999993    0.0837115100000000    6.4382472000000002
2    1.7347139899999999    3.5966836700000000    6.2946254899999996
2    6.6201868800000003    1.9379128400000001    0.9569061200000000
2    9.0192770899999992    0.7570895100000000    0.8552598300000001
2    7.3258765400000003    8.7171040400000006    4.3839670799999997
2    7.5008020100000001    1.9078092600000001    3.9086825300000001
2    3.5114363499999999    9.5687969699999993    7.2567654399999997
2    8.9451281999999992    7.2605082200000002    9.0573037999999997
2    7.3484578400000000    1.7218183400000000    9.3133880799999993
2    7.7142563300000004    9.0940986899999992    9.6450297799999998
2    5.8448564000000003    7.2782907999999997    8.6964975100000004
2    9.0571913199999994    7.2096918800000003    3.6427283600000000
2    5.1491348400000003    7.4112087700000000    6.1715991800000003
2    7.3006592200000000    8.9426611299999994    1.4384127900000001
2    9.0891076799999997    7.3007725099999998    0.6677890300000000
2    7.6362253999999998    5.2474180500000003    9.4663071900000002
2    4.0345408599999999    8.9785132099999991    9.6397276099999996
2    9.3238728500000008   10.8999822999999996    9.0311523099999995
2    7.2296911899999996    5.1815925399999996    6.8325191099999998
2    5.4810941900000003    0.4163562700000000    5.9070828000000004
2    0.4158410100000000    5.6138053200000000    6.4924396900000003
2   10.8613636099999997    9.2070802399999998    4.0367162700000003
2    1.5810151100000001    7.3236430500000003    3.4513526899999998
2    3.9574907100000001    9.0638144399999998    4.2112619899999997
2    3.2360449099999999    5.9970761100000001    1.5488692500000001
2    5.2545450400000000    7.1741711099999996    0.8439352700000000
2    9.1459865199999992   10.8676504900000008    3.5999253800000002
2    9.1962395000000008    3.3834953600000000    9.0509243799999997
2    7.1961840099999996    5.9043847300000003    1.6130177100000000
2    8.7533348699999998    3.6848508700000000    1.3186781700000001
2    9.0494758799999993    3.5659999700000000    3.5588294199999999
2    7.1367621699999999    5.2613336000000004    4.5414043599999996
2    3.2418811700000001    9.3051311900000009    1.6329740900000000
2    9.1155543699999999    3.4867889600000002    6.2457008399999996
2    7.2934387799999998    1.7093592799999999    6.7606757899999996
2    2.1277929200000001    3.5278868900000000    8.7864617900000006
2    6.9259656700000001    9.2839186199999997    6.8249149100000004
108
 Atoms. Timestep: 50
1    1.8662552022518488    1.6547035929706304    2.3863998818307315
1    3.4927033162722947    7.2441320688109290   10.5169327001011474
1    5.0404463305061560    5.2497763978487777    2.3078879615374519
1    9.0883779511364224    5.3609952753300316    7.9446174652635877
1    0.0832079794634106    7.0580579294255390    5.4393573890111560
1   10.7190290667592478   10.9130028938330295    0.0505847350743439
1    7.2656684297716509    3.3864701198858316    5.0246837959491026
1    7.3438893755958352    7.1167400230319426    5.5038050050191467
1    1.6577432182459635    5.2641733054303597    2.7474212416769515
1   10.5044774484988217    3.4904572242003100    5.0659481011378542
1   10.8976969872159088    3.4544044157211387    0.1327266240909802
1    1.7917788110120545    5.2758997262833551    7.5413022781438750
1    9.0489610813093346    9.0519877905773232    8.2339137472925845
1    1.9259005570796746    1.7879319100099158    7.9760226602074553
1    7.1843330949877835    7.2472691114081904   10.5320243944275944
1    8.7101460234395063    8.8638537146241703    2.9456549503459035
1    5.2986298666745384    9.0005533067597661    2.5511709731657213
1    5.4662618857522904    9.1315706555482858    7.7657228857995211
1    0.0947801206843849   10.7195628004185028    5.0704425128982979
1    3.5911622819347366    3.5869638469243665    5.3055112234840029
1   10.6906355824060668    7.0267232811834113   10.2210292919221111
1    1.7626314158006884    9.0998258066851374    7.9300086575819320
1    7.3366671096507385    3.6364241429056112    0.0112736141820005
1    8.9804412042967989    5.4833988986731095    2.2564344292134213
1    3.7878467872904844    7.2640962529704165    4.7991719524781642
1    3.6957426017997670    0.0331878662908221   10.5764013476647172
1    7.2822479883685194   10.8095697361607694    5.1629548689460147
1    5.3945568314519177    1.5332653359876516    2.7486809234262974
1    5.4331265399410702    1.8828235535815083    7.8557470052279355
1    1.4698241768789624    9.1327111477508698    2.4194426027714999
1    3.5365048589976009   10.8023649919801983    5.1753312307976111
1    3.6359460149565663    3.7739759073192536   10.0485845773295637
1    7.2250165783915890   10.9188310920165428    0.1112700116267473
1    9.0591777862382141    1.8212262181486611    2.5168179345991271
1    5.3648510407270278    5.5631091677800333    7.8663661141604937
1    9.0967599844446152    1.7573163230020383    7.8754434400917219
2   10.4364598915569413    9.6401042222979108    1.8931121835277605
2    5.1671871565537293    7.2281631851938259    3.4307880168922686
2    0.2306976940971507    4.9896830321486103    4.1932665385635977
2   10.6249357655635652    1.5406739132756608    4.3988414336350061
2    1.7524541452035607   10.8218264104450927    3.6280076233415128
2    1.7095054196179134   10.8485866658660779    0.7861461225248634
2    1.8203308855298177    3.4546918142386591    0.9429391784927419
2    0.3127398957674797    1.7441577892971829    9.8240920119915671
2    1.8057177375999662   10.8178288941770671    9.0311266733753452
2    1.8139950584087057   11.0438856502439648    6.1680625687251709
2    0.0217444314514947    2.3079620281860755    7.3272832645904797
2    2.0205395337815939    3.3608628470806554    3.7146058463323102
2    1.3599611850051434    7.8278645145746113    0.6930050739454431
2    1.6708238017554016    7.0364558554704946    8.8855020273344358
2   10.7435091220283088    1.6851950443744113    1.6738639899207959
2    3.8907746587522043    5.3129677002913267    6.7317858933914687
2    3.6515774141971242    1.7418468525428508    6.7517614327480509
2    5.1673566775123421    3.7224056600222184    8.5691854731281811
2   11.0917364123533897    5.2998267611560532    1.5479359121491956
2    1.9601102732532214    6.9828249732426571    6.2646404492949799
2   10.8348077140998260    9.0686329087957596    7.0440222121300620
2    3.7295146632584757    1.5432008924402243    4.0229045897903548
2    5.6053461077116102   10.6976941548753661    3.7864429975917115
2    5.5366950826384462    0.0939943744985091    1.1862733867614346
2    3.6257570647257920    1.8750484398895328    1.3412880577552311
2    3.6130793017388791    1.8693763167503750    9.2806801914436186
2    5.4613110875596904    0.1582430822736537    9.3770315275065581
2   10.3743164336520746    9.0553557440343404    9.7585764726988291
2    3.4815302502989462    5.3727463921862011    4.3157865364540076
2    5.3475531585399647    3.5294251098076441    3.5028358808966549
2    5.1988926788268595    3.9659362814752974    0.7541858734321248
2    9.2138200994721036    6.8607192817723703    6.3414560419847943
2    3.7926834047603184    5.6863558590604253    9.3228374059929831
2    5.3191836933376573    3.1870641205074857    5.9452485374373136
2   10.8227880810723764    5.2160798599778291    9.5558365734791444
2    9.3775809926478804    0.1626116660381254    6.0262474517898310
2    1.7593267116368063    3.6544054486262452    6.2592660417516335
2    7.2270480366839491    2.0260387302688585    1.6574350742381283
2    8.9914655459194233    0.5029426109627728    1.0542711982257829
2    7.1557123239364007    8.7725219140755275    4.3591117042021930
2    7.0469320157971715    1.8093430342354575    3.9046852175227396
2    3.4359638908130616    8.8681853835320918    7.0569989692379309
2    8.9738952019453322    7.2001914358351078    9.0153105481791194
2    7.0909268701004482    2.3791361645647906    9.0591603690973717
2    7.0479842769622092    9.2851360212336616    9.4262681905984298
2    5.8237029565629692    7.4385028825972466    8.8038371847281596
2    8.8604395391121766    7.0234888852605408    3.5443862617388509
2    5.4696587300055164    7.4186539568422019    6.2466797285886289
2    7.2666326744956642    9.3545026681766750    1.5411593416391216
2    8.8244786470783225    7.1842467112739445    0.9542922444816820
2    7.2091429377352583    5.2244330635123593    9.5275579415204845
2    3.7467341619686976    9.0499918443248788    9.7431907764143819
2    9.0573446053769882    0.0473137603780127    9.0684095469407371
2    7.0705252085312251    5.7148654914608876    6.9268906703206206
2    5.3624732192517772   10.5395885030248824    6.4480013887162073
2   10.6402072874149258    4.8838760480951491    6.8711526410548265
2   10.6293554301944493    8.7364217360347087    4.5694741229101519
2    2.0563841921896588    7.3365402782506965    3.5684068920545808
2    3.5536606764848950    9.1288127591465944    4.2351805849812836
2    3.1252901388947283    5.5813922083849379    1.2897024383909943
2    5.4968226112346850    7.5949004677666530    0.7946991750920060
2    8.7016914426520504   10.7740934384325548    3.3067326325913000
2    9.4217620134101630    3.4303812456891984    8.9042662312819143
2    7.2500793323237458    5.2383468833978091    1.2963501231668728
2    9.1585981791081661    3.4450255652571786    1.2686765354692675
2    8.7342349917057565    3.9818904617383550    3.8355885415801283
2    6.9869886654686990    5.7116465100537734    4.2304243533844330
2    3.3627421528151893    9.3604261766408854    1.8865087887187144
2    8.5671464922008997    3.5974649602979492    6.4391554334758645
2    7.4547878572324375    1.5328650896083447    6.6363900304037724
2    1.8329899952345960    3.9431447188524436    9.0618498996998209
2    7.5893328875891877    9.3569564972801125    6.8051473256533273
108
 Atoms. Timestep: 100
1    1.8963563181718202    1.7949509348401229    2.5264792198511121
1    3.5793602824644934    7.3956460209790489   10.5342972242853588
1    5.1929351112933047    5.1665360980551931    2.4747704737084648
1    9.1265322005968699    5.3402205614424663    8.0716376441207949
1   10.6826180126130268    7.2146935146518132    5.3886132015718866
1   10.7814854561573643   10.9231469467999425    0.1360398579278924
1    7.0945992104836613    3.4739353764669767    5.0278079534118181
1    7.4430830854042433    6.9739190233082384    5.3767080645389571
1    1.7812488945977474    5.2592172750385480    2.7945283595357542
1   10.5718933940199005    3.6864125444731952    5.1880312696630400
1    0.1290448549489358    3.3631300547526077   10.5164282057859158
1    1.6938947359249923    5.5269271928429387    7.4706450720916493
1    9.1977333112681450    9.2840354990896667    8.3083534910069119
1    1.8870420021637024    1.7998079719026772    7.9260689564309503
1    6.8909480460630927    7.1843654217609716   10.4636664416911405
1    8.9820938602553504    8.7807666757592280    2.7468470321172509
1    5.5116442873929152    9.1441177082816338    2.5919414708752271
1    5.4462807940383762    8.9592185150719459    7.6343443007075029
1    0.0164107785939930   10.7625981830704553    4.9971589155865788
1    3.6165109899156831    3.5447941705372781    5.2456566389172226
1   10.7160220320739157    6.9921970763270060   10.4195339182418518
1    1.8775467283841027    9.0203465567695620    7.9487248129992976
1    7.2951976778977947    3.4217406140257980   10.5457572227845748
1    9.0238154364745782    5.5009508668542519    2.0793563622977458
1    3.5753166560205880    7.4074170639264310    5.1100123564658784
1    3.5623324278451003   10.8889957111067890   10.4563378002164757
1    7.4507155970563028   10.5971215743396794    5.2681846753705948
1    5.0444768169315282    1.5406320861537017    2.7307596317109928
1    5.5663176763927105    1.8686051367782461    8.0220692973283452
1    1.6252665493651406    9.1141253158434274    2.1641734192168296
1    3.7872201863570703   10.8514737354874828    5.3015041078704783
1    3.4463287311667248    3.8644269055383202   10.1937973136663320
1    7.1070974517353660   10.8869139999829603    0.1503845209352376
1    8.9525631942946067    1.6713043111093573    2.6357012042099224
1    5.3945400254804170    5.7076696716289064    7.8181284122252492
1    9.0676538540964930    1.8599417147585855    7.8733386069344329
2   10.5840364876926873    9.4185179272569943    1.5299786930422012
2    5.1364337730266758    7.2265322994800547    3.6701756189391523
2    0.3118777399095897    5.0851324221902727    4.1864341604499167
2   10.6791614498023559    1.5500050430344643    3.9961361128947361
2    1.3572834843028996   11.0296209372799154    3.3556591930461526
2    1.9665482793444313   10.8048663681013899    0.8737781730767512
2    1.8236611287272690    3.5061706321915667    0.9885748116785111
2    0.0735056749894444    1.6683445893269735    9.5183547545936875
2    1.9219223423772200   10.9134537555893676    8.9155160079198286
2    1.5409788897926648   -0.0040676662256379    6.3216171746024754
2   10.7182332794974311    1.9192019592954659    6.6431706323375890
2    1.6194594519422796    3.3321753222976440    3.8826775443165356
2    1.5938090812643866    7.6464134777357353    0.5568483467794167
2    1.1420425303105306    7.0968081301806567    8.6166348302460953
2   -0.2632845596075470    1.8917620486159448    1.4698238323198070
2    3.6355247175896701    5.5412463129912837    6.5968466877040486
2    3.9259071918411670    1.7103668738437172    6.8356619724764531
2    4.7926849692289188    3.7390136162250789    8.6494018952599436
2   11.0804076062870518    5.6111648157813638    1.1932430948553256
2    1.9054614569553536    7.1981430997944713    6.1486327555503051
2   -0.1847420093842511    8.9419334238009558    7.0221977883155047
2    3.3843404608877803    1.7318218702021864    4.3432924219962921
2    5.4527608754353274   10.8155046981393514    3.7553640316413577
2    5.4581173447120097   -0.1814198479632786    1.1494225923152330
2    3.5902384632578959    1.5737231357548540    1.5931752886315509
2    3.3330869064743571    1.8129307959891019    9.8099278695204841
2    5.2504785895361703   10.6298142507326325    8.7590544070531902
2   10.7382585904272645    9.1902360559968876    9.5745109918720779
2    3.5712796451843904    5.1926103277924396    3.9692837327859132
2    5.2483454226819104    3.2839850165157922    3.5980948149483236
2    5.2814686517353469    3.7935594229644809    0.4286540650212394
2    9.1012151703470678    7.1518933544986307    6.5335262407197403
2    3.6742434422579868    5.7483010557928385    9.1906171068179336
2    5.6434400265224518    3.4993670601931557    6.5783381964948511
2   10.6255491908326078    4.9707539675480890    9.5250544840452882
2    9.0261138659022766   -0.2171836754862453    6.3732748350712054
2    1.6566912669981944    3.1100821881677096    6.1261400499427179
2    7.1458365492552067    1.7321590051395028    1.6523993219963333
2    8.9681156113943103    0.3454350662181030    0.9862922488334079
2    7.1085894625314774    8.7480297938610718    4.2462644896221384
2    7.2984348924624358    1.7439048043222081    4.1930298729636402
2    3.4948801796114646    9.1507153419037266    6.5414179187239085
2    9.3132458493311248    7.0433907577104380    8.7918371044360750
2    6.9659215916398427    1.5041580599072912    9.9228547046538882
2    7.7598946564905535    9.1635598017135251    9.9026878879817399
2    5.5040687646866804    7.7509851392247215    9.1174471986442587
2    9.0224047048821951    6.8239970797862695    3.8355180105689457
2    5.5168188595895336    7.0916811480222908    6.1740380774542238
2    7.2621585218690985    9.0751813635682961    1.6550411846876409
2    9.1821944460811000    7.5298524752118752    1.1106729959932302
2    7.0181811995813623    5.4264624563195056    9.6365633807742110
2    3.6029773283072482    8.9183234157488034    9.2046421376232974
2    9.1667456287215714    0.1111368202186830    8.7254454376500572
2    7.0952968599931738    5.6057783496455205    7.0221671120662128
2    5.4256895251078463   10.5074197845471815    6.3344006909908472
2   10.7869281517098496    5.3203089783767252    6.7823427325419354
2   10.6915007300321481    8.7546730149067145    4.2187225306653344
2    1.7222221705447720    7.2712363869262004    3.1102160308649274
2    3.4907186514601949    9.3329233780330121    3.9617587381071315
2    3.4841262644119575    5.5173432075652080    1.2364622771143310
2    5.3740072550682365    7.0245744703197497    0.7542444838983207
2    8.9218299636766041   10.5945155724228002    3.7160680912386996
2    8.5024549982948887    3.4757482841629392    8.6814626842308318
2    7.1597643105557314    5.4972125888876686    1.9132935584919064
2    9.1271480678490455    3.6493227136834840    0.6495791658867083
2    9.3001058471920164    3.8430752977282459    3.4366476105389077
2    6.7576743892306270    5.4674602640689711    4.4984137589026529
2    3.7660818768563145    8.9695328387910109    0.9566646958180283
2    8.6171279823240337    3.5364567073626252    6.3326904689297905
2    7.3266333473424412    1.4397218517500940    7.2540395183900372
2    1.7562375283720100    3.7123082400767058    8.6201349984082789
2    7.4533984793092740    8.5927035280351287    7.2289133713145493
108
 Atoms. Timestep: 150
1    1.6644818600223561    1.7660303860663675    2.6363897502006965
1    3.6111157503564986    7.3984270056680277   10.6224885711053716
1    5.3244472056162495    5.3051936614773734    2.5984673626549188
1    8.9702213452953909    5.2970735984936352    8.0073461011728675
1   10.5548068030272297    7.4606219503502658    5.2368923013551036
1   10.7299603406928945   10.9608595275757263    0.1043085761151246
1    7.0101966099079478    3.5668563896246708    5.0862121479769895
1    7.3264683224170080    6.8727730622208680    5.2138738880756943
1    1.8559091436029616    5.4508141080358081    2.7048397656911400
1   10.8071381629550860    3.6231153891683938    5.2578121585597515
1    0.2795518068729990    3.4073097315125267   10.3984782330729431
1    1.7922818705249128    5.6072611420194436    7.5784592703652489
1    9.3048868991007421    9.2539478085239200    8.2145788089025871
1    1.7725688636068422    1.7394406085155389    7.7135993653368349
1    6.9798819803262857    7.1889623627709165   10.5147271534063513
1    9.3541456559567191    8.7504796721402034    2.5560270962936702
1    5.4075063993834291    9.0989406179011105    2.7257974080728791
1    5.3693617124961639    9.0258567318619232    7.5416861175228291
1   -0.0916148977859632   10.8522860864604596    5.1020510439591131
1    3.5748260819098161    3.4757417258893080    5.2154176840979094
1   10.9443908177782561    7.1671334110635883   10.5394450069893733
1    1.7020492021850837    9.0173912831081857    7.8238036210497723
1    7.0606468692926310    3.4496052683441465   10.5998780639576005
1    9.1604366859279480    5.3136396755677380    2.2087675187163391
1    3.4305608978728865    7.3713619604193088    5.1996293961107565
1    3.4812437811057642   10.7772928678250306   10.2290696452594432
1    7.6161623171960837   10.5897074405955749    5.3711232464005585
1    5.1157122757196545    1.5515593368270602    2.5917630892856214
1    5.4637644414692019    1.7785161323332677    8.0659357046453319
1    1.9369928840059782    9.0173776821798555    2.1189176360228426
1    3.8098001653269131   10.8805126898064284    5.4326628253754112
1    3.4405860540825528    3.9930704037077756   10.4341958301665620
1    7.0978249796505644   10.7530071715125803    0.1586445733333739
1    8.8713305409442462    1.4817342223310419    2.8242929441516855
1    5.3185728142170383    5.5272857896371965    7.8179531501227029
1    9.0686402155202170    1.8646277621216745    7.6896403674232943
2   10.7983326970036515    8.9196477645130852    1.2140680152183383
2    4.6539412024022324    7.3496087544148985    3.6527078729991675
2    0.0329637683458719    5.8720023585609544    4.1902537340799162
2   10.5101208332913387    1.9993646886335246    3.9955697574169755
2    1.0541651018198122   11.0834423774385638    3.2551127911873494
2    1.7411647432915569   10.5410672588935554    0.5439980088284703
2    1.8848777522902196    3.1914955615917875    0.8169596837267951
2    0.0519303154820118    2.0147314071647244    8.9308465167717248
2    2.1789504207253727   10.8566684857742732    8.2856674860451704
2    1.5754617647754421   -0.0074963428034054    5.7897125844475070
2   10.8811749552599917    1.7377237964913124    6.4262005968859492
2    1.6533042959602353    3.8211057083961006    3.6718852823174681
2    1.6367436600263860    7.7298246025850768    0.7150942424137740
2    1.2609468154505434    7.2745523431462056    8.7802704591189222
2   -0.0264433423823946    1.6152408247474734    1.3251804726928216
2    3.6006674416025093    5.3692808909006233    6.5891162776982393
2    3.6865783876340412    1.3526741929681829    6.8418987779813785
2    5.3684924094422648    3.8041140194234213    8.9425835842206887
2   11.0219141238622438    5.4124200303009058    1.4009805894231477
2    1.6519475109013324    7.0982161353180739    5.8841181897787678
2    0.0164032789060341    9.0120605243372047    6.8646399247630336
2    3.3708294458099299    1.5738708271602291    4.1637915829148149
2    5.7906201671725608   10.7797786278436245    3.6422159479865557
2    5.3390425524374585   -0.1932201565017527    0.9510087794278427
2    3.3940655508059234    1.2811061417598537    1.5812075820018225
2    3.5374615045018225    1.9633565064745579    9.2174291392022702
2    5.1557036678257528   10.8514886059777922    8.9923185652335711
2   10.9719129288769146    9.4703874478275072    9.4425827206092876
2    3.5129656541068508    5.2657478747721189    4.0182916597216218
2    5.2082025349316190    3.2802597963179658    3.5929704426786895
2    5.1617339657978620    3.5701822877001219    1.1979977855086943
2    9.0439585676630188    7.0667692220538250    6.5660699257104209
2    3.0811245247290597    5.7333808690820849    9.4099313160282598
2    5.3149731122859070    3.3920115934363504    6.4224068679160684
2   10.5329197306220976    5.1646876237294679    9.5274925933022754
2    9.3809338886824172   -0.4181683505093908    6.2487678812046727
2    1.9715855962423181    3.5563208457588109    6.5258183254048916
2    7.0975249184128808    1.9842102150351100    1.5974977986751142
2    8.8827069350320578    0.1371662622921380    1.1978042736006418
2    7.2519052971693965    8.7592031456913002    4.7336158772469883
2    8.0798831181055224    1.7399348250669116    4.7943673572434111
2    3.3000576188573461    9.0090152233487455    6.5997447110539209
2    8.9064692105826317    7.4298491522671011    8.9994085794681880
2    6.7906212093784291    1.5408216302671249    9.9342668187509204
2    7.4196302392052438    9.0808729640588179    9.8877434516960658
2    5.3583704155436340    7.2959175283268447    8.9824719181476969
2    8.9046880467079568    7.1371976576691871    3.8157746906338077
2    5.2951231694575993    7.2626223689337213    6.4289087395641928
2    7.2690556375430271    8.8425985708420782    1.7758722089230210
2    9.0897740106966207    7.0013626301944720    0.9064732297228242
2    7.2138417834396149    5.4654427557371354    9.5120400339981863
2    3.6209696541552234    8.8883524393602169    9.2910649966705705
2    9.0443591912042844    0.1785596294809439    9.3320512672168086
2    6.9174134119920421    5.6483709462185301    6.9338190955292527
2    5.4517834665404727   10.4176824500375567    6.2824309652776780
2   11.0276530282180456    5.2941688225407724    6.8241588392873611
2   10.7179547880851072    8.9832915358486538    4.0890935488256597
2    2.2534539067046100    7.3920365735805431    3.2545421181361891
2    3.5582465708722162    9.5607690393481928    3.9515872622102637
2    3.4625307562965135    5.4349188982795376    1.3220631203827997
2    5.3075588034807781    7.3586448579483026    0.8483454171698606
2    8.9603264205259929   10.5982470480600561    3.5233658766873335
2    8.5027717931667652    3.2569253867051819    8.7515596973672700
2    7.1226201303251671    5.5966647903543860    1.5200535029082543
2    8.9888819030328531    3.7282589955136354    0.7896952023710663
2    8.6557895874688864    3.7372871733134616    3.8155724587035489
2    6.6018550092056589    5.3968968495040794    4.3701394260224911
2    3.7620145325512886    8.9990618361577965    1.1610268202524150
2    9.0192407485070767    3.7280693408237853    6.4114913225936387
2    7.2164197170192725    1.4088983855933388    6.8712854990197618
2    1.8379342339013947    3.7963921329649355    9.2073986829294778
2    7.4487636192228690    9.2513528867462629    7.3787096149779483
108
 Atoms. Timestep: 200
1    1.4335435349446550    1.7695725838505483    2.6234076876643178
1    3.7913876375013715    7.2894018128904223   10.5683210249534767
1    5.3518554573656623    5.4888696644455459    2.6547236291387426
1    8.8496628761107754    5.3192875809645255    7.9511319881752192
1   10.6559671470922783    7.3319063922801915    5.2026420173614483
1   10.5414757796351832    0.0084745123566368   10.5771979461418759
1    7.1469818987495755    3.4965945652334787    5.1675208157385750