LAMMPS (2 Aug 2023 - Development - patch_2Aug2023-219-g06e2d5d306)
OMP_NUM_THREADS environment is not set. Defaulting to 1 thread. (src/comm.cpp:98)
  using 1 OpenMP thread(s) per MPI task
Reading data file ...
  orthogonal box = (0 0 0) to (10.956 10.956 10.629)
  2 by 3 by 1 MPI processor grid
  reading atoms ...
  108 atoms
  read_data CPU = 0.013 seconds
ACE version: 2022.6.27
Recursive evaluator is used
Loading Siviraman_GAP_HfO2_N3_rcut5_maxdeg10_regQR.yace
Total number of basis functions
	O: 20 (r=1) 1166 (r>1)
	Hf: 20 (r=1) 1166 (r>1)
Mapping LAMMPS atom type #1(Hf) -> ACE species type #1
Mapping LAMMPS atom type #2(O) -> ACE species type #0
Neighbor list info ...
  update: every = 1 steps, delay = 0 steps, check = yes
  max neighbors/atom: 2000, page size: 100000
  master list distance cutoff = 7
  ghost atom cutoff = 7
  binsize = 3.5, bins = 4 4 4
  1 neighbor lists, perpetual/occasional/extra = 1 0 0
  (1) pair pace, perpetual
      attributes: full, newton on
      pair build: full/bin/atomonly
      stencil: full/bin/3d
      bin: standard
Setting up Verlet run ...
  Unit style    : metal
  Current step  : 0
  Time step     : 0.001
Per MPI rank memory allocation (min/avg/max) = 3.12 | 3.121 | 3.121 Mbytes
   Step          Temp          PotEng         KinEng         TotEng         Press     
         0   2000          -1063.1311      27.661671     -1035.4694      29976.049    
        10   2088.2132     -1064.3565      28.881734     -1035.4748      24913.96     
        20   2170.6574     -1065.5232      30.022006     -1035.5012      15390.536    
        30   2070.8089     -1064.2126      28.641017     -1035.5716      13938.532    
        40   1900.2242     -1061.9381      26.281688     -1035.6564      23754.84     
        50   2051.6284     -1064.11        28.375734     -1035.7343      14035.744    
        60   2085.8138     -1064.6694      28.848548     -1035.8208      9538.1868    
        70   2075.9528     -1064.6604      28.712162     -1035.9483      26276.291    
        80   2139.1374     -1065.6801      29.586058     -1036.094       33098.567    
        90   2332.4989     -1068.6129      32.260409     -1036.3525      10013.537    
       100   1763.3234     -1061.0255      24.388237     -1036.6373      20316.214    
       110   1926.0574     -1063.5632      26.638984     -1036.9242      19422.245    
       120   1814.4442     -1062.2919      25.095279     -1037.1966      19426.193    
       130   1885.7397     -1063.5464      26.081356     -1037.4651      9977.3779    
       140   1942.9261     -1064.6199      26.872292     -1037.7476      10887.054    
       150   1948.9622     -1065.0101      26.955776     -1038.0543      15169.374    
       160   1955.713      -1065.4446      27.049145     -1038.3954      6827.3823    
       170   1921.8529     -1065.3597      26.580831     -1038.7788     -2779.4612    
       180   1793.6461     -1063.9678      24.807624     -1039.1601      1278.0204    
       190   1814.9621     -1064.6561      25.102442     -1039.5537      2731.6903    
       200   1712.6166     -1063.6051      23.686919     -1039.9181      5131.0225    
       210   1840.9465     -1065.7285      25.461828     -1040.2667      1511.0357    
       220   1809.6        -1065.6528      25.02828      -1040.6246      8455.2546    
       230   1805.9243     -1065.9356      24.977442     -1040.9582      8200.4115    
       240   1800.0548     -1066.1764      24.896262     -1041.2801      5240.1905    
       250   1666.8119     -1064.6092      23.053402     -1041.5558      9898.7724    
       260   1854.9477     -1067.4534      25.655476     -1041.798       11171.51     
       270   1857.809      -1067.7223      25.695051     -1042.0273      19519.556    
       280   1741.5322     -1066.315       24.086845     -1042.2282      23143.537    
       290   1842.2529     -1067.8723      25.479896     -1042.3924      19451.996    
       300   1878.6102     -1068.52        25.982749     -1042.5373      21853.299    
       310   1747.1091     -1066.8156      24.163978     -1042.6516      26283.505    
       320   1765.6049     -1067.1409      24.41979      -1042.7211      17572.573    
       330   1734.3654     -1066.7258      23.987723     -1042.738       14184.16     
       340   1634.1136     -1065.2856      22.601157     -1042.6844      15653.806    
       350   1825.7748     -1067.7932      25.25199      -1042.5412      7004.4138    
       360   1917.1868     -1068.8184      26.516295     -1042.3021      3301.1147    
       370   1808.1595     -1067.0132      25.008357     -1042.0048      10163.863    
       380   1806.2666     -1066.6066      24.982176     -1041.6244      18781.36     
       390   2015.6831     -1069.0084      27.878581     -1041.1298      19798.26     
       400   2027.5296     -1068.5867      28.042429     -1040.5443      22282.795    
       410   1872.4632     -1065.8457      25.897731     -1039.948       24435.013    
       420   1887.995      -1065.458       26.112548     -1039.3455      26258.321    
       430   1792.7868     -1063.4967      24.79574      -1038.7009      33298.355    
       440   1836.9865     -1063.4769      25.407057     -1038.0698      36262.152    
       450   1920.0728     -1063.9709      26.556212     -1037.4147      28904.61     
       460   1845.9968     -1062.337       25.531678     -1036.8053      19369.718    
       470   1842.9876     -1061.7538      25.490058     -1036.2637      11346.59     
       480   1930.3633     -1062.4597      26.698537     -1035.7612      8844.2353    
       490   2025.3053     -1063.3103      28.011664     -1035.2986      19075.986    
       500   2080.1033     -1063.6752      28.769566     -1034.9056      34343.356    
Loop time of 0.783143 on 6 procs for 500 steps with 108 atoms

Performance: 55.162 ns/day, 0.435 hours/ns, 638.453 timesteps/s, 68.953 katom-step/s
97.7% CPU use with 6 MPI tasks x 1 OpenMP threads

MPI task timing breakdown:
Section |  min time  |  avg time  |  max time  |%varavg| %total
---------------------------------------------------------------
Pair    | 0.39487    | 0.40422    | 0.41538    |   1.2 | 51.61
Neigh   | 0.000505   | 0.00061383 | 0.000705   |   0.0 |  0.08
Comm    | 0.35564    | 0.36694    | 0.37654    |   1.3 | 46.85
Output  | 0.005087   | 0.0054032  | 0.005852   |   0.3 |  0.69
Modify  | 0.00332    | 0.0035652  | 0.003814   |   0.3 |  0.46
Other   |            | 0.002408   |            |       |  0.31

Nlocal:             18 ave          20 max          15 min
Histogram: 1 0 0 0 0 0 3 0 1 1
Nghost:        651.333 ave         663 max         643 min
Histogram: 2 0 0 1 0 1 1 0 0 1
Neighs:              0 ave           0 max           0 min
Histogram: 6 0 0 0 0 0 0 0 0 0
FullNghs:      2186.67 ave        2432 max        1823 min
Histogram: 1 0 0 0 0 2 1 0 1 1

Total # of neighbors = 13120
Ave neighs/atom = 121.48148
Neighbor list builds = 8
Dangerous builds = 0
Total wall time: 0:00:06
