LAMMPS (7 Feb 2024 - Development - patch_2Jun2022-7271-g417598498c)
Reading data file ...
  orthogonal box = (0 0 0) to (10.956 10.956 10.628996)
  1 by 1 by 1 MPI processor grid
  reading atoms ...
  108 atoms
  read_data CPU = 0.001 seconds
**************** Begin of POD Potentials ****************
species: Hf O 
periodic boundary conditions: 1 1 1
number of enviroment clusters: 1
number of principal compoments: 1
inner cut-off radius: 1
outer cut-off radius: 5.5
bessel polynomial degree: 4
inverse polynomial degree: 8
one-body potential: 1
two-body radial basis functions: 8
three-body radial basis functions: 6
three-body angular degree: 4
four-body radial basis functions: 4
four-body angular degree: 2
five-body radial basis functions: 4
five-body angular degree: 2
six-body radial basis functions: 3
six-body angular degree: 2
seven-body radial basis functions: 0
seven-body angular degree: 0
number of local descriptors per element for one-body potential: 1
number of local descriptors per element for two-body potential: 16
number of local descriptors per element for three-body potential: 90
number of local descriptors per element for four-body potential: 64
number of local descriptors per element for five-body potential: 192
number of local descriptors per element for six-body potential: 198
number of local descriptors per element for seven-body potential: 0
number of local descriptors per element for all potentials: 561
number of global descriptors: 1122
**************** End of POD Potentials ****************

WARNING: No fixes with time integration, atoms won't move (src/verlet.cpp:60)
Generated 0 of 1 mixed pair_coeff terms from geometric mixing rule
Neighbor list info ...
  update: every = 1 steps, delay = 0 steps, check = yes
  max neighbors/atom: 2000, page size: 100000
  master list distance cutoff = 10.5
  ghost atom cutoff = 10.5
  binsize = 5.25, bins = 3 3 3
  2 neighbor lists, perpetual/occasional/extra = 1 1 0
  (1) pair zero, perpetual
      attributes: half, newton on
      pair build: half/bin/atomonly/newton
      stencil: half/bin/3d
      bin: standard
  (2) compute pod/gdd, occasional
      attributes: full, newton on
      pair build: full/bin/atomonly
      stencil: full/bin/3d
      bin: standard
Per MPI rank memory allocation (min/avg/max) = 3.699 | 3.699 | 3.699 Mbytes
   Step          Temp          PotEng         KinEng         TotEng         Press       v_exampledd  
         0   0              0              0              0              0              0.045282586  
         1   0              0              0              0              0              0.045798982  
         2   0              0              0              0              0              0.0462055    
         3   0              0              0              0              0              0.046497996  
         4   0              0              0              0              0              0.046672359  
         5   0              0              0              0              0              0.04672455   
         6   0              0              0              0              0              0.046650681  
         7   0              0              0              0              0              0.046447151  
         8   0              0              0              0              0              0.046110845  
         9   0              0              0              0              0              0.045639381  
        10   0              0              0              0              0              0.045031401  
        11   0              0              0              0              0              0.044286866  
        12   0              0              0              0              0              0.043407342  
        13   0              0              0              0              0              0.042396223  
        14   0              0              0              0              0              0.04125889   
        15   0              0              0              0              0              0.040002755  
        16   0              0              0              0              0              0.038637224  
        17   0              0              0              0              0              0.037173546  
        18   0              0              0              0              0              0.035624579  
        19   0              0              0              0              0              0.03400449   
        20   0              0              0              0              0              0.032328422  
        21   0              0              0              0              0              0.030612148  
        22   0              0              0              0              0              0.0288717    
        23   0              0              0              0              0              0.027122996  
        24   0              0              0              0              0              0.02538151   
        25   0              0              0              0              0              0.023662017  
        26   0              0              0              0              0              0.021978427  
        27   0              0              0              0              0              0.020343681  
        28   0              0              0              0              0              0.018769659  
        29   0              0              0              0              0              0.017267099  
        30   0              0              0              0              0              0.015845504  
        31   0              0              0              0              0              0.014513065  
        32   0              0              0              0              0              0.013276634  
        33   0              0              0              0              0              0.012141725  
        34   0              0              0              0              0              0.011112537  
        35   0              0              0              0              0              0.010191955  
        36   0              0              0              0              0              0.0093815597 
        37   0              0              0              0              0              0.0086816372 
        38   0              0              0              0              0              0.0080911975 
        39   0              0              0              0              0              0.0076080141 
        40   0              0              0              0              0              0.0072286933 
        41   0              0              0              0              0              0.0069487795 
        42   0              0              0              0              0              0.0067628958 
        43   0              0              0              0              0              0.0066649147 
        44   0              0              0              0              0              0.0066481477 
        45   0              0              0              0              0              0.006705535  
        46   0              0              0              0              0              0.0068298172 
        47   0              0              0              0              0              0.0070136798 
        48   0              0              0              0              0              0.0072498665 
        49   0              0              0              0              0              0.0075312614 
        50   0              0              0              0              0              0.0078509408 
        51   0              0              0              0              0              0.0082022094 
        52   0              0              0              0              0              0.008578627  
        53   0              0              0              0              0              0.0089740192 
        54   0              0              0              0              0              0.0093824487 
        55   0              0              0              0              0              0.0097981506 
        56   0              0              0              0              0              0.010215466  
        57   0              0              0              0              0              0.0106288    
        58   0              0              0              0              0              0.011032589  
        59   0              0              0              0              0              0.011421254  
        60   0              0              0              0              0              0.011789137  
        61   0              0              0              0              0              0.012130442  
        62   0              0              0              0              0              0.012439214  
        63   0              0              0              0              0              0.012709377  
        64   0              0              0              0              0              0.012934837  
        65   0              0              0              0              0              0.013109627  
        66   0              0              0              0              0              0.013228081  
        67   0              0              0              0              0              0.013284992  
        68   0              0              0              0              0              0.013275716  
        69   0              0              0              0              0              0.013196223  
        70   0              0              0              0              0              0.013043088  
        71   0              0              0              0              0              0.012813467  
        72   0              0              0              0              0              0.012505077  
        73   0              0              0              0              0              0.012116172  
        74   0              0              0              0              0              0.011645536  
        75   0              0              0              0              0              0.011092481  
        76   0              0              0              0              0              0.01045687   
        77   0              0              0              0              0              0.0097392011 
        78   0              0              0              0              0              0.008940772  
        79   0              0              0              0              0              0.0080639189 
        80   0              0              0              0              0              0.0071122816 
        81   0              0              0              0              0              0.0060910172 
        82   0              0              0              0              0              0.0050069242 
        83   0              0              0              0              0              0.0038684734 
        84   0              0              0              0              0              0.0026857416 
        85   0              0              0              0              0              0.0014702382 
        86   0              0              0              0              0              0.00023462206
        87   0              0              0              0              0             -0.0010076718 
        88   0              0              0              0              0             -0.0022428485 
        89   0              0              0              0              0             -0.0034571542 
        90   0              0              0              0              0             -0.0046372139 
        91   0              0              0              0              0             -0.0057702886 
        92   0              0              0              0              0             -0.0068444471 
        93   0              0              0              0              0             -0.00784866   
        94   0              0              0              0              0             -0.0087728343 
        95   0              0              0              0              0             -0.009607821  
        96   0              0              0              0              0             -0.010345431  
        97   0              0              0              0              0             -0.010978492  
        98   0              0              0              0              0             -0.011500965  
        99   0              0              0              0              0             -0.011908139  
       100   0              0              0              0              0             -0.012196888  
       101   0              0              0              0              0             -0.012365981  
       102   0              0              0              0              0             -0.012416406  
       103   0              0              0              0              0             -0.012351658  
       104   0              0              0              0              0             -0.012177922  
       105   0              0              0              0              0             -0.011904117  
       106   0              0              0              0              0             -0.011541737  
       107   0              0              0              0              0             -0.011104481  
       108   0              0              0              0              0             -0.010607682  
       109   0              0              0              0              0             -0.010067537  
       110   0              0              0              0              0             -0.0095002459 
       111   0              0              0              0              0             -0.0089211299 
       112   0              0              0              0              0             -0.0083438499 
       113   0              0              0              0              0             -0.0077798092 
       114   0              0              0              0              0             -0.007237803  
       115   0              0              0              0              0             -0.006723923  
       116   0              0              0              0              0             -0.0062416834 
       117   0              0              0              0              0             -0.0057923293 
       118   0              0              0              0              0             -0.0053752893 
       119   0              0              0              0              0             -0.0049887153 
       120   0              0              0              0              0             -0.0046300403 
       121   0              0              0              0              0             -0.0042964964 
       122   0              0              0              0              0             -0.0039855371 
       123   0              0              0              0              0             -0.0036951394 
       124   0              0              0              0              0             -0.0034239878 
       125   0              0              0              0              0             -0.003171556  
       126   0              0              0              0              0             -0.0029380982 
       127   0              0              0              0              0             -0.0027245631 
       128   0              0              0              0              0             -0.0025324463 
       129   0              0              0              0              0             -0.0023636033 
       130   0              0              0              0              0             -0.0022200543 
       131   0              0              0              0              0             -0.0021038043 
       132   0              0              0              0              0             -0.0020166935 
       133   0              0              0              0              0             -0.001960279  
       134   0              0              0              0              0             -0.0019357444 
       135   0              0              0              0              0             -0.0019438249 
       136   0              0              0              0              0             -0.0019847392 
       137   0              0              0              0              0             -0.0020581299 
       138   0              0              0              0              0             -0.0021630206 
       139   0              0              0              0              0             -0.0022978015 
       140   0              0              0              0              0             -0.0024602434 
       141   0              0              0              0              0             -0.0026475402 
       142   0              0              0              0              0             -0.002856366  
       143   0              0              0              0              0             -0.0030829216 
       144   0              0              0              0              0             -0.0033229627 
       145   0              0              0              0              0             -0.003571821  
       146   0              0              0              0              0             -0.0038244458 
       147   0              0              0              0              0             -0.0040754828 
       148   0              0              0              0              0             -0.0043193974 
       149   0              0              0              0              0             -0.004550642  
       150   0              0              0              0              0             -0.0047638627 
       151   0              0              0              0              0             -0.0049541325 
       152   0              0              0              0              0             -0.005117203  
       153   0              0              0              0              0             -0.0052497598 
       154   0              0              0              0              0             -0.005349651  
       155   0              0              0              0              0             -0.0054160601 
       156   0              0              0              0              0             -0.0054496057 
       157   0              0              0              0              0             -0.0054523609 
       158   0              0              0              0              0             -0.0054277874 
       159   0              0              0              0              0             -0.0053805836 
       160   0              0              0              0              0             -0.0053164482 
       161   0              0              0              0              0             -0.005241758  
       162   0              0              0              0              0             -0.0051631754 
       163   0              0              0              0              0             -0.0050872233 
       164   0              0              0              0              0             -0.0050198698 
       165   0              0              0              0              0             -0.0049661518 
       166   0              0              0              0              0             -0.0049298576 
       167   0              0              0              0              0             -0.0049132806 
       168   0              0              0              0              0             -0.0049170528 
       169   0              0              0              0              0             -0.0049400796 
       170   0              0              0              0              0             -0.0049796024 
       171   0              0              0              0              0             -0.005031379  
       172   0              0              0              0              0             -0.0050899629 
       173   0              0              0              0              0             -0.0051490489 
       174   0              0              0              0              0             -0.0052018421 
       175   0              0              0              0              0             -0.0052414252 
       176   0              0              0              0              0             -0.0052611167 
       177   0              0              0              0              0             -0.0052548059 
       178   0              0              0              0              0             -0.005217243  
       179   0              0              0              0              0             -0.0051442671 
       180   0              0              0              0              0             -0.0050329663 
       181   0              0              0              0              0             -0.0048817749 
       182   0              0              0              0              0             -0.0046905157 
       183   0              0              0              0              0             -0.0044603976 
       184   0              0              0              0              0             -0.0041939753 
       185   0              0              0              0              0             -0.0038950742 
       186   0              0              0              0              0             -0.0035686842 
       187   0              0              0              0              0             -0.0032208304 
       188   0              0              0              0              0             -0.0028584236 
       189   0              0              0              0              0             -0.0024890797 
       190   0              0              0              0              0             -0.0021208929 
       191   0              0              0              0              0             -0.0017621736 
       192   0              0              0              0              0             -0.0014211661 
       193   0              0              0              0              0             -0.0011057724 
       194   0              0              0              0              0             -0.00082331958
       195   0              0              0              0              0             -0.00058038018
       196   0              0              0              0              0             -0.00038262897
       197   0              0              0              0              0             -0.00023472304
       198   0              0              0              0              0             -0.00014020259
       199   0              0              0              0              0             -0.00010140676
       200   0              0              0              0              0             -0.00011940541
       201   0              0              0              0              0             -0.00019395803
       202   0              0              0              0              0             -0.00032350777
       203   0              0              0              0              0             -0.00050521216
       204   0              0              0              0              0             -0.00073500715
       205   0              0              0              0              0             -0.0010076999 
       206   0              0              0              0              0             -0.0013170867 
       207   0              0              0              0              0             -0.0016560923 
       208   0              0              0              0              0             -0.0020169313 
       209   0              0              0              0              0             -0.0023912911 
       210   0              0              0              0              0             -0.0027705386 
       211   0              0              0              0              0             -0.0031459482 
       212   0              0              0              0              0             -0.0035089371 
       213   0              0              0              0              0             -0.0038512956 
       214   0              0              0              0              0             -0.004165402  
       215   0              0              0              0              0             -0.0044444196 
       216   0              0              0              0              0             -0.004682473  
       217   0              0              0              0              0             -0.0048748007 
       218   0              0              0              0              0             -0.0050178784 
       219   0              0              0              0              0             -0.0051095085 
       220   0              0              0              0              0             -0.0051488674 
       221   0              0              0              0              0             -0.0051365022 
       222   0              0              0              0              0             -0.0050742672 
       223   0              0              0              0              0             -0.0049652005 
       224   0              0              0              0              0             -0.0048133482 
       225   0              0              0              0              0             -0.0046235426 
       226   0              0              0              0              0             -0.0044011461 
       227   0              0              0              0              0             -0.0041517713 
       228   0              0              0              0              0             -0.003880993  
       229   0              0              0              0              0             -0.0035940609 
       230   0              0              0              0              0             -0.0032956301 
       231   0              0              0              0              0             -0.0029895298 
       232   0              0              0              0              0             -0.0026785905 
       233   0              0              0              0              0             -0.002364545  
       234   0              0              0              0              0             -0.0020480175 
       235   0              0              0              0              0             -0.0017286005 
       236   0              0              0              0              0             -0.0014050147 
       237   0              0              0              0              0             -0.0010753349 
       238   0              0              0              0              0             -0.00073726356
       239   0              0              0              0              0             -0.00038843055
       240   0              0              0              0              0             -2.6696785e-05
       241   0              0              0              0              0              0.00034955696
       242   0              0              0              0              0              0.00074117558
       243   0              0              0              0              0              0.0011480295 
       244   0              0              0              0              0              0.0015688853 
       245   0              0              0              0              0              0.002001354  
       246   0              0              0              0              0              0.0024419209 
       247   0              0              0              0              0              0.0028860585 
       248   0              0              0              0              0              0.0033284236 
       249   0              0              0              0              0              0.0037631191 
       250   0              0              0              0              0              0.004183978  
       251   0              0              0              0              0              0.0045848357 
       252   0              0              0              0              0              0.0049597758 
       253   0              0              0              0              0              0.0053033366 
       254   0              0              0              0              0              0.0056106742 
       255   0              0              0              0              0              0.0058776742 
       256   0              0              0              0              0              0.0061010122 
       257   0              0              0              0              0              0.0062781654 
       258   0              0              0              0              0              0.0064073832 
       259   0              0              0              0              0              0.0064876288 
       260   0              0              0              0              0              0.0065185076 
       261   0              0              0              0              0              0.0065001944 
       262   0              0              0              0              0              0.0064333704 
       263   0              0              0              0              0              0.0063191692 
       264   0              0              0              0              0              0.0061591315 
       265   0              0              0              0              0              0.005955165  
       266   0              0              0              0              0              0.0057095096 
       267   0              0              0              0              0              0.0054247053 
       268   0              0              0              0              0              0.0051035653 
       269   0              0              0              0              0              0.0047491548 
       270   0              0              0              0              0              0.0043647837 
       271   0              0              0              0              0              0.0039540205 
       272   0              0              0              0              0              0.0035207273 
       273   0              0              0              0              0              0.0030691059 
       274   0              0              0              0              0              0.0026037417 
       275   0              0              0              0              0              0.002129638  
       276   0              0              0              0              0              0.0016522472 
       277   0              0              0              0              0              0.0011774986 
       278   0              0              0              0              0              0.00071181834
       279   0              0              0              0              0              0.00026213255
       280   0              0              0              0              0             -0.00016415499
       281   0              0              0              0              0             -0.00055921619
       282   0              0              0              0              0             -0.00091488344
       283   0              0              0              0              0             -0.0012227628 
       284   0              0              0              0              0             -0.0014743729 
       285   0              0              0              0              0             -0.0016613068 
       286   0              0              0              0              0             -0.0017754159 
       287   0              0              0              0              0             -0.0018090115 
       288   0              0              0              0              0             -0.0017550801 
       289   0              0              0              0              0             -0.0016075073 
       290   0              0              0              0              0             -0.001361297  
       291   0              0              0              0              0             -0.0010127755 
       292   0              0              0              0              0             -0.00055977136
       293   0              0              0              0              0             -1.7698775e-06
       294   0              0              0              0              0              0.00065996021
       295   0              0              0              0              0              0.0014222666 
       296   0              0              0              0              0              0.0022800425 
       297   0              0              0              0              0              0.0032261908 
       298   0              0              0              0              0              0.0042516319 
       299   0              0              0              0              0              0.0053453657 
       300   0              0              0              0              0              0.0064945953 
       301   0              0              0              0              0              0.0076849192 
       302   0              0              0              0              0              0.0089005902 
       303   0              0              0              0              0              0.010124838  
       304   0              0              0              0              0              0.011340245  
       305   0              0              0              0              0              0.012529156  
       306   0              0              0              0              0              0.013674121  
       307   0              0              0              0              0              0.014758342  
       308   0              0              0              0              0              0.015766101  
       309   0              0              0              0              0              0.016683175  
       310   0              0              0              0              0              0.017497175  
       311   0              0              0              0              0              0.018197848  
       312   0              0              0              0              0              0.018777276  
       313   0              0              0              0              0              0.019230006  
       314   0              0              0              0              0              0.019553092  
       315   0              0              0              0              0              0.019746039  
       316   0              0              0              0              0              0.019810664  
       317   0              0              0              0              0              0.019750868  
       318   0              0              0              0              0              0.01957233   
       319   0              0              0              0              0              0.019282159  
       320   0              0              0              0              0              0.018888504  
       321   0              0              0              0              0              0.01840017   
       322   0              0              0              0              0              0.017826263  
       323   0              0              0              0              0              0.017175878  
       324   0              0              0              0              0              0.016457859  
       325   0              0              0              0              0              0.015680635  
       326   0              0              0              0              0              0.014852135  
       327   0              0              0              0              0              0.013979768  
       328   0              0              0              0              0              0.01307045   
       329   0              0              0              0              0              0.012130665  
       330   0              0              0              0              0              0.011166538  
       331   0              0              0              0              0              0.010183904  
       332   0              0              0              0              0              0.0091883483 
       333   0              0              0              0              0              0.0081852292 
       334   0              0              0              0              0              0.007179719  
       335   0              0              0              0              0              0.0061768542 
       336   0              0              0              0              0              0.0051815677 
       337   0              0              0              0              0              0.0041986975 
       338   0              0              0              0              0              0.0032329841 
       339   0              0              0              0              0              0.0022890654 
       340   0              0              0              0              0              0.0013714769 
       341   0              0              0              0              0              0.0004846552 
       342   0              0              0              0              0             -0.00036705745
       343   0              0              0              0              0             -0.0011794128 
       344   0              0              0              0              0             -0.0019482624 
       345   0              0              0              0              0             -0.0026695689 
       346   0              0              0              0              0             -0.0033394255 
       347   0              0              0              0              0             -0.0039540822 
       348   0              0              0              0              0             -0.004509979  
       349   0              0              0              0              0             -0.0050037881 
       350   0              0              0              0              0             -0.0054324642 
       351   0              0              0              0              0             -0.0057933062 
       352   0              0              0              0              0             -0.0060840295 
       353   0              0              0              0              0             -0.0063028521 
       354   0              0              0              0              0             -0.0064485923 
       355   0              0              0              0              0             -0.0065207765 
       356   0              0              0              0              0             -0.0065197511 
       357   0              0              0              0              0             -0.0064467904 
       358   0              0              0              0              0             -0.0063041914 
       359   0              0              0              0              0             -0.0060953445 
       360   0              0              0              0              0             -0.0058247713 
       361   0              0              0              0              0             -0.0054981205 
       362   0              0              0              0              0             -0.0051221195 
       363   0              0              0              0              0             -0.0047044819 
       364   0              0              0              0              0             -0.0042537749 
       365   0              0              0              0              0             -0.0037792508 
       366   0              0              0              0              0             -0.0032906508 
       367   0              0              0              0              0             -0.0027979925 
       368   0              0              0              0              0             -0.0023113481 
       369   0              0              0              0              0             -0.0018406234 
       370   0              0              0              0              0             -0.0013953461 
       371   0              0              0              0              0             -0.00098447097
       372   0              0              0              0              0             -0.00061621057
       373   0              0              0              0              0             -0.00029789598
       374   0              0              0              0              0             -3.5872676e-05
       375   0              0              0              0              0              0.00016456766
       376   0              0              0              0              0              0.00029921992
       377   0              0              0              0              0              0.00036496584
       378   0              0              0              0              0              0.00035974596
       379   0              0              0              0              0              0.00028250888
       380   0              0              0              0              0              0.00013314577
       381   0              0              0              0              0             -8.7581049e-05
       382   0              0              0              0              0             -0.00037810675
       383   0              0              0              0              0             -0.00073612328
       384   0              0              0              0              0             -0.0011586255 
       385   0              0              0              0              0             -0.001641943  
       386   0              0              0              0              0             -0.0021817592 
       387   0              0              0              0              0             -0.0027731221 
       388   0              0              0              0              0             -0.0034104538 
       389   0              0              0              0              0             -0.004087569  
       390   0              0              0              0              0             -0.0047977111 
       391   0              0              0              0              0             -0.0055336093 
       392   0              0              0              0              0             -0.0062875625 
       393   0              0              0              0              0             -0.0070515444 
       394   0              0              0              0              0             -0.0078173283 
       395   0              0              0              0              0             -0.0085766244 
       396   0              0              0              0              0             -0.0093212188 
       397   0              0              0              0              0             -0.010043106  
       398   0              0              0              0              0             -0.010734604  
       399   0              0              0              0              0             -0.011388449  
       400   0              0              0              0              0             -0.011997869  
       401   0              0              0              0              0             -0.012556628  
       402   0              0              0              0              0             -0.013059067  
       403   0              0              0              0              0             -0.013500127  
       404   0              0              0              0              0             -0.013875363  
       405   0              0              0              0              0             -0.014180972  
       406   0              0              0              0              0             -0.014413816  
       407   0              0              0              0              0             -0.014571441  
       408   0              0              0              0              0             -0.014652111  
       409   0              0              0              0              0             -0.014654845  
       410   0              0              0              0              0             -0.014579461  
       411   0              0              0              0              0             -0.014426649  
       412   0              0              0              0              0             -0.014198052  
       413   0              0              0              0              0             -0.013896341  
       414   0              0              0              0              0             -0.013525282  
       415   0              0              0              0              0             -0.013089774  
       416   0              0              0              0              0             -0.012595858  
       417   0              0              0              0              0             -0.012050695  
       418   0              0              0              0              0             -0.01146249   
       419   0              0              0              0              0             -0.010840398  
       420   0              0              0              0              0             -0.010194374  
       421   0              0              0              0              0             -0.0095350024 
       422   0              0              0              0              0             -0.0088732955 
       423   0              0              0              0              0             -0.0082204717 
       424   0              0              0              0              0             -0.0075877291 
       425   0              0              0              0              0             -0.0069860169 
       426   0              0              0              0              0             -0.0064258059 
       427   0              0              0              0              0             -0.0059168639 
       428   0              0              0              0              0             -0.0054680475 
       429   0              0              0              0              0             -0.0050871183 
       430   0              0              0              0              0             -0.0047805917 
       431   0              0              0              0              0             -0.0045536278 
       432   0              0              0              0              0             -0.0044099657 
       433   0              0              0              0              0             -0.004351902  
       434   0              0              0              0              0             -0.0043803093 
       435   0              0              0              0              0             -0.0044946863 
       436   0              0              0              0              0             -0.004693227  
       437   0              0              0              0              0             -0.0049729    
       438   0              0              0              0              0             -0.0053295298 
       439   0              0              0              0              0             -0.0057578794 
       440   0              0              0              0              0             -0.0062517357 
       441   0              0              0              0              0             -0.0068040009 
       442   0              0              0              0              0             -0.0074067947 
       443   0              0              0              0              0             -0.0080515663 
       444   0              0              0              0              0             -0.0087292183 
       445   0              0              0              0              0             -0.0094302427 
       446   0              0              0              0              0             -0.010144869  
       447   0              0              0              0              0             -0.010863222  
       448   0              0              0              0              0             -0.011575489  
       449   0              0              0              0              0             -0.012272085  
       450   0              0              0              0              0             -0.012943807  
       451   0              0              0              0              0             -0.013581974  
       452   0              0              0              0              0             -0.014178537  
       453   0              0              0              0              0             -0.014726168  
       454   0              0              0              0              0             -0.015218334  
       455   0              0              0              0              0             -0.015649351  
       456   0              0              0              0              0             -0.01601442   
       457   0              0              0              0              0             -0.016309637  
       458   0              0              0              0              0             -0.016531968  
       459   0              0              0              0              0             -0.0166792    
       460   0              0              0              0              0             -0.016749862  
       461   0              0              0              0              0             -0.016743117  
       462   0              0              0              0              0             -0.016658646  
       463   0              0              0              0              0             -0.016496526  
       464   0              0              0              0              0             -0.016257118  
       465   0              0              0              0              0             -0.015940961  
       466   0              0              0              0              0             -0.015548692  
       467   0              0              0              0              0             -0.015080979  
       468   0              0              0              0              0             -0.014538493  
       469   0              0              0              0              0             -0.013921898  
       470   0              0              0              0              0             -0.013231887  
       471   0              0              0              0              0             -0.012469245  
       472   0              0              0              0              0             -0.011634949  
       473   0              0              0              0              0             -0.0107303    
       474   0              0              0              0              0             -0.0097570585 
       475   0              0              0              0              0             -0.0087175896 
       476   0              0              0              0              0             -0.0076149847 
       477   0              0              0              0              0             -0.0064531571 
       478   0              0              0              0              0             -0.0052368991 
       479   0              0              0              0              0             -0.0039718941 
       480   0              0              0              0              0             -0.002664678  
       481   0              0              0              0              0             -0.0013225547 
       482   0              0              0              0              0              4.6525776e-05
       483   0              0              0              0              0              0.0014341137 
       484   0              0              0              0              0              0.0028314158 
       485   0              0              0              0              0              0.0042294495 
       486   0              0              0              0              0              0.0056191858 
       487   0              0              0              0              0              0.0069916773 
       488   0              0              0              0              0              0.0083381679 
       489   0              0              0              0              0              0.0096501881 
       490   0              0              0              0              0              0.01091964   
       491   0              0              0              0              0              0.012138877  
       492   0              0              0              0              0              0.013300791  
       493   0              0              0              0              0              0.014398901  
       494   0              0              0              0              0              0.015427446  
       495   0              0              0              0              0              0.016381491  
       496   0              0              0              0              0              0.017257047  
       497   0              0              0              0              0              0.018051191  
       498   0              0              0              0              0              0.018762203  
       499   0              0              0              0              0              0.019389685  
       500   0              0              0              0              0              0.01993467   
       501   0              0              0              0              0              0.020399676  
       502   0              0              0              0              0              0.020788727  
       503   0              0              0              0              0              0.021107291  
       504   0              0              0              0              0              0.021362153  
       505   0              0              0              0              0              0.02156121   
       506   0              0              0              0              0              0.021713184  
       507   0              0              0              0              0              0.021827266  
       508   0              0              0              0              0              0.021912723  
       509   0              0              0              0              0              0.021978489  
       510   0              0              0              0              0              0.022032797  
       511   0              0              0              0              0              0.022082891  
       512   0              0              0              0              0              0.022134861  
       513   0              0              0              0              0              0.02219363   
       514   0              0              0              0              0              0.02226309   
       515   0              0              0              0              0              0.022346349  
       516   0              0              0              0              0              0.022446003  
       517   0              0              0              0              0              0.022564321  
       518   0              0              0              0              0              0.022703269  
       519   0              0              0              0              0              0.022864327  
       520   0              0              0              0              0              0.023048138  
       521   0              0              0              0              0              0.023254083  
       522   0              0              0              0              0              0.023479897  
       523   0              0              0              0              0              0.023721439  
       524   0              0              0              0              0              0.023972682  
       525   0              0              0              0              0              0.024225921  
       526   0              0              0              0              0              0.024472188  
       527   0              0              0              0              0              0.024701763  
       528   0              0              0              0              0              0.02490474   
       529   0              0              0              0              0              0.025071558  
       530   0              0              0              0              0              0.025193469  
       531   0              0              0              0              0              0.025262889  
       532   0              0              0              0              0              0.025273657  
       533   0              0              0              0              0              0.025221191  
       534   0              0              0              0              0              0.025102541  
       535   0              0              0              0              0              0.024916363  
       536   0              0              0              0              0              0.02466282   
       537   0              0              0              0              0              0.024343454  
       538   0              0              0              0              0              0.023961026  
       539   0              0              0              0              0              0.023519353  
       540   0              0              0              0              0              0.023023131  
       541   0              0              0              0              0              0.022477729  
       542   0              0              0              0              0              0.021888975  
       543   0              0              0              0              0              0.021262943  
       544   0              0              0              0              0              0.020605752  
       545   0              0              0              0              0              0.019923395  
       546   0              0              0              0              0              0.019221595  
       547   0              0              0              0              0              0.01850569   
       548   0              0              0              0              0              0.017780568  
       549   0              0              0              0              0              0.017050631  
       550   0              0              0              0              0              0.016319806  
       551   0              0              0              0              0              0.015591584  
       552   0              0              0              0              0              0.014869097  
       553   0              0              0              0              0              0.014155209  
       554   0              0              0              0              0              0.013452635  
       555   0              0              0              0              0              0.01276406   
       556   0              0              0              0              0              0.012092258  
       557   0              0              0              0              0              0.0114402    
       558   0              0              0              0              0              0.010811145  
       559   0              0              0              0              0              0.010208687  
       560   0              0              0              0              0              0.0096367861 
       561   0              0              0              0              0              0.0090997525 
       562   0              0              0              0              0              0.0086022115 
       563   0              0              0              0              0              0.0081490474 
       564   0              0              0              0              0              0.0077453288 
       565   0              0              0              0              0              0.0073962172 
       566   0              0              0              0              0              0.0071068576 
       567   0              0              0              0              0              0.0068822499 
       568   0              0              0              0              0              0.006727101  
       569   0              0              0              0              0              0.0066456585 
       570   0              0              0              0              0              0.0066415317 
       571   0              0              0              0              0              0.0067175101 
       572   0              0              0              0              0              0.0068753922 
       573   0              0              0              0              0              0.0071158364 
       574   0              0              0              0              0              0.0074382477 
       575   0              0              0              0              0              0.0078407124 
       576   0              0              0              0              0              0.0083199868 
       577   0              0              0              0              0              0.0088715408 
       578   0              0              0              0              0              0.0094896506 
       579   0              0              0              0              0              0.010167528  
       580   0              0              0              0              0              0.010897477  
       581   0              0              0              0              0              0.011671059  
       582   0              0              0              0              0              0.01247926   
       583   0              0              0              0              0              0.01331264   
       584   0              0              0              0              0              0.014161472  
       585   0              0              0              0              0              0.01501585   
       586   0              0              0              0              0              0.015865781  
       587   0              0              0              0              0              0.016701253  
       588   0              0              0              0              0              0.017512293  
       589   0              0              0              0              0              0.018289019  
       590   0              0              0              0              0              0.019021691  
       591   0              0              0              0              0              0.019700761  
       592   0              0              0              0              0              0.020316938  
       593   0              0              0              0              0              0.020861254  
       594   0              0              0              0              0              0.021325151  
       595   0              0              0              0              0              0.021700575  
       596   0              0              0              0              0              0.021980081  
       597   0              0              0              0              0              0.02215694   
       598   0              0              0              0              0              0.022225248  
       599   0              0              0              0              0              0.022180013  
       600   0              0              0              0              0              0.022017226  
       601   0              0              0              0              0              0.021733922  
       602   0              0              0              0              0              0.021328212  
       603   0              0              0              0              0              0.020799335  
       604   0              0              0              0              0              0.020147689  
       605   0              0              0              0              0              0.019374874  
       606   0              0              0              0              0              0.018483722  
       607   0              0              0              0              0              0.017478307  
       608   0              0              0              0              0              0.016363934  
       609   0              0              0              0              0              0.0151471    
       610   0              0              0              0              0              0.013835432  
       611   0              0              0              0              0              0.0124376    
       612   0              0              0              0              0              0.010963206  
       613   0              0              0              0              0              0.0094226699 
       614   0              0              0              0              0              0.0078270943 
       615   0              0              0              0              0              0.0061881391 
       616   0              0              0              0              0              0.0045178955 
       617   0              0              0              0              0              0.0028287733 
       618   0              0              0              0              0              0.0011334031 
       619   0              0              0              0              0             -0.00055544631
       620   0              0              0              0              0             -0.0022249446 
       621   0              0              0              0              0             -0.0038622851 
       622   0              0              0              0              0             -0.0054547864 
       623   0              0              0              0              0             -0.0069900149 
       624   0              0              0              0              0             -0.0084559245 
       625   0              0              0              0              0             -0.0098410071 
       626   0              0              0              0              0             -0.011134446  
       627   0              0              0              0              0             -0.012326259  
       628   0              0              0              0              0             -0.013407431  
       629   0              0              0              0              0             -0.01437001   
       630   0              0              0              0              0             -0.01520719   
       631   0              0              0              0              0             -0.015913354  
       632   0              0              0              0              0             -0.016484092  
       633   0              0              0              0              0             -0.0169162    
       634   0              0              0              0              0             -0.017207653  
       635   0              0              0              0              0             -0.017357574  
       636   0              0              0              0              0             -0.017366201  
       637   0              0              0              0              0             -0.017234853  
       638   0              0              0              0              0             -0.01696591   
       639   0              0              0              0              0             -0.016562792  
       640   0              0              0              0              0             -0.016029953  
       641   0              0              0              0              0             -0.015372871  
       642   0              0              0              0              0             -0.014598038  
       643   0              0              0              0              0             -0.013712954  
       644   0              0              0              0              0             -0.012726106  
       645   0              0              0              0              0             -0.011646939  
       646   0              0              0              0              0             -0.010485806  
       647   0              0              0              0              0             -0.0092539075 
       648   0              0              0              0              0             -0.0079632076 
       649   0              0              0              0              0             -0.0066263379 
       650   0              0              0              0              0             -0.0052564845 
       651   0              0              0              0              0             -0.0038672725 
       652   0              0              0              0              0             -0.0024726418 
       653   0              0              0              0              0             -0.0010867156 
       654   0              0              0              0              0              0.00027634006
       655   0              0              0              0              0              0.0016024597 
       656   0              0              0              0              0              0.0028778245 
       657   0              0              0              0              0              0.0040890083 
       658   0              0              0              0              0              0.0052231249 
       659   0              0              0              0              0              0.0062679815 
       660   0              0              0              0              0              0.0072122423 
       661   0              0              0              0              0              0.0080456044 
       662   0              0              0              0              0              0.0087589782 
       663   0              0              0              0              0              0.0093446641 
       664   0              0              0              0              0              0.009796512  
       665   0              0              0              0              0              0.010110051  
       666   0              0              0              0              0              0.010282579  
       667   0              0              0              0              0              0.010313209  
       668   0              0              0              0              0              0.010202863  
       669   0              0              0              0              0              0.009954221  
       670   0              0              0              0              0              0.0095716297 
       671   0              0              0              0              0              0.0090609737 
       672   0              0              0              0              0              0.0084295226 
       673   0              0              0              0              0              0.0076857612 
       674   0              0              0              0              0              0.0068392159 
       675   0              0              0              0              0              0.0059002875 
       676   0              0              0              0              0              0.0048801004 
       677   0              0              0              0              0              0.0037903789 
       678   0              0              0              0              0              0.0026433527 
       679   0              0              0              0              0              0.00145169   
       680   0              0              0              0              0              0.00022844565
       681   0              0              0              0              0             -0.0010129831 
       682   0              0              0              0              0             -0.0022589019 
       683   0              0              0              0              0             -0.0034953726 
       684   0              0              0              0              0             -0.0047082835 
       685   0              0              0              0              0             -0.0058834438 
       686   0              0              0              0              0             -0.00700671   
       687   0              0              0              0              0             -0.0080641468 
       688   0              0              0              0              0             -0.0090422211 
       689   0              0              0              0              0             -0.0099280251 
       690   0              0              0              0              0             -0.010709517  
       691   0              0              0              0              0             -0.011375765  
       692   0              0              0              0              0             -0.011917181  
       693   0              0              0              0              0             -0.012325728  
       694   0              0              0              0              0             -0.012595102  
       695   0              0              0              0              0             -0.012720868  
       696   0              0              0              0              0             -0.012700562  
       697   0              0              0              0              0             -0.012533734  
       698   0              0              0              0              0             -0.012221958  
       699   0              0              0              0              0             -0.011768778  
       700   0              0              0              0              0             -0.011179625  
       701   0              0              0              0              0             -0.010461686  
       702   0              0              0              0              0             -0.0096237621 
       703   0              0              0              0              0             -0.008676095  
       704   0              0              0              0              0             -0.0076301922 
       705   0              0              0              0              0             -0.0064986352 
       706   0              0              0              0              0             -0.0052948819 
       707   0              0              0              0              0             -0.0040330606 
       708   0              0              0              0              0             -0.0027277592 
       709   0              0              0              0              0             -0.0013938165 
       710   0              0              0              0              0             -4.6126092e-05
       711   0              0              0              0              0              0.0013005424 
       712   0              0              0              0              0              0.002631704  
       713   0              0              0              0              0              0.0039333017 
       714   0              0              0              0              0              0.005191837  
       715   0              0              0              0              0              0.0063944893 
       716   0              0              0              0              0              0.0075292261 
       717   0              0              0              0              0              0.0085849063 
       718   0              0              0              0              0              0.009551378  
       719   0              0              0              0              0              0.01041957   
       720   0              0              0              0              0              0.011181573  
       721   0              0              0              0              0              0.011830696  
       722   0              0              0              0              0              0.012361501  
       723   0              0              0              0              0              0.012769806  
       724   0              0              0              0              0              0.013052664  
       725   0              0              0              0              0              0.01320832   
       726   0              0              0              0              0              0.01323616   
       727   0              0              0              0              0              0.013136648  
       728   0              0              0              0              0              0.012911277  
       729   0              0              0              0              0              0.01256253   
       730   0              0              0              0              0              0.012093852  
       731   0              0              0              0              0              0.011509659  
       732   0              0              0              0              0              0.010815362  
       733   0              0              0              0              0              0.010017402  
       734   0              0              0              0              0              0.0091233127 
       735   0              0              0              0              0              0.0081417688 
       736   0              0              0              0              0              0.0070826282 
       737   0              0              0              0              0              0.0059569467 
       738   0              0              0              0              0              0.0047769587 
       739   0              0              0              0              0              0.0035560148 
       740   0              0              0              0              0              0.0023084702 
       741   0              0              0              0              0              0.0010495161 
       742   0              0              0              0              0             -0.00020504908
       743   0              0              0              0              0             -0.0014391111 
       744   0              0              0              0              0             -0.0026365907 
       745   0              0              0              0              0             -0.0037818463 
       746   0              0              0              0              0             -0.0048601107 
       747   0              0              0              0              0             -0.0058579366 
       748   0              0              0              0              0             -0.0067636184 
       749   0              0              0              0              0             -0.0075675527 
       750   0              0              0              0              0             -0.0082625095 
       751   0              0              0              0              0             -0.0088437899 
       752   0              0              0              0              0             -0.0093092599 
       753   0              0              0              0              0             -0.0096592607 
       754   0              0              0              0              0             -0.0098964102 
       755   0              0              0              0              0             -0.010025321  
       756   0              0              0              0              0             -0.010052268  
       757   0              0              0              0              0             -0.00998484   
       758   0              0              0              0              0             -0.009831599  
       759   0              0              0              0              0             -0.0096017707 
[...]
      2806   0              0              0              0              0             -0.0066620262 
      2807   0              0              0              0              0             -0.0084197683 
      2808   0              0              0              0              0             -0.01006999   
      2809   0              0              0              0              0             -0.011593458  
      2810   0              0              0              0              0             -0.012972371  
      2811   0              0              0              0              0             -0.014190805  
      2812   0              0              0              0              0             -0.015235158  
      2813   0              0              0              0              0             -0.01609457   
      2814   0              0              0              0              0             -0.016761288  
      2815   0              0              0              0              0             -0.01723095   
      2816   0              0              0              0              0             -0.017502768  
      2817   0              0              0              0              0             -0.017579601  
      2818   0              0              0              0              0             -0.017467907  
      2819   0              0              0              0              0             -0.017177566  
      2820   0              0              0              0              0             -0.016721584  
      2821   0              0              0              0              0             -0.016115706  
      2822   0              0              0              0              0             -0.015377964  
      2823   0              0              0              0              0             -0.014528171  
      2824   0              0              0              0              0             -0.01358741   
      2825   0              0              0              0              0             -0.012577507  
      2826   0              0              0              0              0             -0.01152054   
      2827   0              0              0              0              0             -0.010438354  
      2828   0              0              0              0              0             -0.009352128  
      2829   0              0              0              0              0             -0.0082819685 
      2830   0              0              0              0              0             -0.0072465513 
      2831   0              0              0              0              0             -0.0062628144 
      2832   0              0              0              0              0             -0.0053457107 
      2833   0              0              0              0              0             -0.0045080343 
      2834   0              0              0              0              0             -0.003760327  
      2835   0              0              0              0              0             -0.0031108627 
      2836   0              0              0              0              0             -0.0025656949 
      2837   0              0              0              0              0             -0.0021287495 
      2838   0              0              0              0              0             -0.0018019441 
      2839   0              0              0              0              0             -0.001585313  
      2840   0              0              0              0              0             -0.0014771247 
      2841   0              0              0              0              0             -0.0014739793 
      2842   0              0              0              0              0             -0.0015708831 
      2843   0              0              0              0              0             -0.0017612999 
      2844   0              0              0              0              0             -0.0020371883 
      2845   0              0              0              0              0             -0.0023890393 
      2846   0              0              0              0              0             -0.0028059309 
      2847   0              0              0              0              0             -0.0032756208 
      2848   0              0              0              0              0             -0.0037846962 
      2849   0              0              0              0              0             -0.0043187969 
      2850   0              0              0              0              0             -0.0048629133 
      2851   0              0              0              0              0             -0.005401751  
      2852   0              0              0              0              0             -0.0059201473 
      2853   0              0              0              0              0             -0.006403512  
      2854   0              0              0              0              0             -0.0068382575 
      2855   0              0              0              0              0             -0.0072121827 
      2856   0              0              0              0              0             -0.0075147722 
      2857   0              0              0              0              0             -0.0077373844 
      2858   0              0              0              0              0             -0.0078733152 
      2859   0              0              0              0              0             -0.0079177352 
      2860   0              0              0              0              0             -0.0078675183 
      2861   0              0              0              0              0             -0.0077209953 
      2862   0              0              0              0              0             -0.0074776853 
      2863   0              0              0              0              0             -0.0071380661 
      2864   0              0              0              0              0             -0.0067034441 
      2865   0              0              0              0              0             -0.0061759637 
      2866   0              0              0              0              0             -0.0055587511 
      2867   0              0              0              0              0             -0.0048561511 
      2868   0              0              0              0              0             -0.0040739824 
      2869   0              0              0              0              0             -0.0032197429 
      2870   0              0              0              0              0             -0.0023027052 
      2871   0              0              0              0              0             -0.0013338754 
      2872   0              0              0              0              0             -0.00032581256
      2873   0              0              0              0              0              0.00070766724
      2874   0              0              0              0              0              0.001751872  
      2875   0              0              0              0              0              0.0027916652 
      2876   0              0              0              0              0              0.0038119085 
      2877   0              0              0              0              0              0.0047978777 
      2878   0              0              0              0              0              0.0057356202 
      2879   0              0              0              0              0              0.0066122332 
      2880   0              0              0              0              0              0.0074160649 
      2881   0              0              0              0              0              0.0081368638 
      2882   0              0              0              0              0              0.0087659169 
      2883   0              0              0              0              0              0.0092961881 
      2884   0              0              0              0              0              0.0097224572 
      2885   0              0              0              0              0              0.010041458  
      2886   0              0              0              0              0              0.010252014  
      2887   0              0              0              0              0              0.010355155  
      2888   0              0              0              0              0              0.010354203  
      2889   0              0              0              0              0              0.010254813  
      2890   0              0              0              0              0              0.010064945  
      2891   0              0              0              0              0              0.0097947705 
      2892   0              0              0              0              0              0.0094565054 
      2893   0              0              0              0              0              0.0090641693 
      2894   0              0              0              0              0              0.0086332751 
      2895   0              0              0              0              0              0.008180458  
      2896   0              0              0              0              0              0.0077230535 
      2897   0              0              0              0              0              0.0072786424 
      2898   0              0              0              0              0              0.0068645814 
      2899   0              0              0              0              0              0.0064975411 
      2900   0              0              0              0              0              0.0061930692 
      2901   0              0              0              0              0              0.0059652    
      2902   0              0              0              0              0              0.0058261211 
      2903   0              0              0              0              0              0.0057859113 
      2904   0              0              0              0              0              0.0058523549 
      2905   0              0              0              0              0              0.00603084   
      2906   0              0              0              0              0              0.0063243397 
      2907   0              0              0              0              0              0.0067334703 
      2908   0              0              0              0              0              0.0072566146 
      2909   0              0              0              0              0              0.0078900948 
      2910   0              0              0              0              0              0.0086283777 
      2911   0              0              0              0              0              0.0094642879 
      2912   0              0              0              0              0              0.01038921   
      2913   0              0              0              0              0              0.011393265  
      2914   0              0              0              0              0              0.012465448  
      2915   0              0              0              0              0              0.013593747  
      2916   0              0              0              0              0              0.014765241  
      2917   0              0              0              0              0              0.015966208  
      2918   0              0              0              0              0              0.017182238  
      2919   0              0              0              0              0              0.018398373  
      2920   0              0              0              0              0              0.019599269  
      2921   0              0              0              0              0              0.020769371  
      2922   0              0              0              0              0              0.021893115  
      2923   0              0              0              0              0              0.022955107  
      2924   0              0              0              0              0              0.023940287  
      2925   0              0              0              0              0              0.024834059  
      2926   0              0              0              0              0              0.025622418  
      2927   0              0              0              0              0              0.0262921    
      2928   0              0              0              0              0              0.026830747  
      2929   0              0              0              0              0              0.027227113  
      2930   0              0              0              0              0              0.027471312  
      2931   0              0              0              0              0              0.027555108  
      2932   0              0              0              0              0              0.027472226  
      2933   0              0              0              0              0              0.027218672  
      2934   0              0              0              0              0              0.026792991  
      2935   0              0              0              0              0              0.026196473  
      2936   0              0              0              0              0              0.025433241  
      2937   0              0              0              0              0              0.024510255  
      2938   0              0              0              0              0              0.023437194  
      2939   0              0              0              0              0              0.022226262  
      2940   0              0              0              0              0              0.0208919    
      2941   0              0              0              0              0              0.019450442  
      2942   0              0              0              0              0              0.017919742  
      2943   0              0              0              0              0              0.016318777  
      2944   0              0              0              0              0              0.014667274  
      2945   0              0              0              0              0              0.012985344  
      2946   0              0              0              0              0              0.01129314   
      2947   0              0              0              0              0              0.0096105359 
      2948   0              0              0              0              0              0.0079568271 
      2949   0              0              0              0              0              0.0063504669 
      2950   0              0              0              0              0              0.0048088484 
      2951   0              0              0              0              0              0.0033481297 
      2952   0              0              0              0              0              0.0019830959 
      2953   0              0              0              0              0              0.00072704813
      2954   0              0              0              0              0             -0.00040830049
      2955   0              0              0              0              0             -0.0014129457 
      2956   0              0              0              0              0             -0.0022787425 
      2957   0              0              0              0              0             -0.0029995762 
      2958   0              0              0              0              0             -0.0035715236 
      2959   0              0              0              0              0             -0.0039929738 
      2960   0              0              0              0              0             -0.0042646903 
      2961   0              0              0              0              0             -0.004389804  
      2962   0              0              0              0              0             -0.0043737335 
      2963   0              0              0              0              0             -0.0042240456 
      2964   0              0              0              0              0             -0.0039502756 
      2965   0              0              0              0              0             -0.003563722  
      2966   0              0              0              0              0             -0.0030772247 
      2967   0              0              0              0              0             -0.0025049353 
      2968   0              0              0              0              0             -0.0018620779 
      2969   0              0              0              0              0             -0.0011646973 
      2970   0              0              0              0              0             -0.00042939585
      2971   0              0              0              0              0              0.00032692671
      2972   0              0              0              0              0              0.0010873238 
      2973   0              0              0              0              0              0.0018350429 
      2974   0              0              0              0              0              0.0025537582 
      2975   0              0              0              0              0              0.0032277948 
      2976   0              0              0              0              0              0.0038423422 
      2977   0              0              0              0              0              0.0043836603 
      2978   0              0              0              0              0              0.0048392795 
      2979   0              0              0              0              0              0.0051981919 
      2980   0              0              0              0              0              0.0054510345 
      2981   0              0              0              0              0              0.0055902594 
      2982   0              0              0              0              0              0.0056102913 
      2983   0              0              0              0              0              0.0055076668 
      2984   0              0              0              0              0              0.0052811485 
      2985   0              0              0              0              0              0.0049318047 
      2986   0              0              0              0              0              0.0044630433 
      2987   0              0              0              0              0              0.0038805922 
      2988   0              0              0              0              0              0.0031924158 
      2989   0              0              0              0              0              0.002408567  
      2990   0              0              0              0              0              0.0015409757 
      2991   0              0              0              0              0              0.00060318207
      2992   0              0              0              0              0             -0.00038997086
      2993   0              0              0              0              0             -0.0014226796 
      2994   0              0              0              0              0             -0.0024785495 
      2995   0              0              0              0              0             -0.0035409856 
      2996   0              0              0              0              0             -0.0045935907 
      2997   0              0              0              0              0             -0.0056205543 
      2998   0              0              0              0              0             -0.0066070126 
      2999   0              0              0              0              0             -0.0075393635 
      3000   0              0              0              0              0             -0.0084055209 
Loop time of 104.211 on 1 procs for 3001 steps with 108 atoms

Total wall time: 0:01:44
