LAMMPS (7 Feb 2024 - Development - patch_2Jun2022-7271-g417598498c)
Reading data file ...
  triclinic box = (0 0 0) to (5.1364755 5.1934133 5.2461598) with tilt (0 -0.88344297 0)
  1 by 1 by 1 MPI processor grid
  reading atoms ...
  12 atoms
  read_data CPU = 0.001 seconds
**************** Begin of POD Potentials ****************
species: Hf O 
periodic boundary conditions: 1 1 1
number of enviroment clusters: 1
number of principal compoments: 1
inner cut-off radius: 1
outer cut-off radius: 5.5
bessel polynomial degree: 4
inverse polynomial degree: 8
one-body potential: 1
two-body radial basis functions: 8
three-body radial basis functions: 6
three-body angular degree: 4
four-body radial basis functions: 4
four-body angular degree: 2
five-body radial basis functions: 4
five-body angular degree: 2
six-body radial basis functions: 3
six-body angular degree: 2
seven-body radial basis functions: 0
seven-body angular degree: 0
number of local descriptors per element for one-body potential: 1
number of local descriptors per element for two-body potential: 16
number of local descriptors per element for three-body potential: 90
number of local descriptors per element for four-body potential: 64
number of local descriptors per element for five-body potential: 192
number of local descriptors per element for six-body potential: 198
number of local descriptors per element for seven-body potential: 0
number of local descriptors per element for all potentials: 561
number of global descriptors: 1122
**************** End of POD Potentials ****************

WARNING: No fixes with time integration, atoms won't move (src/verlet.cpp:60)
Generated 0 of 1 mixed pair_coeff terms from geometric mixing rule
Neighbor list info ...
  update: every = 1 steps, delay = 0 steps, check = yes
  max neighbors/atom: 2000, page size: 100000
  master list distance cutoff = 10.5
  ghost atom cutoff = 10.5
  binsize = 5.25, bins = 2 1 1
  2 neighbor lists, perpetual/occasional/extra = 1 1 0
  (1) pair zero, perpetual
      attributes: half, newton on
      pair build: half/bin/atomonly/newton/tri
      stencil: half/bin/3d/tri
      bin: standard
  (2) compute podd/atom, occasional
      attributes: full, newton on
      pair build: full/bin/atomonly
      stencil: full/bin/3d
      bin: standard
Per MPI rank memory allocation (min/avg/max) = 3.666 | 3.666 | 3.666 Mbytes
   Step          Temp          PotEng         KinEng         TotEng         Press       v_exampledd  
         0   0              0              0              0              0             -0.072502342  
         1   0              0              0              0              0             -0.072876331  
         2   0              0              0              0              0             -0.073262272  
         3   0              0              0              0              0             -0.073652176  
         4   0              0              0              0              0             -0.074038365  
         5   0              0              0              0              0             -0.074413588  
         6   0              0              0              0              0             -0.074771119  
         7   0              0              0              0              0             -0.075104839  
         8   0              0              0              0              0             -0.075409302  
         9   0              0              0              0              0             -0.07567979   
        10   0              0              0              0              0             -0.075912335  
        11   0              0              0              0              0             -0.076103748  
        12   0              0              0              0              0             -0.076251607  
        13   0              0              0              0              0             -0.076354258  
        14   0              0              0              0              0             -0.076410783  
        15   0              0              0              0              0             -0.076420971  
        16   0              0              0              0              0             -0.07638528   
        17   0              0              0              0              0             -0.076304795  
        18   0              0              0              0              0             -0.07618118   
        19   0              0              0              0              0             -0.076016633  
        20   0              0              0              0              0             -0.07581384   
        21   0              0              0              0              0             -0.075575928  
        22   0              0              0              0              0             -0.075306422  
        23   0              0              0              0              0             -0.075009199  
        24   0              0              0              0              0             -0.074688445  
        25   0              0              0              0              0             -0.074348608  
        26   0              0              0              0              0             -0.073994358  
        27   0              0              0              0              0             -0.073630533  
        28   0              0              0              0              0             -0.073262097  
        29   0              0              0              0              0             -0.072894086  
        30   0              0              0              0              0             -0.07253156   
        31   0              0              0              0              0             -0.072179549  
        32   0              0              0              0              0             -0.071843001  
        33   0              0              0              0              0             -0.071526725  
        34   0              0              0              0              0             -0.071235343  
        35   0              0              0              0              0             -0.070973228  
        36   0              0              0              0              0             -0.070744459  
        37   0              0              0              0              0             -0.070552761  
        38   0              0              0              0              0             -0.070401459  
        39   0              0              0              0              0             -0.070293431  
        40   0              0              0              0              0             -0.070231059  
        41   0              0              0              0              0             -0.070216199  
        42   0              0              0              0              0             -0.070250141  
        43   0              0              0              0              0             -0.070333594  
        44   0              0              0              0              0             -0.070466673  
        45   0              0              0              0              0             -0.070648892  
        46   0              0              0              0              0             -0.070879185  
        47   0              0              0              0              0             -0.071155926  
        48   0              0              0              0              0             -0.071476973  
        49   0              0              0              0              0             -0.071839725  
        50   0              0              0              0              0             -0.072241194  
        51   0              0              0              0              0             -0.072678092  
        52   0              0              0              0              0             -0.073146933  
        53   0              0              0              0              0             -0.073644139  
        54   0              0              0              0              0             -0.074166158  
        55   0              0              0              0              0             -0.074709575  
        56   0              0              0              0              0             -0.075271221  
        57   0              0              0              0              0             -0.07584827   
        58   0              0              0              0              0             -0.076438316  
        59   0              0              0              0              0             -0.077039423  
        60   0              0              0              0              0             -0.077650153  
        61   0              0              0              0              0             -0.078269561  
        62   0              0              0              0              0             -0.078897159  
        63   0              0              0              0              0             -0.079532853  
        64   0              0              0              0              0             -0.080176847  
        65   0              0              0              0              0             -0.080829529  
        66   0              0              0              0              0             -0.081491334  
        67   0              0              0              0              0             -0.082162596  
        68   0              0              0              0              0             -0.082843401  
        69   0              0              0              0              0             -0.083533435  
        70   0              0              0              0              0             -0.084231859  
        71   0              0              0              0              0             -0.084937201  
        72   0              0              0              0              0             -0.085647281  
        73   0              0              0              0              0             -0.086359184  
        74   0              0              0              0              0             -0.087069271  
        75   0              0              0              0              0             -0.087773253  
        76   0              0              0              0              0             -0.088466311  
        77   0              0              0              0              0             -0.089143279  
        78   0              0              0              0              0             -0.089798869  
        79   0              0              0              0              0             -0.090427936  
        80   0              0              0              0              0             -0.091025775  
        81   0              0              0              0              0             -0.091588413  
        82   0              0              0              0              0             -0.09211289   
        83   0              0              0              0              0             -0.092597499  
        84   0              0              0              0              0             -0.093041957  
        85   0              0              0              0              0             -0.093447493  
        86   0              0              0              0              0             -0.09381684   
        87   0              0              0              0              0             -0.09415411   
        88   0              0              0              0              0             -0.094464579  
        89   0              0              0              0              0             -0.094754363  
        90   0              0              0              0              0             -0.095030035  
        91   0              0              0              0              0             -0.095298187  
        92   0              0              0              0              0             -0.095564985  
        93   0              0              0              0              0             -0.095835735  
        94   0              0              0              0              0             -0.096114506  
        95   0              0              0              0              0             -0.096403822  
        96   0              0              0              0              0             -0.096704458  
        97   0              0              0              0              0             -0.097015335  
        98   0              0              0              0              0             -0.097333546  
        99   0              0              0              0              0             -0.097654488  
       100   0              0              0              0              0             -0.097972099  
       101   0              0              0              0              0             -0.098279195  
       102   0              0              0              0              0             -0.098567871  
       103   0              0              0              0              0             -0.098829955  
       104   0              0              0              0              0             -0.09905749   
       105   0              0              0              0              0             -0.099243215  
       106   0              0              0              0              0             -0.099381022  
       107   0              0              0              0              0             -0.099466367  
       108   0              0              0              0              0             -0.099496608  
       109   0              0              0              0              0             -0.099471256  
       110   0              0              0              0              0             -0.099392115  
       111   0              0              0              0              0             -0.099263317  
       112   0              0              0              0              0             -0.099091242  
       113   0              0              0              0              0             -0.098884328  
       114   0              0              0              0              0             -0.098652785  
       115   0              0              0              0              0             -0.09840823   
       116   0              0              0              0              0             -0.098163261  
       117   0              0              0              0              0             -0.097930996  
       118   0              0              0              0              0             -0.097724613  
       119   0              0              0              0              0             -0.097556891  
       120   0              0              0              0              0             -0.097439809  
       121   0              0              0              0              0             -0.097384195  
       122   0              0              0              0              0             -0.097399446  
       123   0              0              0              0              0             -0.097493335  
       124   0              0              0              0              0             -0.097671889  
       125   0              0              0              0              0             -0.097939351  
       126   0              0              0              0              0             -0.098298213  
       127   0              0              0              0              0             -0.098749328  
       128   0              0              0              0              0             -0.099292075  
       129   0              0              0              0              0             -0.099924576  
       130   0              0              0              0              0             -0.10064394   
       131   0              0              0              0              0             -0.10144649   
       132   0              0              0              0              0             -0.10232799   
       133   0              0              0              0              0             -0.10328381   
       134   0              0              0              0              0             -0.104309     
       135   0              0              0              0              0             -0.10539832   
       136   0              0              0              0              0             -0.1065462    
       137   0              0              0              0              0             -0.1077465    
       138   0              0              0              0              0             -0.10899233   
       139   0              0              0              0              0             -0.1102757    
       140   0              0              0              0              0             -0.11158722   
       141   0              0              0              0              0             -0.11291575   
       142   0              0              0              0              0             -0.11424813   
       143   0              0              0              0              0             -0.11556905   
       144   0              0              0              0              0             -0.11686099   
       145   0              0              0              0              0             -0.11810449   
       146   0              0              0              0              0             -0.1192785    
       147   0              0              0              0              0             -0.12036101   
       148   0              0              0              0              0             -0.12132992   
       149   0              0              0              0              0             -0.12216396   
       150   0              0              0              0              0             -0.12284375   
       151   0              0              0              0              0             -0.12335283   
       152   0              0              0              0              0             -0.12367849   
       153   0              0              0              0              0             -0.12381255   
       154   0              0              0              0              0             -0.12375168   
       155   0              0              0              0              0             -0.12349752   
       156   0              0              0              0              0             -0.12305635   
       157   0              0              0              0              0             -0.12243859   
       158   0              0              0              0              0             -0.12165805   
       159   0              0              0              0              0             -0.12073105   
       160   0              0              0              0              0             -0.11967552   
       161   0              0              0              0              0             -0.11851017   
       162   0              0              0              0              0             -0.11725367   
       163   0              0              0              0              0             -0.11592413   
       164   0              0              0              0              0             -0.11453853   
       165   0              0              0              0              0             -0.11311252   
       166   0              0              0              0              0             -0.11166018   
       167   0              0              0              0              0             -0.11019402   
       168   0              0              0              0              0             -0.10872499   
       169   0              0              0              0              0             -0.10726259   
       170   0              0              0              0              0             -0.10581501   
       171   0              0              0              0              0             -0.10438927   
       172   0              0              0              0              0             -0.10299141   
       173   0              0              0              0              0             -0.10162667   
       174   0              0              0              0              0             -0.10029962   
       175   0              0              0              0              0             -0.099014433  
       176   0              0              0              0              0             -0.097775     
       177   0              0              0              0              0             -0.096585118  
       178   0              0              0              0              0             -0.095448622  
       179   0              0              0              0              0             -0.094369472  
       180   0              0              0              0              0             -0.093351797  
       181   0              0              0              0              0             -0.0923999    
       182   0              0              0              0              0             -0.091518227  
       183   0              0              0              0              0             -0.090711304  
       184   0              0              0              0              0             -0.089983651  
       185   0              0              0              0              0             -0.089339683  
       186   0              0              0              0              0             -0.088783573  
       187   0              0              0              0              0             -0.088319039  
       188   0              0              0              0              0             -0.087949072  
       189   0              0              0              0              0             -0.087675631  
       190   0              0              0              0              0             -0.08749933   
       191   0              0              0              0              0             -0.087419156  
       192   0              0              0              0              0             -0.087432235  
       193   0              0              0              0              0             -0.087533663  
       194   0              0              0              0              0             -0.087716423  
       195   0              0              0              0              0             -0.087971388  
       196   0              0              0              0              0             -0.08828741   
       197   0              0              0              0              0             -0.088651512  
       198   0              0              0              0              0             -0.089049168  
       199   0              0              0              0              0             -0.089464659  
       200   0              0              0              0              0             -0.089881514  
       201   0              0              0              0              0             -0.090282974  
       202   0              0              0              0              0             -0.090652501  
       203   0              0              0              0              0             -0.090974283  
       204   0              0              0              0              0             -0.091233723  
       205   0              0              0              0              0             -0.091417882  
       206   0              0              0              0              0             -0.091515853  
       207   0              0              0              0              0             -0.091519049  
       208   0              0              0              0              0             -0.09142138   
       209   0              0              0              0              0             -0.09121934   
       210   0              0              0              0              0             -0.090911976  
       211   0              0              0              0              0             -0.090500769  
       212   0              0              0              0              0             -0.089989442  
       213   0              0              0              0              0             -0.089383698  
       214   0              0              0              0              0             -0.088690919  
       215   0              0              0              0              0             -0.087919845  
       216   0              0              0              0              0             -0.087080241  
       217   0              0              0              0              0             -0.086182571  
       218   0              0              0              0              0             -0.085237692  
       219   0              0              0              0              0             -0.084256573  
       220   0              0              0              0              0             -0.083250053  
       221   0              0              0              0              0             -0.082228629  
       222   0              0              0              0              0             -0.081202291  
       223   0              0              0              0              0             -0.080180382  
       224   0              0              0              0              0             -0.079171505  
       225   0              0              0              0              0             -0.078183447  
       226   0              0              0              0              0             -0.077223142  
       227   0              0              0              0              0             -0.076296665  
       228   0              0              0              0              0             -0.075409244  
       229   0              0              0              0              0             -0.074565279  
       230   0              0              0              0              0             -0.073768368  
       231   0              0              0              0              0             -0.073021303  
       232   0              0              0              0              0             -0.072326077  
       233   0              0              0              0              0             -0.071683877  
       234   0              0              0              0              0             -0.071095097  
       235   0              0              0              0              0             -0.070559344  
       236   0              0              0              0              0             -0.070075471  
       237   0              0              0              0              0             -0.069641607  
       238   0              0              0              0              0             -0.069255218  
       239   0              0              0              0              0             -0.06891318   
       240   0              0              0              0              0             -0.068611856  
       241   0              0              0              0              0             -0.068347173  
       242   0              0              0              0              0             -0.0681147    
       243   0              0              0              0              0             -0.067909736  
       244   0              0              0              0              0             -0.067727416  
       245   0              0              0              0              0             -0.067562847  
       246   0              0              0              0              0             -0.067411255  
       247   0              0              0              0              0             -0.067268124  
       248   0              0              0              0              0             -0.067129323  
       249   0              0              0              0              0             -0.066991191  
       250   0              0              0              0              0             -0.066850595  
       251   0              0              0              0              0             -0.066704938  
       252   0              0              0              0              0             -0.066552156  
       253   0              0              0              0              0             -0.066390697  
       254   0              0              0              0              0             -0.06621952   
       255   0              0              0              0              0             -0.066038095  
       256   0              0              0              0              0             -0.065846429  
       257   0              0              0              0              0             -0.065645092  
       258   0              0              0              0              0             -0.065435196  
       259   0              0              0              0              0             -0.065218327  
       260   0              0              0              0              0             -0.06499639   
       261   0              0              0              0              0             -0.064771456  
       262   0              0              0              0              0             -0.064545656  
       263   0              0              0              0              0             -0.064321168  
       264   0              0              0              0              0             -0.064100233  
       265   0              0              0              0              0             -0.06388519   
       266   0              0              0              0              0             -0.063678488  
       267   0              0              0              0              0             -0.06348271   
       268   0              0              0              0              0             -0.06330057   
       269   0              0              0              0              0             -0.063134895  
       270   0              0              0              0              0             -0.062988573  
       271   0              0              0              0              0             -0.062864493  
       272   0              0              0              0              0             -0.062765461  
       273   0              0              0              0              0             -0.062694111  
       274   0              0              0              0              0             -0.06265281   
       275   0              0              0              0              0             -0.062643561  
       276   0              0              0              0              0             -0.062667908  
       277   0              0              0              0              0             -0.062726853  
       278   0              0              0              0              0             -0.06282078   
       279   0              0              0              0              0             -0.062949399  
       280   0              0              0              0              0             -0.063111702  
       281   0              0              0              0              0             -0.063305944  
       282   0              0              0              0              0             -0.063529639  
       283   0              0              0              0              0             -0.063779576  
       284   0              0              0              0              0             -0.064051859  
       285   0              0              0              0              0             -0.06434196   
       286   0              0              0              0              0             -0.064644792  
       287   0              0              0              0              0             -0.064954796  
       288   0              0              0              0              0             -0.065266051  
       289   0              0              0              0              0             -0.06557239   
       290   0              0              0              0              0             -0.065867541  
       291   0              0              0              0              0             -0.06614527   
       292   0              0              0              0              0             -0.066399533  
       293   0              0              0              0              0             -0.066624638  
       294   0              0              0              0              0             -0.066815388  
       295   0              0              0              0              0             -0.066967226  
       296   0              0              0              0              0             -0.067076363  
       297   0              0              0              0              0             -0.067139876  
       298   0              0              0              0              0             -0.067155802  
       299   0              0              0              0              0             -0.067123188  
       300   0              0              0              0              0             -0.067042131  
       301   0              0              0              0              0             -0.066913787  
       302   0              0              0              0              0             -0.066740358  
       303   0              0              0              0              0             -0.066525054  
       304   0              0              0              0              0             -0.06627204   
       305   0              0              0              0              0             -0.065986359  
       306   0              0              0              0              0             -0.065673837  
       307   0              0              0              0              0             -0.065340976  
       308   0              0              0              0              0             -0.064994833  
       309   0              0              0              0              0             -0.064642881  
       310   0              0              0              0              0             -0.064292869  
       311   0              0              0              0              0             -0.063952677  
       312   0              0              0              0              0             -0.063630156  
       313   0              0              0              0              0             -0.063332988  
       314   0              0              0              0              0             -0.06306853   
       315   0              0              0              0              0             -0.062843686  
       316   0              0              0              0              0             -0.062664776  
       317   0              0              0              0              0             -0.062537435  
       318   0              0              0              0              0             -0.062466524  
       319   0              0              0              0              0             -0.062456078  
       320   0              0              0              0              0             -0.062509269  
       321   0              0              0              0              0             -0.062628404  
       322   0              0              0              0              0             -0.062814938  
       323   0              0              0              0              0             -0.06306951   
       324   0              0              0              0              0             -0.063391998  
       325   0              0              0              0              0             -0.063781581  
       326   0              0              0              0              0             -0.06423682   
       327   0              0              0              0              0             -0.064755737  
       328   0              0              0              0              0             -0.065335901  
       329   0              0              0              0              0             -0.065974505  
       330   0              0              0              0              0             -0.066668446  
       331   0              0              0              0              0             -0.06741438   
       332   0              0              0              0              0             -0.068208771  
       333   0              0              0              0              0             -0.06904792   
       334   0              0              0              0              0             -0.06992797   
       335   0              0              0              0              0             -0.070844906  
       336   0              0              0              0              0             -0.071794533  
       337   0              0              0              0              0             -0.072772458  
       338   0              0              0              0              0             -0.07377405   
       339   0              0              0              0              0             -0.07479441   
       340   0              0              0              0              0             -0.075828331  
       341   0              0              0              0              0             -0.076870253  
       342   0              0              0              0              0             -0.077914218  
       343   0              0              0              0              0             -0.078953836  
       344   0              0              0              0              0             -0.079982249  
       345   0              0              0              0              0             -0.080992136  
       346   0              0              0              0              0             -0.081975727  
       347   0              0              0              0              0             -0.082924864  
       348   0              0              0              0              0             -0.083831082  
       349   0              0              0              0              0             -0.084685734  
       350   0              0              0              0              0             -0.085480138  
       351   0              0              0              0              0             -0.086205771  
       352   0              0              0              0              0             -0.086854482  
       353   0              0              0              0              0             -0.087418743  
       354   0              0              0              0              0             -0.0878919    
       355   0              0              0              0              0             -0.088268448  
       356   0              0              0              0              0             -0.088544276  
       357   0              0              0              0              0             -0.088716895  
       358   0              0              0              0              0             -0.088785627  
       359   0              0              0              0              0             -0.088751721  
       360   0              0              0              0              0             -0.088618415  
       361   0              0              0              0              0             -0.088390914  
       362   0              0              0              0              0             -0.088076283  
       363   0              0              0              0              0             -0.087683265  
       364   0              0              0              0              0             -0.087222028  
       365   0              0              0              0              0             -0.086703848  
       366   0              0              0              0              0             -0.086140783  
       367   0              0              0              0              0             -0.085545339  
       368   0              0              0              0              0             -0.084930162  
       369   0              0              0              0              0             -0.08430777   
       370   0              0              0              0              0             -0.08369032   
       371   0              0              0              0              0             -0.083089426  
       372   0              0              0              0              0             -0.082516011  
       373   0              0              0              0              0             -0.081980196  
       374   0              0              0              0              0             -0.081491216  
       375   0              0              0              0              0             -0.081057351  
       376   0              0              0              0              0             -0.080685859  
       377   0              0              0              0              0             -0.080382913  
       378   0              0              0              0              0             -0.080153535  
       379   0              0              0              0              0             -0.080001523  
       380   0              0              0              0              0             -0.079929387  
       381   0              0              0              0              0             -0.079938294  
       382   0              0              0              0              0             -0.080028041  
       383   0              0              0              0              0             -0.080197054  
       384   0              0              0              0              0             -0.080442427  
       385   0              0              0              0              0             -0.08076      
       386   0              0              0              0              0             -0.081144477  
       387   0              0              0              0              0             -0.081589584  
       388   0              0              0              0              0             -0.082088244  
       389   0              0              0              0              0             -0.082632785  
       390   0              0              0              0              0             -0.083215143  
       391   0              0              0              0              0             -0.083827072  
       392   0              0              0              0              0             -0.084460341  
       393   0              0              0              0              0             -0.08510692   
       394   0              0              0              0              0             -0.085759138  
       395   0              0              0              0              0             -0.086409812  
       396   0              0              0              0              0             -0.087052351  
       397   0              0              0              0              0             -0.087680823  
       398   0              0              0              0              0             -0.088289995  
       399   0              0              0              0              0             -0.088875357  
       400   0              0              0              0              0             -0.089433133  
       401   0              0              0              0              0             -0.089960283  
       402   0              0              0              0              0             -0.090454506  
       403   0              0              0              0              0             -0.090914236  
       404   0              0              0              0              0             -0.091338646  
       405   0              0              0              0              0             -0.091727634  
       406   0              0              0              0              0             -0.092081808  
       407   0              0              0              0              0             -0.092402452  
       408   0              0              0              0              0             -0.092691473  
       409   0              0              0              0              0             -0.092951328  
       410   0              0              0              0              0             -0.093184923  
       411   0              0              0              0              0             -0.093395494  
       412   0              0              0              0              0             -0.093586467  
       413   0              0              0              0              0             -0.0937613    
       414   0              0              0              0              0             -0.093923333  
       415   0              0              0              0              0             -0.094075635  
       416   0              0              0              0              0             -0.094220886  
       417   0              0              0              0              0             -0.094361284  
       418   0              0              0              0              0             -0.0944985    
       419   0              0              0              0              0             -0.094633683  
       420   0              0              0              0              0             -0.094767507  
       421   0              0              0              0              0             -0.094900262  
       422   0              0              0              0              0             -0.095031968  
       423   0              0              0              0              0             -0.095162501  
       424   0              0              0              0              0             -0.095291719  
       425   0              0              0              0              0             -0.095419553  
       426   0              0              0              0              0             -0.095546074  
       427   0              0              0              0              0             -0.09567151   
       428   0              0              0              0              0             -0.095796209  
       429   0              0              0              0              0             -0.095920571  
       430   0              0              0              0              0             -0.096044943  
       431   0              0              0              0              0             -0.09616949   
       432   0              0              0              0              0             -0.096294074  
       433   0              0              0              0              0             -0.096418119  
       434   0              0              0              0              0             -0.09654051   
       435   0              0              0              0              0             -0.096659506  
       436   0              0              0              0              0             -0.096772704  
       437   0              0              0              0              0             -0.096877026  
       438   0              0              0              0              0             -0.096968773  
       439   0              0              0              0              0             -0.097043699  
       440   0              0              0              0              0             -0.09709714   
       441   0              0              0              0              0             -0.097124162  
       442   0              0              0              0              0             -0.097119731  
       443   0              0              0              0              0             -0.097078895  
       444   0              0              0              0              0             -0.096996959  
       445   0              0              0              0              0             -0.09686966   
       446   0              0              0              0              0             -0.096693308  
       447   0              0              0              0              0             -0.09646492   
       448   0              0              0              0              0             -0.09618231   
       449   0              0              0              0              0             -0.095844156  
       450   0              0              0              0              0             -0.095450033  
       451   0              0              0              0              0             -0.095000415  
       452   0              0              0              0              0             -0.094496656  
       453   0              0              0              0              0             -0.093940942  
       454   0              0              0              0              0             -0.093336225  
       455   0              0              0              0              0             -0.092686144  
       456   0              0              0              0              0             -0.091994926  
       457   0              0              0              0              0             -0.091267286  
       458   0              0              0              0              0             -0.090508317  
       459   0              0              0              0              0             -0.089723378  
       460   0              0              0              0              0             -0.088917987  
       461   0              0              0              0              0             -0.088097727  
       462   0              0              0              0              0             -0.087268159  
       463   0              0              0              0              0             -0.086434749  
       464   0              0              0              0              0             -0.085602816  
       465   0              0              0              0              0             -0.084777486  
       466   0              0              0              0              0             -0.083963658  
       467   0              0              0              0              0             -0.083165985  
       468   0              0              0              0              0             -0.082388858  
       469   0              0              0              0              0             -0.0816364    
       470   0              0              0              0              0             -0.08091247   
       471   0              0              0              0              0             -0.080220676  
       472   0              0              0              0              0             -0.0795644    
       473   0              0              0              0              0             -0.078946821  
       474   0              0              0              0              0             -0.078370951  
       475   0              0              0              0              0             -0.077839661  
       476   0              0              0              0              0             -0.077355709  
       477   0              0              0              0              0             -0.076921751  
       478   0              0              0              0              0             -0.076540339  
       479   0              0              0              0              0             -0.076213897  
       480   0              0              0              0              0             -0.075944684  
       481   0              0              0              0              0             -0.075734728  
       482   0              0              0              0              0             -0.075585747  
       483   0              0              0              0              0             -0.075499049  
       484   0              0              0              0              0             -0.075475424  
       485   0              0              0              0              0             -0.075515031  
       486   0              0              0              0              0             -0.075617281  
       487   0              0              0              0              0             -0.07578073   
       488   0              0              0              0              0             -0.076002983  
       489   0              0              0              0              0             -0.07628062   
       490   0              0              0              0              0             -0.076609149  
       491   0              0              0              0              0             -0.076982989  
       492   0              0              0              0              0             -0.077395494  
       493   0              0              0              0              0             -0.077839015  
       494   0              0              0              0              0             -0.078305012  
       495   0              0              0              0              0             -0.078784207  
       496   0              0              0              0              0             -0.079266786  
       497   0              0              0              0              0             -0.079742639  
       498   0              0              0              0              0             -0.080201639  
       499   0              0              0              0              0             -0.080633946  
       500   0              0              0              0              0             -0.08103032   
       501   0              0              0              0              0             -0.08138245   
       502   0              0              0              0              0             -0.081683249  
       503   0              0              0              0              0             -0.081927127  
       504   0              0              0              0              0             -0.082110216  
       505   0              0              0              0              0             -0.082230519  
       506   0              0              0              0              0             -0.082287994  
       507   0              0              0              0              0             -0.082284546  
       508   0              0              0              0              0             -0.082223936  
       509   0              0              0              0              0             -0.082111612  
       510   0              0              0              0              0             -0.081954468  
       511   0              0              0              0              0             -0.08176056   
       512   0              0              0              0              0             -0.08153878   
       513   0              0              0              0              0             -0.081298522  
       514   0              0              0              0              0             -0.081049347  
       515   0              0              0              0              0             -0.080800663  
       516   0              0              0              0              0             -0.080561445  
       517   0              0              0              0              0             -0.080339989  
       518   0              0              0              0              0             -0.080143718  
       519   0              0              0              0              0             -0.079979039  
       520   0              0              0              0              0             -0.07985125   
       521   0              0              0              0              0             -0.079764496  
       522   0              0              0              0              0             -0.079721777  
       523   0              0              0              0              0             -0.079724977  
       524   0              0              0              0              0             -0.079774937  
       525   0              0              0              0              0             -0.07987154   
       526   0              0              0              0              0             -0.080013806  
       527   0              0              0              0              0             -0.080199995  
       528   0              0              0              0              0             -0.080427701  
       529   0              0              0              0              0             -0.08069394   
       530   0              0              0              0              0             -0.080995213  
       531   0              0              0              0              0             -0.081327551  
       532   0              0              0              0              0             -0.081686541  
       533   0              0              0              0              0             -0.08206733   
       534   0              0              0              0              0             -0.082464625  
       535   0              0              0              0              0             -0.082872681  
       536   0              0              0              0              0             -0.083285303  
       537   0              0              0              0              0             -0.083695846  
       538   0              0              0              0              0             -0.084097253  
       539   0              0              0              0              0             -0.0844821    
       540   0              0              0              0              0             -0.084842688  
       541   0              0              0              0              0             -0.085171153  
       542   0              0              0              0              0             -0.085459616  
       543   0              0              0              0              0             -0.08570036   
       544   0              0              0              0              0             -0.085886027  
       545   0              0              0              0              0             -0.086009828  
       546   0              0              0              0              0             -0.086065756  
       547   0              0              0              0              0             -0.0860488    
       548   0              0              0              0              0             -0.085955122  
       549   0              0              0              0              0             -0.085782214  
       550   0              0              0              0              0             -0.085529011  
       551   0              0              0              0              0             -0.085195948  
       552   0              0              0              0              0             -0.084784965  
       553   0              0              0              0              0             -0.084299454  
       554   0              0              0              0              0             -0.083744151  
       555   0              0              0              0              0             -0.083124983  
       556   0              0              0              0              0             -0.082448874  
       557   0              0              0              0              0             -0.081723523  
       558   0              0              0              0              0             -0.080957173  
       559   0              0              0              0              0             -0.080158369  
       560   0              0              0              0              0             -0.079335737  
       561   0              0              0              0              0             -0.078497774  
       562   0              0              0              0              0             -0.077652662  
       563   0              0              0              0              0             -0.076808127  
       564   0              0              0              0              0             -0.075971311  
       565   0              0              0              0              0             -0.075148695  
       566   0              0              0              0              0             -0.074346039  
       567   0              0              0              0              0             -0.073568362  
       568   0              0              0              0              0             -0.072819933  
       569   0              0              0              0              0             -0.072104296  
       570   0              0              0              0              0             -0.071424296  
       571   0              0              0              0              0             -0.070782119  
       572   0              0              0              0              0             -0.070179329  
       573   0              0              0              0              0             -0.069616904  
       574   0              0              0              0              0             -0.069095274  
       575   0              0              0              0              0             -0.068614349  
       576   0              0              0              0              0             -0.068173547  
       577   0              0              0              0              0             -0.06777182   
       578   0              0              0              0              0             -0.067407671  
       579   0              0              0              0              0             -0.067079174  
       580   0              0              0              0              0             -0.066784001  
       581   0              0              0              0              0             -0.066519444  
       582   0              0              0              0              0             -0.066282457  
       583   0              0              0              0              0             -0.066069692  
       584   0              0              0              0              0             -0.065877555  
       585   0              0              0              0              0             -0.065702263  
       586   0              0              0              0              0             -0.065539918  
       587   0              0              0              0              0             -0.065386585  
       588   0              0              0              0              0             -0.06523838   
       589   0              0              0              0              0             -0.06509156   
       590   0              0              0              0              0             -0.064942618  
       591   0              0              0              0              0             -0.064788381  
       592   0              0              0              0              0             -0.064626094  
       593   0              0              0              0              0             -0.064453502  
       594   0              0              0              0              0             -0.064268921  
       595   0              0              0              0              0             -0.064071283  
       596   0              0              0              0              0             -0.063860175  
       597   0              0              0              0              0             -0.063635846  
       598   0              0              0              0              0             -0.063399203  
       599   0              0              0              0              0             -0.063151776  
       600   0              0              0              0              0             -0.062895678  
       601   0              0              0              0              0             -0.062633539  
       602   0              0              0              0              0             -0.062368437  
       603   0              0              0              0              0             -0.062103816  
       604   0              0              0              0              0             -0.061843399  
       605   0              0              0              0              0             -0.061591108  
       606   0              0              0              0              0             -0.061350977  
       607   0              0              0              0              0             -0.061127073  
       608   0              0              0              0              0             -0.060923423  
       609   0              0              0              0              0             -0.06074395   
       610   0              0              0              0              0             -0.06059241   
       611   0              0              0              0              0             -0.060472343  
       612   0              0              0              0              0             -0.060387025  
       613   0              0              0              0              0             -0.060339429  
       614   0              0              0              0              0             -0.060332191  
       615   0              0              0              0              0             -0.060367576  
       616   0              0              0              0              0             -0.060447451  
       617   0              0              0              0              0             -0.060573261  
       618   0              0              0              0              0             -0.060746002  
       619   0              0              0              0              0             -0.060966202  
       620   0              0              0              0              0             -0.061233896  
       621   0              0              0              0              0             -0.061548609  
       622   0              0              0              0              0             -0.061909335  
       623   0              0              0              0              0             -0.062314524  
       624   0              0              0              0              0             -0.062762063  
       625   0              0              0              0              0             -0.063249271  
       626   0              0              0              0              0             -0.06377289   
       627   0              0              0              0              0             -0.064329094  
       628   0              0              0              0              0             -0.064913491  
       629   0              0              0              0              0             -0.06552115   
       630   0              0              0              0              0             -0.066146627  
       631   0              0              0              0              0             -0.066784016  
       632   0              0              0              0              0             -0.067427011  
       633   0              0              0              0              0             -0.068068995  
       634   0              0              0              0              0             -0.068703156  
       635   0              0              0              0              0             -0.06932262   
       636   0              0              0              0              0             -0.069920613  
       637   0              0              0              0              0             -0.070490633  
       638   0              0              0              0              0             -0.071026635  
       639   0              0              0              0              0             -0.071523219  
       640   0              0              0              0              0             -0.071975813  
       641   0              0              0              0              0             -0.072380833  
       642   0              0              0              0              0             -0.072735823  
       643   0              0              0              0              0             -0.073039565  
       644   0              0              0              0              0             -0.073292132  
       645   0              0              0              0              0             -0.073494915  
       646   0              0              0              0              0             -0.07365059   
       647   0              0              0              0              0             -0.073763045  
       648   0              0              0              0              0             -0.073837265  
       649   0              0              0              0              0             -0.073879188  
       650   0              0              0              0              0             -0.073895525  
       651   0              0              0              0              0             -0.073893579  
       652   0              0              0              0              0             -0.07388105   
       653   0              0              0              0              0             -0.073865843  
       654   0              0              0              0              0             -0.073855891  
       655   0              0              0              0              0             -0.073858997  
       656   0              0              0              0              0             -0.073882686  
       657   0              0              0              0              0             -0.073934088  
       658   0              0              0              0              0             -0.074019833  
       659   0              0              0              0              0             -0.074145962  
       660   0              0              0              0              0             -0.074317857  
       661   0              0              0              0              0             -0.074540175  
       662   0              0              0              0              0             -0.074816791  
       663   0              0              0              0              0             -0.075150744  
       664   0              0              0              0              0             -0.07554418   
       665   0              0              0              0              0             -0.075998296  
       666   0              0              0              0              0             -0.076513281  
       667   0              0              0              0              0             -0.077088257  
       668   0              0              0              0              0             -0.077721215  
       669   0              0              0              0              0             -0.078408966  
       670   0              0              0              0              0             -0.079147083  
       671   0              0              0              0              0             -0.079929863  
       672   0              0              0              0              0             -0.080750302  
       673   0              0              0              0              0             -0.081600095  
       674   0              0              0              0              0             -0.082469659  
       675   0              0              0              0              0             -0.0833482    
       676   0              0              0              0              0             -0.084223817  
       677   0              0              0              0              0             -0.08508366   
       678   0              0              0              0              0             -0.085914134  
       679   0              0              0              0              0             -0.08670116   
       680   0              0              0              0              0             -0.087430483  
       681   0              0              0              0              0             -0.088088019  
       682   0              0              0              0              0             -0.088660241  
       683   0              0              0              0              0             -0.089134573  
       684   0              0              0              0              0             -0.089499781  
       685   0              0              0              0              0             -0.089746351  
       686   0              0              0              0              0             -0.089866815  
       687   0              0              0              0              0             -0.089856014  
       688   0              0              0              0              0             -0.089711286  
       689   0              0              0              0              0             -0.089432563  
       690   0              0              0              0              0             -0.089022373  
       691   0              0              0              0              0             -0.088485743  
       692   0              0              0              0              0             -0.087830029  
       693   0              0              0              0              0             -0.087064667  
       694   0              0              0              0              0             -0.086200874  
       695   0              0              0              0              0             -0.085251312  
       696   0              0              0              0              0             -0.084229745  
       697   0              0              0              0              0             -0.083150686  
       698   0              0              0              0              0             -0.08202907   
       699   0              0              0              0              0             -0.080879948  
       700   0              0              0              0              0             -0.07971822   
       701   0              0              0              0              0             -0.078558394  
       702   0              0              0              0              0             -0.077414395  
       703   0              0              0              0              0             -0.076299394  
       704   0              0              0              0              0             -0.075225677  
       705   0              0              0              0              0             -0.074204537  
       706   0              0              0              0              0             -0.073246185  
       707   0              0              0              0              0             -0.072359686  
       708   0              0              0              0              0             -0.071552898  
       709   0              0              0              0              0             -0.070832435  
       710   0              0              0              0              0             -0.070203632  
       711   0              0              0              0              0             -0.069670521  
       712   0              0              0              0              0             -0.069235823  
       713   0              0              0              0              0             -0.068900942  
       714   0              0              0              0              0             -0.068665974  
       715   0              0              0              0              0             -0.06852973   
       716   0              0              0              0              0             -0.068489763  
       717   0              0              0              0              0             -0.068542419  
       718   0              0              0              0              0             -0.06868289   
       719   0              0              0              0              0             -0.068905283  
       720   0              0              0              0              0             -0.069202707  
       721   0              0              0              0              0             -0.06956737   
       722   0              0              0              0              0             -0.069990683  
       723   0              0              0              0              0             -0.070463393  
       724   0              0              0              0              0             -0.070975713  
       725   0              0              0              0              0             -0.071517476  
       726   0              0              0              0              0             -0.072078297  
       727   0              0              0              0              0             -0.072647742  
       728   0              0              0              0              0             -0.073215513  
       729   0              0              0              0              0             -0.073771628  
       730   0              0              0              0              0             -0.074306616  
       731   0              0              0              0              0             -0.074811695  
       732   0              0              0              0              0             -0.075278951  
       733   0              0              0              0              0             -0.075701491  
       734   0              0              0              0              0             -0.076073584  
       735   0              0              0              0              0             -0.076390761  
       736   0              0              0              0              0             -0.076649892  
       737   0              0              0              0              0             -0.07684921   
       738   0              0              0              0              0             -0.076988309  
       739   0              0              0              0              0             -0.077068094  
       740   0              0              0              0              0             -0.077090697  
       741   0              0              0              0              0             -0.077059358  
       742   0              0              0              0              0             -0.07697828   
       743   0              0              0              0              0             -0.076852468  
       744   0              0              0              0              0             -0.076687552  
       745   0              0              0              0              0             -0.076489613  
       746   0              0              0              0              0             -0.076265002  
       747   0              0              0              0              0             -0.076020184  
       748   0              0              0              0              0             -0.075761586  
       749   0              0              0              0              0             -0.075495474  
       750   0              0              0              0              0             -0.075227845  
       751   0              0              0              0              0             -0.074964347  
       752   0              0              0              0              0             -0.074710217  
       753   0              0              0              0              0             -0.074470229  
       754   0              0              0              0              0             -0.074248664  
       755   0              0              0              0              0             -0.074049284  
       756   0              0              0              0              0             -0.073875327  
       757   0              0              0              0              0             -0.073729502  
       758   0              0              0              0              0             -0.073614     
       759   0              0              0              0              0             -0.073530513  
[...]
      2806   0              0              0              0              0             -0.098869404  
      2807   0              0              0              0              0             -0.099617375  
      2808   0              0              0              0              0             -0.10016505   
      2809   0              0              0              0              0             -0.10050645   
      2810   0              0              0              0              0             -0.10064203   
      2811   0              0              0              0              0             -0.1005783    
      2812   0              0              0              0              0             -0.10032712   
      2813   0              0              0              0              0             -0.099904726  
      2814   0              0              0              0              0             -0.099330576  
      2815   0              0              0              0              0             -0.098626239  
      2816   0              0              0              0              0             -0.097814277  
      2817   0              0              0              0              0             -0.096917259  
      2818   0              0              0              0              0             -0.095956936  
      2819   0              0              0              0              0             -0.094953584  
      2820   0              0              0              0              0             -0.093925528  
      2821   0              0              0              0              0             -0.092888816  
      2822   0              0              0              0              0             -0.09185705   
      2823   0              0              0              0              0             -0.090841324  
      2824   0              0              0              0              0             -0.089850264  
      2825   0              0              0              0              0             -0.088890153  
      2826   0              0              0              0              0             -0.087965149  
      2827   0              0              0              0              0             -0.08707758   
      2828   0              0              0              0              0             -0.086228275  
      2829   0              0              0              0              0             -0.085416886  
      2830   0              0              0              0              0             -0.084642183  
      2831   0              0              0              0              0             -0.083902318  
      2832   0              0              0              0              0             -0.08319507   
      2833   0              0              0              0              0             -0.08251807   
      2834   0              0              0              0              0             -0.081869022  
      2835   0              0              0              0              0             -0.081245904  
      2836   0              0              0              0              0             -0.080647146  
      2837   0              0              0              0              0             -0.080071769  
      2838   0              0              0              0              0             -0.079519483  
      2839   0              0              0              0              0             -0.078990747  
      2840   0              0              0              0              0             -0.078486775  
      2841   0              0              0              0              0             -0.078009512  
      2842   0              0              0              0              0             -0.077561574  
      2843   0              0              0              0              0             -0.077146168  
      2844   0              0              0              0              0             -0.076766996  
      2845   0              0              0              0              0             -0.076428154  
      2846   0              0              0              0              0             -0.076134037  
      2847   0              0              0              0              0             -0.075889252  
      2848   0              0              0              0              0             -0.075698544  
      2849   0              0              0              0              0             -0.075566739  
      2850   0              0              0              0              0             -0.07549869   
      2851   0              0              0              0              0             -0.075499238  
      2852   0              0              0              0              0             -0.075573166  
      2853   0              0              0              0              0             -0.075725172  
      2854   0              0              0              0              0             -0.075959833  
      2855   0              0              0              0              0             -0.076281577  
      2856   0              0              0              0              0             -0.076694654  
      2857   0              0              0              0              0             -0.077203107  
      2858   0              0              0              0              0             -0.077810731  
      2859   0              0              0              0              0             -0.078521031  
      2860   0              0              0              0              0             -0.079337164  
      2861   0              0              0              0              0             -0.080261872  
      2862   0              0              0              0              0             -0.081297385  
      2863   0              0              0              0              0             -0.082445327  
      2864   0              0              0              0              0             -0.083706583  
      2865   0              0              0              0              0             -0.085081169  
      2866   0              0              0              0              0             -0.086568082  
      2867   0              0              0              0              0             -0.088165129  
      2868   0              0              0              0              0             -0.089868757  
      2869   0              0              0              0              0             -0.091673869  
      2870   0              0              0              0              0             -0.093573624  
      2871   0              0              0              0              0             -0.095559253  
      2872   0              0              0              0              0             -0.097619876  
      2873   0              0              0              0              0             -0.099742358  
      2874   0              0              0              0              0             -0.10191122   
      2875   0              0              0              0              0             -0.10410863   
      2876   0              0              0              0              0             -0.10631453   
      2877   0              0              0              0              0             -0.10850692   
      2878   0              0              0              0              0             -0.11066226   
      2879   0              0              0              0              0             -0.11275614   
      2880   0              0              0              0              0             -0.11476408   
      2881   0              0              0              0              0             -0.11666244   
      2882   0              0              0              0              0             -0.1184295    
      2883   0              0              0              0              0             -0.12004647   
      2884   0              0              0              0              0             -0.12149854   
      2885   0              0              0              0              0             -0.12277569   
      2886   0              0              0              0              0             -0.12387332   
      2887   0              0              0              0              0             -0.12479258   
      2888   0              0              0              0              0             -0.12554034   
      2889   0              0              0              0              0             -0.12612885   
      2890   0              0              0              0              0             -0.12657514   
      2891   0              0              0              0              0             -0.12690015   
      2892   0              0              0              0              0             -0.12712784   
      2893   0              0              0              0              0             -0.12728434   
      2894   0              0              0              0              0             -0.1273971    
      2895   0              0              0              0              0             -0.12749412   
      2896   0              0              0              0              0             -0.12760316   
      2897   0              0              0              0              0             -0.12775094   
      2898   0              0              0              0              0             -0.12796253   
      2899   0              0              0              0              0             -0.12826081   
      2900   0              0              0              0              0             -0.12866603   
      2901   0              0              0              0              0             -0.12919544   
      2902   0              0              0              0              0             -0.12986301   
      2903   0              0              0              0              0             -0.13067924   
      2904   0              0              0              0              0             -0.13165099   
      2905   0              0              0              0              0             -0.13278135   
      2906   0              0              0              0              0             -0.13406968   
      2907   0              0              0              0              0             -0.13551155   
      2908   0              0              0              0              0             -0.13709884   
      2909   0              0              0              0              0             -0.13881982   
      2910   0              0              0              0              0             -0.14065925   
      2911   0              0              0              0              0             -0.14259849   
      2912   0              0              0              0              0             -0.14461553   
      2913   0              0              0              0              0             -0.14668513   
      2914   0              0              0              0              0             -0.14877885   
      2915   0              0              0              0              0             -0.15086525   
      2916   0              0              0              0              0             -0.1529101    
      2917   0              0              0              0              0             -0.1548769    
      2918   0              0              0              0              0             -0.15672751   
      2919   0              0              0              0              0             -0.15842321   
      2920   0              0              0              0              0             -0.15992592   
      2921   0              0              0              0              0             -0.16119974   
      2922   0              0              0              0              0             -0.16221266   
      2923   0              0              0              0              0             -0.16293818   
      2924   0              0              0              0              0             -0.16335683   
      2925   0              0              0              0              0             -0.16345721   
      2926   0              0              0              0              0             -0.16323657   
      2927   0              0              0              0              0             -0.16270075   
      2928   0              0              0              0              0             -0.16186367   
      2929   0              0              0              0              0             -0.16074624   
      2930   0              0              0              0              0             -0.15937495   
      2931   0              0              0              0              0             -0.15778016   
      2932   0              0              0              0              0             -0.15599444   
      2933   0              0              0              0              0             -0.15405087   
      2934   0              0              0              0              0             -0.15198168   
      2935   0              0              0              0              0             -0.14981705   
      2936   0              0              0              0              0             -0.14758429   
      2937   0              0              0              0              0             -0.14530733   
      2938   0              0              0              0              0             -0.14300648   
      2939   0              0              0              0              0             -0.14069834   
      2940   0              0              0              0              0             -0.13839599   
      2941   0              0              0              0              0             -0.1361092    
      2942   0              0              0              0              0             -0.13384481   
      2943   0              0              0              0              0             -0.13160703   
      2944   0              0              0              0              0             -0.12939788   
      2945   0              0              0              0              0             -0.12721749   
      2946   0              0              0              0              0             -0.12506448   
      2947   0              0              0              0              0             -0.12293622   
      2948   0              0              0              0              0             -0.12082914   
      2949   0              0              0              0              0             -0.11873888   
      2950   0              0              0              0              0             -0.11666062   
      2951   0              0              0              0              0             -0.11458925   
      2952   0              0              0              0              0             -0.11251967   
      2953   0              0              0              0              0             -0.11044703   
      2954   0              0              0              0              0             -0.10836708   
      2955   0              0              0              0              0             -0.10627641   
      2956   0              0              0              0              0             -0.10417282   
      2957   0              0              0              0              0             -0.10205555   
      2958   0              0              0              0              0             -0.099925501  
      2959   0              0              0              0              0             -0.097785452  
      2960   0              0              0              0              0             -0.095640088  
      2961   0              0              0              0              0             -0.093495998  
      2962   0              0              0              0              0             -0.091361556  
      2963   0              0              0              0              0             -0.089246704  
      2964   0              0              0              0              0             -0.087162645  
      2965   0              0              0              0              0             -0.085121481  
      2966   0              0              0              0              0             -0.083135796  
      2967   0              0              0              0              0             -0.081218228  
      2968   0              0              0              0              0             -0.079381056  
      2969   0              0              0              0              0             -0.077635819  
      2970   0              0              0              0              0             -0.075992999  
      2971   0              0              0              0              0             -0.074461784  
      2972   0              0              0              0              0             -0.073049911  
      2973   0              0              0              0              0             -0.071763589  
      2974   0              0              0              0              0             -0.070607489  
      2975   0              0              0              0              0             -0.069584796  
      2976   0              0              0              0              0             -0.068697296  
      2977   0              0              0              0              0             -0.067945517  
      2978   0              0              0              0              0             -0.067328888  
      2979   0              0              0              0              0             -0.066845924  
      2980   0              0              0              0              0             -0.066494422  
      2981   0              0              0              0              0             -0.066271647  
      2982   0              0              0              0              0             -0.066174511  
      2983   0              0              0              0              0             -0.06619973   
      2984   0              0              0              0              0             -0.066343956  
      2985   0              0              0              0              0             -0.066603883  
      2986   0              0              0              0              0             -0.066976319  
      2987   0              0              0              0              0             -0.067458227  
      2988   0              0              0              0              0             -0.068046713  
      2989   0              0              0              0              0             -0.068738961  
      2990   0              0              0              0              0             -0.069532092  
      2991   0              0              0              0              0             -0.070422984  
      2992   0              0              0              0              0             -0.071408071  
      2993   0              0              0              0              0             -0.072483136  
      2994   0              0              0              0              0             -0.073643085  
      2995   0              0              0              0              0             -0.074881724  
      2996   0              0              0              0              0             -0.076191548  
      2997   0              0              0              0              0             -0.077563558  
      2998   0              0              0              0              0             -0.07898712   
      2999   0              0              0              0              0             -0.080449905  
      3000   0              0              0              0              0             -0.081937894  
Loop time of 9.61419 on 1 procs for 3001 steps with 12 atoms

Total wall time: 0:00:09
