LAMMPS (7 Feb 2024 - Development - patch_2Jun2022-7271-g417598498c)
Reading data file ...
  triclinic box = (0 0 0) to (5.1364755 5.1934133 5.2461598) with tilt (0 -0.88344297 0)
  1 by 1 by 1 MPI processor grid
  reading atoms ...
  12 atoms
  read_data CPU = 0.001 seconds
**************** Begin of POD Potentials ****************
species: Hf O 
periodic boundary conditions: 1 1 1
number of enviroment clusters: 1
number of principal compoments: 1
inner cut-off radius: 1
outer cut-off radius: 5.5
bessel polynomial degree: 4
inverse polynomial degree: 8
one-body potential: 1
two-body radial basis functions: 8
three-body radial basis functions: 6
three-body angular degree: 4
four-body radial basis functions: 4
four-body angular degree: 2
five-body radial basis functions: 4
five-body angular degree: 2
six-body radial basis functions: 3
six-body angular degree: 2
seven-body radial basis functions: 0
seven-body angular degree: 0
number of local descriptors per element for one-body potential: 1
number of local descriptors per element for two-body potential: 16
number of local descriptors per element for three-body potential: 90
number of local descriptors per element for four-body potential: 64
number of local descriptors per element for five-body potential: 192
number of local descriptors per element for six-body potential: 198
number of local descriptors per element for seven-body potential: 0
number of local descriptors per element for all potentials: 561
number of global descriptors: 1122
**************** End of POD Potentials ****************

WARNING: No fixes with time integration, atoms won't move (src/verlet.cpp:60)
Generated 0 of 1 mixed pair_coeff terms from geometric mixing rule
Neighbor list info ...
  update: every = 1 steps, delay = 0 steps, check = yes
  max neighbors/atom: 2000, page size: 100000
  master list distance cutoff = 10.5
  ghost atom cutoff = 10.5
  binsize = 5.25, bins = 2 1 1
  2 neighbor lists, perpetual/occasional/extra = 1 1 0
  (1) pair zero, perpetual
      attributes: half, newton on
      pair build: half/bin/atomonly/newton/tri
      stencil: half/bin/3d/tri
      bin: standard
  (2) compute podd/atom, occasional
      attributes: full, newton on
      pair build: full/bin/atomonly
      stencil: full/bin/3d
      bin: standard
Per MPI rank memory allocation (min/avg/max) = 3.666 | 3.666 | 3.666 Mbytes
   Step          Temp          PotEng         KinEng         TotEng         Press       v_exampledd  
         0   0              0              0              0              0             -0.072502342  
         1   0              0              0              0              0             -0.073613104  
         2   0              0              0              0              0             -0.074743945  
         3   0              0              0              0              0             -0.075888104  
         4   0              0              0              0              0             -0.077038933  
         5   0              0              0              0              0             -0.078189962  
         6   0              0              0              0              0             -0.079334941  
         7   0              0              0              0              0             -0.080467875  
         8   0              0              0              0              0             -0.081583044  
         9   0              0              0              0              0             -0.082675013  
        10   0              0              0              0              0             -0.083738631  
        11   0              0              0              0              0             -0.084769026  
        12   0              0              0              0              0             -0.08576159   
        13   0              0              0              0              0             -0.086711961  
        14   0              0              0              0              0             -0.087616003  
        15   0              0              0              0              0             -0.088469788  
        16   0              0              0              0              0             -0.089269583  
        17   0              0              0              0              0             -0.090011852  
        18   0              0              0              0              0             -0.090693264  
        19   0              0              0              0              0             -0.091310729  
        20   0              0              0              0              0             -0.091861436  
        21   0              0              0              0              0             -0.092342923  
        22   0              0              0              0              0             -0.092753147  
        23   0              0              0              0              0             -0.093090582  
        24   0              0              0              0              0             -0.093354307  
        25   0              0              0              0              0             -0.093544113  
        26   0              0              0              0              0             -0.093660596  
        27   0              0              0              0              0             -0.093705241  
        28   0              0              0              0              0             -0.093680491  
        29   0              0              0              0              0             -0.093589779  
        30   0              0              0              0              0             -0.093437545  
        31   0              0              0              0              0             -0.093229199  
        32   0              0              0              0              0             -0.092971066  
        33   0              0              0              0              0             -0.092670283  
        34   0              0              0              0              0             -0.092334668  
        35   0              0              0              0              0             -0.091972566  
        36   0              0              0              0              0             -0.091592667  
        37   0              0              0              0              0             -0.091203811  
        38   0              0              0              0              0             -0.09081479   
        39   0              0              0              0              0             -0.090434141  
        40   0              0              0              0              0             -0.090069955  
        41   0              0              0              0              0             -0.089729692  
        42   0              0              0              0              0             -0.08942003   
        43   0              0              0              0              0             -0.08914672   
        44   0              0              0              0              0             -0.088914494  
        45   0              0              0              0              0             -0.088726977  
        46   0              0              0              0              0             -0.088586658  
        47   0              0              0              0              0             -0.088494866  
        48   0              0              0              0              0             -0.088451796  
        49   0              0              0              0              0             -0.08845655   
        50   0              0              0              0              0             -0.088507217  
        51   0              0              0              0              0             -0.088600974  
        52   0              0              0              0              0             -0.088734217  
        53   0              0              0              0              0             -0.08890271   
        54   0              0              0              0              0             -0.08910176   
        55   0              0              0              0              0             -0.089326388  
        56   0              0              0              0              0             -0.089571512  
        57   0              0              0              0              0             -0.089832125  
        58   0              0              0              0              0             -0.090103457  
        59   0              0              0              0              0             -0.090381115  
        60   0              0              0              0              0             -0.090661205  
        61   0              0              0              0              0             -0.090940421  
        62   0              0              0              0              0             -0.091216103  
        63   0              0              0              0              0             -0.09148627   
        64   0              0              0              0              0             -0.091749618  
        65   0              0              0              0              0             -0.092005505  
        66   0              0              0              0              0             -0.092253907  
        67   0              0              0              0              0             -0.092495362  
        68   0              0              0              0              0             -0.092730902  
        69   0              0              0              0              0             -0.092961971  
        70   0              0              0              0              0             -0.093190332  
        71   0              0              0              0              0             -0.093417963  
        72   0              0              0              0              0             -0.093646945  
        73   0              0              0              0              0             -0.093879335  
        74   0              0              0              0              0             -0.094117033  
        75   0              0              0              0              0             -0.094361637  
        76   0              0              0              0              0             -0.094614289  
        77   0              0              0              0              0             -0.094875519  
        78   0              0              0              0              0             -0.095145092  
        79   0              0              0              0              0             -0.095421878  
        80   0              0              0              0              0             -0.095703754  
        81   0              0              0              0              0             -0.095987541  
        82   0              0              0              0              0             -0.096269     
        83   0              0              0              0              0             -0.096542877  
        84   0              0              0              0              0             -0.096803008  
        85   0              0              0              0              0             -0.097042464  
        86   0              0              0              0              0             -0.097253761  
        87   0              0              0              0              0             -0.097429098  
        88   0              0              0              0              0             -0.097560644  
        89   0              0              0              0              0             -0.097640851  
        90   0              0              0              0              0             -0.097662801  
        91   0              0              0              0              0             -0.097620543  
        92   0              0              0              0              0             -0.097509423  
        93   0              0              0              0              0             -0.097326355  
        94   0              0              0              0              0             -0.097070029  
        95   0              0              0              0              0             -0.096741034  
        96   0              0              0              0              0             -0.09634189   
        97   0              0              0              0              0             -0.095876999  
        98   0              0              0              0              0             -0.095352515  
        99   0              0              0              0              0             -0.094776143  
       100   0              0              0              0              0             -0.094156892  
       101   0              0              0              0              0             -0.093504775  
       102   0              0              0              0              0             -0.092830503  
       103   0              0              0              0              0             -0.092145159  
       104   0              0              0              0              0             -0.091459886  
       105   0              0              0              0              0             -0.090785586  
       106   0              0              0              0              0             -0.090132651  
       107   0              0              0              0              0             -0.089510721  
       108   0              0              0              0              0             -0.088928479  
       109   0              0              0              0              0             -0.088393479  
       110   0              0              0              0              0             -0.087912013  
       111   0              0              0              0              0             -0.087489011  
       112   0              0              0              0              0             -0.087127978  
       113   0              0              0              0              0             -0.08683096   
       114   0              0              0              0              0             -0.086598541  
       115   0              0              0              0              0             -0.086429872  
       116   0              0              0              0              0             -0.086322726  
       117   0              0              0              0              0             -0.086273573  
       118   0              0              0              0              0             -0.08627769   
       119   0              0              0              0              0             -0.086329291  
       120   0              0              0              0              0             -0.086421675  
       121   0              0              0              0              0             -0.086547392  
       122   0              0              0              0              0             -0.086698428  
       123   0              0              0              0              0             -0.086866396  
       124   0              0              0              0              0             -0.087042741  
       125   0              0              0              0              0             -0.087218944  
       126   0              0              0              0              0             -0.087386739  
       127   0              0              0              0              0             -0.087538315  
       128   0              0              0              0              0             -0.087666509  
       129   0              0              0              0              0             -0.087764977  
       130   0              0              0              0              0             -0.087828325  
       131   0              0              0              0              0             -0.087852216  
       132   0              0              0              0              0             -0.087833423  
       133   0              0              0              0              0             -0.087769847  
       134   0              0              0              0              0             -0.087660492  
       135   0              0              0              0              0             -0.087505406  
       136   0              0              0              0              0             -0.087305589  
       137   0              0              0              0              0             -0.087062882  
       138   0              0              0              0              0             -0.086779841  
       139   0              0              0              0              0             -0.086459601  
       140   0              0              0              0              0             -0.086105746  
       141   0              0              0              0              0             -0.085722185  
       142   0              0              0              0              0             -0.08531304   
       143   0              0              0              0              0             -0.084882558  
       144   0              0              0              0              0             -0.084435038  
       145   0              0              0              0              0             -0.083974784  
       146   0              0              0              0              0             -0.083506069  
       147   0              0              0              0              0             -0.083033128  
       148   0              0              0              0              0             -0.082560152  
       149   0              0              0              0              0             -0.082091302  
       150   0              0              0              0              0             -0.081630724  
       151   0              0              0              0              0             -0.081182567  
       152   0              0              0              0              0             -0.080750999  
       153   0              0              0              0              0             -0.08034022   
       154   0              0              0              0              0             -0.079954464  
       155   0              0              0              0              0             -0.079597994  
       156   0              0              0              0              0             -0.079275096  
       157   0              0              0              0              0             -0.07899005   
       158   0              0              0              0              0             -0.07874711   
       159   0              0              0              0              0             -0.078550461  
       160   0              0              0              0              0             -0.078404188  
       161   0              0              0              0              0             -0.078312225  
       162   0              0              0              0              0             -0.078278314  
       163   0              0              0              0              0             -0.078305956  
       164   0              0              0              0              0             -0.078398369  
       165   0              0              0              0              0             -0.078558445  
       166   0              0              0              0              0             -0.07878871   
       167   0              0              0              0              0             -0.07909129   
       168   0              0              0              0              0             -0.079467875  
       169   0              0              0              0              0             -0.079919687  
       170   0              0              0              0              0             -0.080447445  
       171   0              0              0              0              0             -0.081051332  
       172   0              0              0              0              0             -0.081730951  
       173   0              0              0              0              0             -0.082485285  
       174   0              0              0              0              0             -0.083312653  
       175   0              0              0              0              0             -0.08421066   
       176   0              0              0              0              0             -0.085176155  
       177   0              0              0              0              0             -0.08620519   
       178   0              0              0              0              0             -0.087292991  
       179   0              0              0              0              0             -0.08843394   
       180   0              0              0              0              0             -0.089621576  
       181   0              0              0              0              0             -0.090848619  
       182   0              0              0              0              0             -0.092107017  
       183   0              0              0              0              0             -0.093388022  
       184   0              0              0              0              0             -0.094682295  
       185   0              0              0              0              0             -0.095980035  
       186   0              0              0              0              0             -0.097271136  
       187   0              0              0              0              0             -0.098545368  
       188   0              0              0              0              0             -0.099792572  
       189   0              0              0              0              0             -0.10100286   
       190   0              0              0              0              0             -0.10216684   
       191   0              0              0              0              0             -0.10327577   
       192   0              0              0              0              0             -0.1043218    
       193   0              0              0              0              0             -0.10529806   
       194   0              0              0              0              0             -0.10619885   
       195   0              0              0              0              0             -0.10701967   
       196   0              0              0              0              0             -0.10775731   
       197   0              0              0              0              0             -0.10840981   
       198   0              0              0              0              0             -0.10897652   
       199   0              0              0              0              0             -0.10945795   
       200   0              0              0              0              0             -0.10985577   
       201   0              0              0              0              0             -0.11017272   
       202   0              0              0              0              0             -0.11041247   
       203   0              0              0              0              0             -0.11057955   
       204   0              0              0              0              0             -0.11067926   
       205   0              0              0              0              0             -0.11071747   
       206   0              0              0              0              0             -0.11070062   
       207   0              0              0              0              0             -0.11063552   
       208   0              0              0              0              0             -0.1105293    
       209   0              0              0              0              0             -0.11038929   
       210   0              0              0              0              0             -0.11022293   
       211   0              0              0              0              0             -0.11003771   
       212   0              0              0              0              0             -0.10984099   
       213   0              0              0              0              0             -0.10963999   
       214   0              0              0              0              0             -0.10944158   
       215   0              0              0              0              0             -0.1092522    
       216   0              0              0              0              0             -0.10907768   
       217   0              0              0              0              0             -0.10892309   
       218   0              0              0              0              0             -0.10879255   
       219   0              0              0              0              0             -0.10868908   
       220   0              0              0              0              0             -0.10861447   
       221   0              0              0              0              0             -0.10856909   
       222   0              0              0              0              0             -0.10855185   
       223   0              0              0              0              0             -0.10856015   
       224   0              0              0              0              0             -0.10858986   
       225   0              0              0              0              0             -0.1086354    
       226   0              0              0              0              0             -0.1086899    
       227   0              0              0              0              0             -0.10874537   
       228   0              0              0              0              0             -0.10879297   
       229   0              0              0              0              0             -0.10882331   
       230   0              0              0              0              0             -0.1088268    
       231   0              0              0              0              0             -0.108794     
       232   0              0              0              0              0             -0.10871597   
       233   0              0              0              0              0             -0.10858461   
       234   0              0              0              0              0             -0.10839299   
       235   0              0              0              0              0             -0.10813557   
       236   0              0              0              0              0             -0.10780844   
       237   0              0              0              0              0             -0.10740944   
       238   0              0              0              0              0             -0.10693824   
       239   0              0              0              0              0             -0.10639632   
       240   0              0              0              0              0             -0.10578695   
       241   0              0              0              0              0             -0.10511503   
       242   0              0              0              0              0             -0.10438691   
       243   0              0              0              0              0             -0.10361017   
       244   0              0              0              0              0             -0.10279333   
       245   0              0              0              0              0             -0.10194562   
       246   0              0              0              0              0             -0.10107665   
       247   0              0              0              0              0             -0.10019614   
       248   0              0              0              0              0             -0.099313647  
       249   0              0              0              0              0             -0.098438346  
       250   0              0              0              0              0             -0.097578812  
       251   0              0              0              0              0             -0.096742854  
       252   0              0              0              0              0             -0.095937388  
       253   0              0              0              0              0             -0.095168342  
       254   0              0              0              0              0             -0.094440595  
       255   0              0              0              0              0             -0.09375795   
       256   0              0              0              0              0             -0.093123122  
       257   0              0              0              0              0             -0.092537756  
       258   0              0              0              0              0             -0.092002458  
       259   0              0              0              0              0             -0.091516836  
       260   0              0              0              0              0             -0.091079563  
       261   0              0              0              0              0             -0.090688441  
       262   0              0              0              0              0             -0.090340483  
       263   0              0              0              0              0             -0.090031996  
       264   0              0              0              0              0             -0.089758684  
       265   0              0              0              0              0             -0.089515755  
       266   0              0              0              0              0             -0.089298039  
       267   0              0              0              0              0             -0.089100113  
       268   0              0              0              0              0             -0.088916444  
       269   0              0              0              0              0             -0.088741533  
       270   0              0              0              0              0             -0.088570067  
       271   0              0              0              0              0             -0.088397082  
       272   0              0              0              0              0             -0.08821812   
       273   0              0              0              0              0             -0.088029383  
       274   0              0              0              0              0             -0.087827873  
       275   0              0              0              0              0             -0.087611515  
       276   0              0              0              0              0             -0.08737925   
       277   0              0              0              0              0             -0.087131091  
       278   0              0              0              0              0             -0.086868137  
       279   0              0              0              0              0             -0.08659255   
       280   0              0              0              0              0             -0.08630748   
       281   0              0              0              0              0             -0.086016956  
       282   0              0              0              0              0             -0.085725743  
       283   0              0              0              0              0             -0.085439173  
       284   0              0              0              0              0             -0.085162963  
       285   0              0              0              0              0             -0.084903026  
       286   0              0              0              0              0             -0.084665287  
       287   0              0              0              0              0             -0.084455506  
       288   0              0              0              0              0             -0.084279119  
       289   0              0              0              0              0             -0.084141097  
       290   0              0              0              0              0             -0.084045823  
       291   0              0              0              0              0             -0.083997     
       292   0              0              0              0              0             -0.083997557  
       293   0              0              0              0              0             -0.084049591  
       294   0              0              0              0              0             -0.084154302  
       295   0              0              0              0              0             -0.084311944  
       296   0              0              0              0              0             -0.08452178   
       297   0              0              0              0              0             -0.084782028  
       298   0              0              0              0              0             -0.085089819  
       299   0              0              0              0              0             -0.08544114   
       300   0              0              0              0              0             -0.085830782  
       301   0              0              0              0              0             -0.086252296  
       302   0              0              0              0              0             -0.086697975  
       303   0              0              0              0              0             -0.087158865  
       304   0              0              0              0              0             -0.087624811  
       305   0              0              0              0              0             -0.088084553  
       306   0              0              0              0              0             -0.088525868  
       307   0              0              0              0              0             -0.088935758  
       308   0              0              0              0              0             -0.089300704  
       309   0              0              0              0              0             -0.089606964  
       310   0              0              0              0              0             -0.089840938  
       311   0              0              0              0              0             -0.089989564  
       312   0              0              0              0              0             -0.09004077   
       313   0              0              0              0              0             -0.089983961  
       314   0              0              0              0              0             -0.089810519  
       315   0              0              0              0              0             -0.089514263  
       316   0              0              0              0              0             -0.089091822  
       317   0              0              0              0              0             -0.088542864  
       318   0              0              0              0              0             -0.087870183  
       319   0              0              0              0              0             -0.087079644  
       320   0              0              0              0              0             -0.086179976  
       321   0              0              0              0              0             -0.085182464  
       322   0              0              0              0              0             -0.084100519  
       323   0              0              0              0              0             -0.082949199  
       324   0              0              0              0              0             -0.081744678  
       325   0              0              0              0              0             -0.080503714  
       326   0              0              0              0              0             -0.07924314   
       327   0              0              0              0              0             -0.077979404  
       328   0              0              0              0              0             -0.076728178  
       329   0              0              0              0              0             -0.075504041  
       330   0              0              0              0              0             -0.074320248  
       331   0              0              0              0              0             -0.07318857   
       332   0              0              0              0              0             -0.072119213  
       333   0              0              0              0              0             -0.071120787  
       334   0              0              0              0              0             -0.070200327  
       335   0              0              0              0              0             -0.069363358  
       336   0              0              0              0              0             -0.06861398   
       337   0              0              0              0              0             -0.067954979  
       338   0              0              0              0              0             -0.067387947  
       339   0              0              0              0              0             -0.066913418  
       340   0              0              0              0              0             -0.066531001  
       341   0              0              0              0              0             -0.066239526  
       342   0              0              0              0              0             -0.066037196  
       343   0              0              0              0              0             -0.065921741  
       344   0              0              0              0              0             -0.065890576  
       345   0              0              0              0              0             -0.065940939  
       346   0              0              0              0              0             -0.06606998   
       347   0              0              0              0              0             -0.066274787  
       348   0              0              0              0              0             -0.066552337  
       349   0              0              0              0              0             -0.066899417  
       350   0              0              0              0              0             -0.067312548  
       351   0              0              0              0              0             -0.067787916  
       352   0              0              0              0              0             -0.068321291  
       353   0              0              0              0              0             -0.068907956  
       354   0              0              0              0              0             -0.069542627  
       355   0              0              0              0              0             -0.070219393  
       356   0              0              0              0              0             -0.070931669  
       357   0              0              0              0              0             -0.071672177  
       358   0              0              0              0              0             -0.072432959  
       359   0              0              0              0              0             -0.073205432  
       360   0              0              0              0              0             -0.073980487  
       361   0              0              0              0              0             -0.074748627  
       362   0              0              0              0              0             -0.075500152  
       363   0              0              0              0              0             -0.07622537   
       364   0              0              0              0              0             -0.076914836  
       365   0              0              0              0              0             -0.077559585  
       366   0              0              0              0              0             -0.078151368  
       367   0              0              0              0              0             -0.07868286   
       368   0              0              0              0              0             -0.079147832  
       369   0              0              0              0              0             -0.079541289  
       370   0              0              0              0              0             -0.079859551  
       371   0              0              0              0              0             -0.080100309  
       372   0              0              0              0              0             -0.080262621  
       373   0              0              0              0              0             -0.080346892  
       374   0              0              0              0              0             -0.080354816  
       375   0              0              0              0              0             -0.080289302  
       376   0              0              0              0              0             -0.080154395  
       377   0              0              0              0              0             -0.079955169  
       378   0              0              0              0              0             -0.079697626  
       379   0              0              0              0              0             -0.079388572  
       380   0              0              0              0              0             -0.079035482  
       381   0              0              0              0              0             -0.078646357  
       382   0              0              0              0              0             -0.078229557  
       383   0              0              0              0              0             -0.07779363   
       384   0              0              0              0              0             -0.077347121  
       385   0              0              0              0              0             -0.076898372  
       386   0              0              0              0              0             -0.076455302  
       387   0              0              0              0              0             -0.076025217  
       388   0              0              0              0              0             -0.075614693  
       389   0              0              0              0              0             -0.075229582  
       390   0              0              0              0              0             -0.074875129  
       391   0              0              0              0              0             -0.074556104  
       392   0              0              0              0              0             -0.074276897  
       393   0              0              0              0              0             -0.074041515  
       394   0              0              0              0              0             -0.073853456  
       395   0              0              0              0              0             -0.073715509  
       396   0              0              0              0              0             -0.073629493  
       397   0              0              0              0              0             -0.073596009  
       398   0              0              0              0              0             -0.073614238  
       399   0              0              0              0              0             -0.073681842  
       400   0              0              0              0              0             -0.073794997  
       401   0              0              0              0              0             -0.073948599  
       402   0              0              0              0              0             -0.074136639  
       403   0              0              0              0              0             -0.074352733  
       404   0              0              0              0              0             -0.074590715  
       405   0              0              0              0              0             -0.074845166  
       406   0              0              0              0              0             -0.0751117    
       407   0              0              0              0              0             -0.075386914  
       408   0              0              0              0              0             -0.075668128  
       409   0              0              0              0              0             -0.075953206  
       410   0              0              0              0              0             -0.076240645  
       411   0              0              0              0              0             -0.076529727  
       412   0              0              0              0              0             -0.076820474  
       413   0              0              0              0              0             -0.077113456  
       414   0              0              0              0              0             -0.077409539  
       415   0              0              0              0              0             -0.077709629  
       416   0              0              0              0              0             -0.078014461  
       417   0              0              0              0              0             -0.078324418  
       418   0              0              0              0              0             -0.078639409  
       419   0              0              0              0              0             -0.078958816  
       420   0              0              0              0              0             -0.079281504  
       421   0              0              0              0              0             -0.079605892  
       422   0              0              0              0              0             -0.079930089  
       423   0              0              0              0              0             -0.08025205   
       424   0              0              0              0              0             -0.080569777  
       425   0              0              0              0              0             -0.080881506  
       426   0              0              0              0              0             -0.081185889  
       427   0              0              0              0              0             -0.081482132  
       428   0              0              0              0              0             -0.081770093  
       429   0              0              0              0              0             -0.082050316  
       430   0              0              0              0              0             -0.082324032  
       431   0              0              0              0              0             -0.082593096  
       432   0              0              0              0              0             -0.082859903  
       433   0              0              0              0              0             -0.083127259  
       434   0              0              0              0              0             -0.083398238  
       435   0              0              0              0              0             -0.08367602   
       436   0              0              0              0              0             -0.08396373   
       437   0              0              0              0              0             -0.084264287  
       438   0              0              0              0              0             -0.084580267  
       439   0              0              0              0              0             -0.084913785  
       440   0              0              0              0              0             -0.085266412  
       441   0              0              0              0              0             -0.08563911   
       442   0              0              0              0              0             -0.086032213  
       443   0              0              0              0              0             -0.08644543   
       444   0              0              0              0              0             -0.086877888  
       445   0              0              0              0              0             -0.0873282    
       446   0              0              0              0              0             -0.087794552  
       447   0              0              0              0              0             -0.088274806  
       448   0              0              0              0              0             -0.088766609  
       449   0              0              0              0              0             -0.08926749   
       450   0              0              0              0              0             -0.089774942  
       451   0              0              0              0              0             -0.090286477  
       452   0              0              0              0              0             -0.090799653  
       453   0              0              0              0              0             -0.091312071  
       454   0              0              0              0              0             -0.091821337  
       455   0              0              0              0              0             -0.092325018  
       456   0              0              0              0              0             -0.092820578  
       457   0              0              0              0              0             -0.093305325  
       458   0              0              0              0              0             -0.093776368  
       459   0              0              0              0              0             -0.094230607  
       460   0              0              0              0              0             -0.094664749  
       461   0              0              0              0              0             -0.095075371  
       462   0              0              0              0              0             -0.095459017  
       463   0              0              0              0              0             -0.095812307  
       464   0              0              0              0              0             -0.096132057  
       465   0              0              0              0              0             -0.096415396  
       466   0              0              0              0              0             -0.096659872  
       467   0              0              0              0              0             -0.09686356   
       468   0              0              0              0              0             -0.097025154  
       469   0              0              0              0              0             -0.097144049  
       470   0              0              0              0              0             -0.097220403  
       471   0              0              0              0              0             -0.097255183  
       472   0              0              0              0              0             -0.097250186  
       473   0              0              0              0              0             -0.097208033  
       474   0              0              0              0              0             -0.097132139  
       475   0              0              0              0              0             -0.097026649  
       476   0              0              0              0              0             -0.096896352  
       477   0              0              0              0              0             -0.09674656   
       478   0              0              0              0              0             -0.09658296   
       479   0              0              0              0              0             -0.096411444  
       480   0              0              0              0              0             -0.096237926  
       481   0              0              0              0              0             -0.096068151  
       482   0              0              0              0              0             -0.095907512  
       483   0              0              0              0              0             -0.095760877  
       484   0              0              0              0              0             -0.095632425  
       485   0              0              0              0              0             -0.095525502  
       486   0              0              0              0              0             -0.09544247   
       487   0              0              0              0              0             -0.095384578  
       488   0              0              0              0              0             -0.095351844  
       489   0              0              0              0              0             -0.095342976  
       490   0              0              0              0              0             -0.095355332  
       491   0              0              0              0              0             -0.095384952  
       492   0              0              0              0              0             -0.095426637  
       493   0              0              0              0              0             -0.095474093  
       494   0              0              0              0              0             -0.095520129  
       495   0              0              0              0              0             -0.095556887  
       496   0              0              0              0              0             -0.095576086  
       497   0              0              0              0              0             -0.095569277  
       498   0              0              0              0              0             -0.095528077  
       499   0              0              0              0              0             -0.095444397  
       500   0              0              0              0              0             -0.095310643  
       501   0              0              0              0              0             -0.095119895  
       502   0              0              0              0              0             -0.094866059  
       503   0              0              0              0              0             -0.094544     
       504   0              0              0              0              0             -0.09414965   
       505   0              0              0              0              0             -0.09368009   
       506   0              0              0              0              0             -0.093133619  
       507   0              0              0              0              0             -0.092509797  
       508   0              0              0              0              0             -0.091809464  
       509   0              0              0              0              0             -0.091034747  
       510   0              0              0              0              0             -0.090189038  
       511   0              0              0              0              0             -0.089276947  
       512   0              0              0              0              0             -0.088304231  
       513   0              0              0              0              0             -0.087277703  
       514   0              0              0              0              0             -0.0862051    
       515   0              0              0              0              0             -0.085094935  
       516   0              0              0              0              0             -0.083956316  
       517   0              0              0              0              0             -0.082798743  
       518   0              0              0              0              0             -0.081631882  
       519   0              0              0              0              0             -0.080465329  
       520   0              0              0              0              0             -0.079308369  
       521   0              0              0              0              0             -0.078169738  
       522   0              0              0              0              0             -0.077057412  
       523   0              0              0              0              0             -0.075978421  
       524   0              0              0              0              0             -0.07493871   
       525   0              0              0              0              0             -0.07394304   
       526   0              0              0              0              0             -0.07299494   
       527   0              0              0              0              0             -0.072096698  
       528   0              0              0              0              0             -0.071249399  
       529   0              0              0              0              0             -0.070453006  
       530   0              0              0              0              0             -0.069706476  
       531   0              0              0              0              0             -0.069007923  
       532   0              0              0              0              0             -0.068354801  
       533   0              0              0              0              0             -0.067744107  
       534   0              0              0              0              0             -0.067172608  
       535   0              0              0              0              0             -0.066637052  
       536   0              0              0              0              0             -0.06613437   
       537   0              0              0              0              0             -0.065661842  
       538   0              0              0              0              0             -0.065217221  
       539   0              0              0              0              0             -0.06479884   
       540   0              0              0              0              0             -0.06440567   
       541   0              0              0              0              0             -0.064037354  
       542   0              0              0              0              0             -0.063694209  
       543   0              0              0              0              0             -0.063377192  
       544   0              0              0              0              0             -0.063087837  
       545   0              0              0              0              0             -0.062828178  
       546   0              0              0              0              0             -0.062600654  
       547   0              0              0              0              0             -0.062408001  
       548   0              0              0              0              0             -0.062253154  
       549   0              0              0              0              0             -0.062139139  
       550   0              0              0              0              0             -0.062068985  
       551   0              0              0              0              0             -0.062045633  
       552   0              0              0              0              0             -0.062071859  
       553   0              0              0              0              0             -0.062150212  
       554   0              0              0              0              0             -0.062282945  
       555   0              0              0              0              0             -0.062471955  
       556   0              0              0              0              0             -0.062718728  
       557   0              0              0              0              0             -0.063024281  
       558   0              0              0              0              0             -0.063389122  
       559   0              0              0              0              0             -0.063813202  
       560   0              0              0              0              0             -0.064295865  
       561   0              0              0              0              0             -0.064835803  
       562   0              0              0              0              0             -0.065431011  
       563   0              0              0              0              0             -0.066078762  
       564   0              0              0              0              0             -0.066775614  
       565   0              0              0              0              0             -0.067517443  
       566   0              0              0              0              0             -0.068299507  
       567   0              0              0              0              0             -0.06911652   
       568   0              0              0              0              0             -0.069962753  
       569   0              0              0              0              0             -0.07083214   
       570   0              0              0              0              0             -0.071718423  
       571   0              0              0              0              0             -0.072615295  
       572   0              0              0              0              0             -0.073516569  
       573   0              0              0              0              0             -0.074416341  
       574   0              0              0              0              0             -0.075309156  
       575   0              0              0              0              0             -0.076190155  
       576   0              0              0              0              0             -0.077055206  
       577   0              0              0              0              0             -0.077901004  
       578   0              0              0              0              0             -0.07872514   
       579   0              0              0              0              0             -0.079526139  
       580   0              0              0              0              0             -0.080303455  
       581   0              0              0              0              0             -0.081057443  
       582   0              0              0              0              0             -0.08178929   
       583   0              0              0              0              0             -0.082500928  
       584   0              0              0              0              0             -0.083194929  
       585   0              0              0              0              0             -0.083874377  
       586   0              0              0              0              0             -0.084542752  
       587   0              0              0              0              0             -0.085203795  
       588   0              0              0              0              0             -0.085861398  
       589   0              0              0              0              0             -0.086519488  
       590   0              0              0              0              0             -0.087181933  
       591   0              0              0              0              0             -0.087852459  
       592   0              0              0              0              0             -0.088534581  
       593   0              0              0              0              0             -0.089231556  
       594   0              0              0              0              0             -0.089946327  
       595   0              0              0              0              0             -0.090681485  
       596   0              0              0              0              0             -0.091439222  
       597   0              0              0              0              0             -0.092221285  
       598   0              0              0              0              0             -0.093028917  
       599   0              0              0              0              0             -0.093862797  
       600   0              0              0              0              0             -0.094722972  
       601   0              0              0              0              0             -0.09560878   
       602   0              0              0              0              0             -0.09651878   
       603   0              0              0              0              0             -0.097450676  
       604   0              0              0              0              0             -0.098401262  
       605   0              0              0              0              0             -0.099366373  
       606   0              0              0              0              0             -0.10034086   
       607   0              0              0              0              0             -0.10131859   
       608   0              0              0              0              0             -0.10229246   
       609   0              0              0              0              0             -0.10325448   
       610   0              0              0              0              0             -0.10419585   
       611   0              0              0              0              0             -0.10510714   
       612   0              0              0              0              0             -0.10597849   
       613   0              0              0              0              0             -0.10679986   
       614   0              0              0              0              0             -0.10756133   
       615   0              0              0              0              0             -0.10825347   
       616   0              0              0              0              0             -0.10886767   
       617   0              0              0              0              0             -0.1093965    
       618   0              0              0              0              0             -0.10983405   
       619   0              0              0              0              0             -0.11017614   
       620   0              0              0              0              0             -0.11042054   
       621   0              0              0              0              0             -0.11056702   
       622   0              0              0              0              0             -0.11061734   
       623   0              0              0              0              0             -0.11057509   
       624   0              0              0              0              0             -0.11044551   
       625   0              0              0              0              0             -0.11023518   
       626   0              0              0              0              0             -0.10995172   
       627   0              0              0              0              0             -0.10960342   
       628   0              0              0              0              0             -0.10919896   
       629   0              0              0              0              0             -0.10874703   
       630   0              0              0              0              0             -0.10825608   
       631   0              0              0              0              0             -0.10773407   
       632   0              0              0              0              0             -0.10718831   
       633   0              0              0              0              0             -0.10662528   
       634   0              0              0              0              0             -0.10605062   
       635   0              0              0              0              0             -0.10546904   
       636   0              0              0              0              0             -0.10488441   
       637   0              0              0              0              0             -0.10429978   
       638   0              0              0              0              0             -0.1037175    
       639   0              0              0              0              0             -0.10313938   
       640   0              0              0              0              0             -0.10256677   
       641   0              0              0              0              0             -0.10200077   
       642   0              0              0              0              0             -0.10144234   
       643   0              0              0              0              0             -0.10089248   
       644   0              0              0              0              0             -0.10035232   
       645   0              0              0              0              0             -0.099823215  
       646   0              0              0              0              0             -0.099306871  
       647   0              0              0              0              0             -0.098805345  
       648   0              0              0              0              0             -0.098321086  
       649   0              0              0              0              0             -0.09785692   
       650   0              0              0              0              0             -0.097416016  
       651   0              0              0              0              0             -0.097001827  
       652   0              0              0              0              0             -0.096618005  
       653   0              0              0              0              0             -0.096268308  
       654   0              0              0              0              0             -0.095956491  
       655   0              0              0              0              0             -0.095686197  
       656   0              0              0              0              0             -0.09546084   
       657   0              0              0              0              0             -0.0952835    
       658   0              0              0              0              0             -0.095156819  
       659   0              0              0              0              0             -0.095082905  
       660   0              0              0              0              0             -0.095063254  
       661   0              0              0              0              0             -0.095098668  
       662   0              0              0              0              0             -0.095189197  
       663   0              0              0              0              0             -0.095334081  
       664   0              0              0              0              0             -0.095531704  
       665   0              0              0              0              0             -0.09577956   
       666   0              0              0              0              0             -0.096074226  
       667   0              0              0              0              0             -0.096411348  
       668   0              0              0              0              0             -0.096785654  
       669   0              0              0              0              0             -0.097190984  
       670   0              0              0              0              0             -0.097620345  
       671   0              0              0              0              0             -0.098066001  
       672   0              0              0              0              0             -0.098519588  
       673   0              0              0              0              0             -0.098972255  
       674   0              0              0              0              0             -0.099414841  
       675   0              0              0              0              0             -0.099838066  
       676   0              0              0              0              0             -0.10023274   
       677   0              0              0              0              0             -0.10058999   
       678   0              0              0              0              0             -0.10090145   
       679   0              0              0              0              0             -0.10115949   
       680   0              0              0              0              0             -0.10135742   
       681   0              0              0              0              0             -0.10148962   
       682   0              0              0              0              0             -0.10155174   
       683   0              0              0              0              0             -0.10154081   
       684   0              0              0              0              0             -0.10145531   
       685   0              0              0              0              0             -0.10129521   
       686   0              0              0              0              0             -0.10106198   
       687   0              0              0              0              0             -0.1007585    
       688   0              0              0              0              0             -0.10038901   
       689   0              0              0              0              0             -0.099958899  
       690   0              0              0              0              0             -0.099474568  
       691   0              0              0              0              0             -0.098943174  
       692   0              0              0              0              0             -0.098372407  
       693   0              0              0              0              0             -0.097770242  
       694   0              0              0              0              0             -0.097144701  
       695   0              0              0              0              0             -0.096503634  
       696   0              0              0              0              0             -0.095854534  
       697   0              0              0              0              0             -0.095204385  
       698   0              0              0              0              0             -0.094559567  
       699   0              0              0              0              0             -0.093925788  
       700   0              0              0              0              0             -0.093308079  
       701   0              0              0              0              0             -0.092710806  
       702   0              0              0              0              0             -0.092137719  
       703   0              0              0              0              0             -0.091592006  
       704   0              0              0              0              0             -0.091076345  
       705   0              0              0              0              0             -0.090592952  
       706   0              0              0              0              0             -0.0901436    
       707   0              0              0              0              0             -0.089729617  
       708   0              0              0              0              0             -0.089351862  
       709   0              0              0              0              0             -0.089010673  
       710   0              0              0              0              0             -0.088705801  
       711   0              0              0              0              0             -0.088436322  
       712   0              0              0              0              0             -0.088200557  
       713   0              0              0              0              0             -0.087995987  
       714   0              0              0              0              0             -0.0878192    
       715   0              0              0              0              0             -0.087665869  
       716   0              0              0              0              0             -0.08753076   
       717   0              0              0              0              0             -0.08740781   
       718   0              0              0              0              0             -0.087290238  
       719   0              0              0              0              0             -0.087170718  
       720   0              0              0              0              0             -0.087041593  
       721   0              0              0              0              0             -0.086895135  
       722   0              0              0              0              0             -0.086723817  
       723   0              0              0              0              0             -0.086520607  
       724   0              0              0              0              0             -0.086279239  
       725   0              0              0              0              0             -0.08599447   
       726   0              0              0              0              0             -0.085662278  
       727   0              0              0              0              0             -0.085280014  
       728   0              0              0              0              0             -0.084846482  
       729   0              0              0              0              0             -0.084361959  
       730   0              0              0              0              0             -0.083828142  
       731   0              0              0              0              0             -0.083248052  
       732   0              0              0              0              0             -0.082625886  
       733   0              0              0              0              0             -0.081966838  
       734   0              0              0              0              0             -0.081276912  
       735   0              0              0              0              0             -0.080562717  
       736   0              0              0              0              0             -0.079831276  
       737   0              0              0              0              0             -0.079089841  
       738   0              0              0              0              0             -0.078345732  
       739   0              0              0              0              0             -0.07760618   
       740   0              0              0              0              0             -0.076878207  
       741   0              0              0              0              0             -0.07616851   
       742   0              0              0              0              0             -0.075483365  
       743   0              0              0              0              0             -0.074828551  
       744   0              0              0              0              0             -0.074209278  
       745   0              0              0              0              0             -0.073630133  
       746   0              0              0              0              0             -0.073095041  
       747   0              0              0              0              0             -0.072607226  
       748   0              0              0              0              0             -0.07216919   
       749   0              0              0              0              0             -0.071782699  
       750   0              0              0              0              0             -0.071448783  
       751   0              0              0              0              0             -0.071167735  
       752   0              0              0              0              0             -0.070939135  
       753   0              0              0              0              0             -0.070761875  
       754   0              0              0              0              0             -0.070634201  
       755   0              0              0              0              0             -0.070553767  
       756   0              0              0              0              0             -0.070517702  
       757   0              0              0              0              0             -0.070522689  
       758   0              0              0              0              0             -0.070565056  
       759   0              0              0              0              0             -0.070640882  
[...]
      2806   0              0              0              0              0             -0.059171449  
      2807   0              0              0              0              0             -0.058940846  
      2808   0              0              0              0              0             -0.058729563  
      2809   0              0              0              0              0             -0.058531534  
      2810   0              0              0              0              0             -0.05834055   
      2811   0              0              0              0              0             -0.05815039   
      2812   0              0              0              0              0             -0.057954967  
      2813   0              0              0              0              0             -0.057748477  
      2814   0              0              0              0              0             -0.057525551  
      2815   0              0              0              0              0             -0.057281416  
      2816   0              0              0              0              0             -0.057012039  
      2817   0              0              0              0              0             -0.056714271  
      2818   0              0              0              0              0             -0.056385969  
      2819   0              0              0              0              0             -0.056026084  
      2820   0              0              0              0              0             -0.055634715  
      2821   0              0              0              0              0             -0.055213119  
      2822   0              0              0              0              0             -0.054763677  
      2823   0              0              0              0              0             -0.054289814  
      2824   0              0              0              0              0             -0.053795889  
      2825   0              0              0              0              0             -0.053287068  
      2826   0              0              0              0              0             -0.052769201  
      2827   0              0              0              0              0             -0.0522487    
      2828   0              0              0              0              0             -0.051732458  
      2829   0              0              0              0              0             -0.051227761  
      2830   0              0              0              0              0             -0.050742205  
      2831   0              0              0              0              0             -0.050283592  
      2832   0              0              0              0              0             -0.04985984   
      2833   0              0              0              0              0             -0.049478899  
      2834   0              0              0              0              0             -0.049148652  
      2835   0              0              0              0              0             -0.048876819  
      2836   0              0              0              0              0             -0.048670831  
      2837   0              0              0              0              0             -0.048537717  
      2838   0              0              0              0              0             -0.048483997  
      2839   0              0              0              0              0             -0.048515581  
      2840   0              0              0              0              0             -0.048637685  
      2841   0              0              0              0              0             -0.048854747  
      2842   0              0              0              0              0             -0.049170338  
      2843   0              0              0              0              0             -0.049587067  
      2844   0              0              0              0              0             -0.05010651   
      2845   0              0              0              0              0             -0.050729135  
      2846   0              0              0              0              0             -0.051454258  
      2847   0              0              0              0              0             -0.052279961  
      2848   0              0              0              0              0             -0.053203003  
      2849   0              0              0              0              0             -0.054218713  
      2850   0              0              0              0              0             -0.055320937  
      2851   0              0              0              0              0             -0.05650206   
      2852   0              0              0              0              0             -0.057753124  
      2853   0              0              0              0              0             -0.059063994  
      2854   0              0              0              0              0             -0.060423507  
      2855   0              0              0              0              0             -0.061819565  
      2856   0              0              0              0              0             -0.063239275  
      2857   0              0              0              0              0             -0.064669191  
      2858   0              0              0              0              0             -0.066095634  
      2859   0              0              0              0              0             -0.067505055  
      2860   0              0              0              0              0             -0.068884405  
      2861   0              0              0              0              0             -0.070221505  
      2862   0              0              0              0              0             -0.071505369  
      2863   0              0              0              0              0             -0.072726473  
      2864   0              0              0              0              0             -0.073876926  
      2865   0              0              0              0              0             -0.074950557  
      2866   0              0              0              0              0             -0.075942897  
      2867   0              0              0              0              0             -0.07685108   
      2868   0              0              0              0              0             -0.077673679  
      2869   0              0              0              0              0             -0.078410517  
      2870   0              0              0              0              0             -0.079062469  
      2871   0              0              0              0              0             -0.079631303  
      2872   0              0              0              0              0             -0.080119551  
      2873   0              0              0              0              0             -0.080530461  
      2874   0              0              0              0              0             -0.08086798   
      2875   0              0              0              0              0             -0.081136794  
      2876   0              0              0              0              0             -0.081342382  
      2877   0              0              0              0              0             -0.081491079  
      2878   0              0              0              0              0             -0.081590106  
      2879   0              0              0              0              0             -0.081647577  
      2880   0              0              0              0              0             -0.08167245   
      2881   0              0              0              0              0             -0.081674433  
      2882   0              0              0              0              0             -0.081663825  
      2883   0              0              0              0              0             -0.081651321  
      2884   0              0              0              0              0             -0.081647767  
      2885   0              0              0              0              0             -0.0816639    
      2886   0              0              0              0              0             -0.081710087  
      2887   0              0              0              0              0             -0.081796073  
      2888   0              0              0              0              0             -0.081930783  
      2889   0              0              0              0              0             -0.082122168  
      2890   0              0              0              0              0             -0.082377131  
      2891   0              0              0              0              0             -0.082701513  
      2892   0              0              0              0              0             -0.083100159  
      2893   0              0              0              0              0             -0.08357702   
      2894   0              0              0              0              0             -0.08413529   
      2895   0              0              0              0              0             -0.084777527  
      2896   0              0              0              0              0             -0.085505747  
      2897   0              0              0              0              0             -0.086321443  
      2898   0              0              0              0              0             -0.087225524  
      2899   0              0              0              0              0             -0.088218155  
      2900   0              0              0              0              0             -0.089298489  
      2901   0              0              0              0              0             -0.090464304  
      2902   0              0              0              0              0             -0.091711567  
      2903   0              0              0              0              0             -0.093033943  
      2904   0              0              0              0              0             -0.094422305  
      2905   0              0              0              0              0             -0.095864265  
      2906   0              0              0              0              0             -0.097343804  
      2907   0              0              0              0              0             -0.098841035  
      2908   0              0              0              0              0             -0.10033218   
      2909   0              0              0              0              0             -0.10178981   
      2910   0              0              0              0              0             -0.10318338   
      2911   0              0              0              0              0             -0.10448011   
      2912   0              0              0              0              0             -0.10564614   
      2913   0              0              0              0              0             -0.106648     
      2914   0              0              0              0              0             -0.1074542    
      2915   0              0              0              0              0             -0.10803688   
      2916   0              0              0              0              0             -0.10837339   
      2917   0              0              0              0              0             -0.10844763   
      2918   0              0              0              0              0             -0.10825102   
      2919   0              0              0              0              0             -0.10778301   
      2920   0              0              0              0              0             -0.10705115   
      2921   0              0              0              0              0             -0.10607061   
      2922   0              0              0              0              0             -0.10486333   
      2923   0              0              0              0              0             -0.10345678   
      2924   0              0              0              0              0             -0.10188266   
      2925   0              0              0              0              0             -0.10017542   
      2926   0              0              0              0              0             -0.098370955  
      2927   0              0              0              0              0             -0.096505317  
      2928   0              0              0              0              0             -0.09461354   
      2929   0              0              0              0              0             -0.092728631  
      2930   0              0              0              0              0             -0.090880723  
      2931   0              0              0              0              0             -0.089096448  
      2932   0              0              0              0              0             -0.087398524  
      2933   0              0              0              0              0             -0.085805563  
      2934   0              0              0              0              0             -0.084332056  
      2935   0              0              0              0              0             -0.082988473  
      2936   0              0              0              0              0             -0.081781451  
      2937   0              0              0              0              0             -0.080714019  
      2938   0              0              0              0              0             -0.079785792  
      2939   0              0              0              0              0             -0.078992672  
      2940   0              0              0              0              0             -0.078325519  
      2941   0              0              0              0              0             -0.077769193  
      2942   0              0              0              0              0             -0.077304094  
      2943   0              0              0              0              0             -0.076909767  
      2944   0              0              0              0              0             -0.076568385  
      2945   0              0              0              0              0             -0.076266656  
      2946   0              0              0              0              0             -0.075996067  
      2947   0              0              0              0              0             -0.075752101  
      2948   0              0              0              0              0             -0.075533149  
      2949   0              0              0              0              0             -0.075339539  
      2950   0              0              0              0              0             -0.075172865  
      2951   0              0              0              0              0             -0.075035618  
      2952   0              0              0              0              0             -0.07493101   
      2953   0              0              0              0              0             -0.074862899  
      2954   0              0              0              0              0             -0.074835687  
      2955   0              0              0              0              0             -0.074854133  
      2956   0              0              0              0              0             -0.074923024  
      2957   0              0              0              0              0             -0.075046683  
      2958   0              0              0              0              0             -0.075228322  
      2959   0              0              0              0              0             -0.075469271  
      2960   0              0              0              0              0             -0.075768115  
      2961   0              0              0              0              0             -0.076119867  
      2962   0              0              0              0              0             -0.076515309  
      2963   0              0              0              0              0             -0.076940794  
      2964   0              0              0              0              0             -0.077378834  
      2965   0              0              0              0              0             -0.077809894  
      2966   0              0              0              0              0             -0.078215521  
      2967   0              0              0              0              0             -0.078582242  
      2968   0              0              0              0              0             -0.078904328  
      2969   0              0              0              0              0             -0.079182527  
      2970   0              0              0              0              0             -0.079417689  
      2971   0              0              0              0              0             -0.079604113  
      2972   0              0              0              0              0             -0.079729781  
      2973   0              0              0              0              0             -0.079781212  
      2974   0              0              0              0              0             -0.079746198  
      2975   0              0              0              0              0             -0.079614739  
      2976   0              0              0              0              0             -0.07937968   
      2977   0              0              0              0              0             -0.07903721   
      2978   0              0              0              0              0             -0.078587136  
      2979   0              0              0              0              0             -0.078032924  
      2980   0              0              0              0              0             -0.077381504  
      2981   0              0              0              0              0             -0.076642875  
      2982   0              0              0              0              0             -0.075829567  
      2983   0              0              0              0              0             -0.074955998  
      2984   0              0              0              0              0             -0.074037813  
      2985   0              0              0              0              0             -0.073091225  
      2986   0              0              0              0              0             -0.072132413  
      2987   0              0              0              0              0             -0.071177003  
      2988   0              0              0              0              0             -0.070239634  
      2989   0              0              0              0              0             -0.069333624  
      2990   0              0              0              0              0             -0.068470735  
      2991   0              0              0              0              0             -0.067661035  
      2992   0              0              0              0              0             -0.066912836  
      2993   0              0              0              0              0             -0.066232699  
      2994   0              0              0              0              0             -0.065625489  
      2995   0              0              0              0              0             -0.065094461  
      2996   0              0              0              0              0             -0.064641389  
      2997   0              0              0              0              0             -0.064266722  
      2998   0              0              0              0              0             -0.063969765  
      2999   0              0              0              0              0             -0.063748878  
      3000   0              0              0              0              0             -0.063601684  
Loop time of 9.65785 on 1 procs for 3001 steps with 12 atoms

Total wall time: 0:00:09
