LAMMPS (7 Feb 2024 - Development - patch_2Jun2022-7271-g417598498c)
Reading data file ...
  triclinic box = (0 0 0) to (5.1364755 5.1934133 5.2461598) with tilt (0 -0.88344297 0)
  1 by 1 by 1 MPI processor grid
  reading atoms ...
  12 atoms
  read_data CPU = 0.001 seconds
**************** Begin of POD Potentials ****************
species: Hf O 
periodic boundary conditions: 1 1 1
number of enviroment clusters: 1
number of principal compoments: 1
inner cut-off radius: 1
outer cut-off radius: 5.5
bessel polynomial degree: 4
inverse polynomial degree: 8
one-body potential: 1
two-body radial basis functions: 8
three-body radial basis functions: 6
three-body angular degree: 4
four-body radial basis functions: 4
four-body angular degree: 2
five-body radial basis functions: 4
five-body angular degree: 2
six-body radial basis functions: 3
six-body angular degree: 2
seven-body radial basis functions: 0
seven-body angular degree: 0
number of local descriptors per element for one-body potential: 1
number of local descriptors per element for two-body potential: 16
number of local descriptors per element for three-body potential: 90
number of local descriptors per element for four-body potential: 64
number of local descriptors per element for five-body potential: 192
number of local descriptors per element for six-body potential: 198
number of local descriptors per element for seven-body potential: 0
number of local descriptors per element for all potentials: 561
number of global descriptors: 1122
**************** End of POD Potentials ****************

WARNING: No fixes with time integration, atoms won't move (src/verlet.cpp:60)
Generated 0 of 1 mixed pair_coeff terms from geometric mixing rule
Neighbor list info ...
  update: every = 1 steps, delay = 0 steps, check = yes
  max neighbors/atom: 2000, page size: 100000
  master list distance cutoff = 10.5
  ghost atom cutoff = 10.5
  binsize = 5.25, bins = 2 1 1
  2 neighbor lists, perpetual/occasional/extra = 1 1 0
  (1) pair zero, perpetual
      attributes: half, newton on
      pair build: half/bin/atomonly/newton/tri
      stencil: half/bin/3d/tri
      bin: standard
  (2) compute podd/atom, occasional
      attributes: full, newton on
      pair build: full/bin/atomonly
      stencil: full/bin/3d
      bin: standard
Per MPI rank memory allocation (min/avg/max) = 3.666 | 3.666 | 3.666 Mbytes
   Step          Temp          PotEng         KinEng         TotEng         Press       v_exampledd  
         0   0              0              0              0              0             -0.072502342  
         1   0              0              0              0              0             -0.072089036  
         2   0              0              0              0              0             -0.071723109  
         3   0              0              0              0              0             -0.071411251  
         4   0              0              0              0              0             -0.071159232  
         5   0              0              0              0              0             -0.07097191   
         6   0              0              0              0              0             -0.070853271  
         7   0              0              0              0              0             -0.070806465  
         8   0              0              0              0              0             -0.070833867  
         9   0              0              0              0              0             -0.070937139  
        10   0              0              0              0              0             -0.071117299  
        11   0              0              0              0              0             -0.071374799  
        12   0              0              0              0              0             -0.0717096    
        13   0              0              0              0              0             -0.072121252  
        14   0              0              0              0              0             -0.072608966  
        15   0              0              0              0              0             -0.073171674  
        16   0              0              0              0              0             -0.073808089  
        17   0              0              0              0              0             -0.07451673   
        18   0              0              0              0              0             -0.075295943  
        19   0              0              0              0              0             -0.076143884  
        20   0              0              0              0              0             -0.07705849   
        21   0              0              0              0              0             -0.078037408  
        22   0              0              0              0              0             -0.07907791   
        23   0              0              0              0              0             -0.080176777  
        24   0              0              0              0              0             -0.081330164  
        25   0              0              0              0              0             -0.082533453  
        26   0              0              0              0              0             -0.083781093  
        27   0              0              0              0              0             -0.085066454  
        28   0              0              0              0              0             -0.08638168   
        29   0              0              0              0              0             -0.087717586  
        30   0              0              0              0              0             -0.089063573  
        31   0              0              0              0              0             -0.090407609  
        32   0              0              0              0              0             -0.09173626   
        33   0              0              0              0              0             -0.093034808  
        34   0              0              0              0              0             -0.094287447  
        35   0              0              0              0              0             -0.095477589  
        36   0              0              0              0              0             -0.096588263  
        37   0              0              0              0              0             -0.09760262   
        38   0              0              0              0              0             -0.098504521  
        39   0              0              0              0              0             -0.099279178  
        40   0              0              0              0              0             -0.099913828  
        41   0              0              0              0              0             -0.10039837   
        42   0              0              0              0              0             -0.10072594   
        43   0              0              0              0              0             -0.10089336   
        44   0              0              0              0              0             -0.10090142   
        45   0              0              0              0              0             -0.10075495   
        46   0              0              0              0              0             -0.10046272   
        47   0              0              0              0              0             -0.10003716   
        48   0              0              0              0              0             -0.099493763  
        49   0              0              0              0              0             -0.09885056   
        50   0              0              0              0              0             -0.098127334  
        51   0              0              0              0              0             -0.097344889  
        52   0              0              0              0              0             -0.096524304  
        53   0              0              0              0              0             -0.095686267  
        54   0              0              0              0              0             -0.094850485  
        55   0              0              0              0              0             -0.09403522   
        56   0              0              0              0              0             -0.093256945  
        57   0              0              0              0              0             -0.092530119  
        58   0              0              0              0              0             -0.091867071  
        59   0              0              0              0              0             -0.091277985  
        60   0              0              0              0              0             -0.090770955  
        61   0              0              0              0              0             -0.090352109  
        62   0              0              0              0              0             -0.090025766  
        63   0              0              0              0              0             -0.089794629  
        64   0              0              0              0              0             -0.089659991  
        65   0              0              0              0              0             -0.089621946  
        66   0              0              0              0              0             -0.089679601  
        67   0              0              0              0              0             -0.089831276  
        68   0              0              0              0              0             -0.090074695  
        69   0              0              0              0              0             -0.090407153  
        70   0              0              0              0              0             -0.090825678  
        71   0              0              0              0              0             -0.09132716   
        72   0              0              0              0              0             -0.091908465  
        73   0              0              0              0              0             -0.092566526  
        74   0              0              0              0              0             -0.093298417  
        75   0              0              0              0              0             -0.094101397  
        76   0              0              0              0              0             -0.094972942  
        77   0              0              0              0              0             -0.095910752  
        78   0              0              0              0              0             -0.096912741  
        79   0              0              0              0              0             -0.097977012  
        80   0              0              0              0              0             -0.099101815  
        81   0              0              0              0              0             -0.10028549   
        82   0              0              0              0              0             -0.1015264    
        83   0              0              0              0              0             -0.10282288   
        84   0              0              0              0              0             -0.10417311   
        85   0              0              0              0              0             -0.10557507   
        86   0              0              0              0              0             -0.10702645   
        87   0              0              0              0              0             -0.10852451   
        88   0              0              0              0              0             -0.11006605   
        89   0              0              0              0              0             -0.11164724   
        90   0              0              0              0              0             -0.11326357   
        91   0              0              0              0              0             -0.11490969   
        92   0              0              0              0              0             -0.11657932   
        93   0              0              0              0              0             -0.11826511   
        94   0              0              0              0              0             -0.11995859   
        95   0              0              0              0              0             -0.12165007   
        96   0              0              0              0              0             -0.12332863   
        97   0              0              0              0              0             -0.12498222   
        98   0              0              0              0              0             -0.12659758   
        99   0              0              0              0              0             -0.12816026   
       100   0              0              0              0              0             -0.12965465   
       101   0              0              0              0              0             -0.1310642    
       102   0              0              0              0              0             -0.13237179   
       103   0              0              0              0              0             -0.13356026   
       104   0              0              0              0              0             -0.13461309   
       105   0              0              0              0              0             -0.13551517   
       106   0              0              0              0              0             -0.13625349   
       107   0              0              0              0              0             -0.13681786   
       108   0              0              0              0              0             -0.13720147   
       109   0              0              0              0              0             -0.13740127   
       110   0              0              0              0              0             -0.13741824   
       111   0              0              0              0              0             -0.13725733   
       112   0              0              0              0              0             -0.13692733   
       113   0              0              0              0              0             -0.13644049   
       114   0              0              0              0              0             -0.135812     
       115   0              0              0              0              0             -0.13505946   
       116   0              0              0              0              0             -0.13420216   
       117   0              0              0              0              0             -0.13326052   
       118   0              0              0              0              0             -0.13225546   
       119   0              0              0              0              0             -0.1312079    
       120   0              0              0              0              0             -0.13013831   
       121   0              0              0              0              0             -0.12906635   
       122   0              0              0              0              0             -0.1280106    
       123   0              0              0              0              0             -0.12698835   
       124   0              0              0              0              0             -0.12601547   
       125   0              0              0              0              0             -0.12510631   
       126   0              0              0              0              0             -0.12427357   
       127   0              0              0              0              0             -0.12352832   
       128   0              0              0              0              0             -0.12287984   
       129   0              0              0              0              0             -0.12233564   
       130   0              0              0              0              0             -0.1219013    
       131   0              0              0              0              0             -0.12158046   
       132   0              0              0              0              0             -0.12137466   
       133   0              0              0              0              0             -0.12128333   
       134   0              0              0              0              0             -0.1213036    
       135   0              0              0              0              0             -0.12143031   
       136   0              0              0              0              0             -0.1216559    
       137   0              0              0              0              0             -0.12197041   
       138   0              0              0              0              0             -0.12236147   
       139   0              0              0              0              0             -0.12281442   
       140   0              0              0              0              0             -0.12331236   
       141   0              0              0              0              0             -0.12383644   
       142   0              0              0              0              0             -0.12436605   
       143   0              0              0              0              0             -0.12487921   
       144   0              0              0              0              0             -0.12535296   
       145   0              0              0              0              0             -0.12576391   
       146   0              0              0              0              0             -0.12608889   
       147   0              0              0              0              0             -0.12630575   
       148   0              0              0              0              0             -0.12639414   
       149   0              0              0              0              0             -0.12633647   
       150   0              0              0              0              0             -0.12611868   
       151   0              0              0              0              0             -0.12573101   
       152   0              0              0              0              0             -0.1251686    
       153   0              0              0              0              0             -0.12443186   
       154   0              0              0              0              0             -0.12352655   
       155   0              0              0              0              0             -0.12246369   
       156   0              0              0              0              0             -0.12125904   
       157   0              0              0              0              0             -0.11993246   
       158   0              0              0              0              0             -0.11850699   
       159   0              0              0              0              0             -0.11700782   
       160   0              0              0              0              0             -0.11546125   
       161   0              0              0              0              0             -0.11389358   
       162   0              0              0              0              0             -0.11233017   
       163   0              0              0              0              0             -0.11079463   
       164   0              0              0              0              0             -0.10930808   
       165   0              0              0              0              0             -0.10788872   
       166   0              0              0              0              0             -0.10655151   
       167   0              0              0              0              0             -0.10530799   
       168   0              0              0              0              0             -0.10416633   
       169   0              0              0              0              0             -0.1031314    
       170   0              0              0              0              0             -0.10220501   
       171   0              0              0              0              0             -0.1013862    
       172   0              0              0              0              0             -0.10067167   
       173   0              0              0              0              0             -0.10005611   
       174   0              0              0              0              0             -0.09953275   
       175   0              0              0              0              0             -0.099093803  
       176   0              0              0              0              0             -0.098730936  
       177   0              0              0              0              0             -0.09843572   
       178   0              0              0              0              0             -0.098200026  
       179   0              0              0              0              0             -0.098016354  
       180   0              0              0              0              0             -0.0978781    
       181   0              0              0              0              0             -0.097779728  
       182   0              0              0              0              0             -0.097716844  
       183   0              0              0              0              0             -0.097686156  
       184   0              0              0              0              0             -0.097685335  
       185   0              0              0              0              0             -0.097712787  
       186   0              0              0              0              0             -0.097767362  
       187   0              0              0              0              0             -0.097848027  
       188   0              0              0              0              0             -0.097953529  
       189   0              0              0              0              0             -0.09808206   
       190   0              0              0              0              0             -0.098230971  
       191   0              0              0              0              0             -0.098396538  
       192   0              0              0              0              0             -0.098573829  
       193   0              0              0              0              0             -0.098756669  
       194   0              0              0              0              0             -0.09893771   
       195   0              0              0              0              0             -0.099108608  
       196   0              0              0              0              0             -0.099260278  
       197   0              0              0              0              0             -0.099383221  
       198   0              0              0              0              0             -0.099467885  
       199   0              0              0              0              0             -0.099505037  
       200   0              0              0              0              0             -0.099486132  
       201   0              0              0              0              0             -0.099403636  
       202   0              0              0              0              0             -0.0992513    
       203   0              0              0              0              0             -0.099024351  
       204   0              0              0              0              0             -0.098719612  
       205   0              0              0              0              0             -0.098335529  
       206   0              0              0              0              0             -0.097872125  
       207   0              0              0              0              0             -0.097330875  
       208   0              0              0              0              0             -0.096714524  
       209   0              0              0              0              0             -0.096026855  
       210   0              0              0              0              0             -0.095272426  
       211   0              0              0              0              0             -0.094456285  
       212   0              0              0              0              0             -0.09358369   
       213   0              0              0              0              0             -0.092659843  
       214   0              0              0              0              0             -0.091689661  
       215   0              0              0              0              0             -0.090677595  
       216   0              0              0              0              0             -0.089627499  
       217   0              0              0              0              0             -0.088542579  
       218   0              0              0              0              0             -0.087425397  
       219   0              0              0              0              0             -0.086277982  
       220   0              0              0              0              0             -0.085102003  
       221   0              0              0              0              0             -0.083899021  
       222   0              0              0              0              0             -0.082670764  
       223   0              0              0              0              0             -0.081419398  
       224   0              0              0              0              0             -0.080147746  
       225   0              0              0              0              0             -0.078859456  
       226   0              0              0              0              0             -0.077559083  
       227   0              0              0              0              0             -0.076252097  
       228   0              0              0              0              0             -0.074944816  
       229   0              0              0              0              0             -0.073644267  
       230   0              0              0              0              0             -0.072358009  
       231   0              0              0              0              0             -0.071093904  
       232   0              0              0              0              0             -0.069859888  
       233   0              0              0              0              0             -0.06866373   
       234   0              0              0              0              0             -0.067512815  
       235   0              0              0              0              0             -0.066413948  
       236   0              0              0              0              0             -0.065373175  
       237   0              0              0              0              0             -0.064395655  
       238   0              0              0              0              0             -0.063485577  
       239   0              0              0              0              0             -0.062646124  
       240   0              0              0              0              0             -0.061879488  
       241   0              0              0              0              0             -0.06118693   
       242   0              0              0              0              0             -0.060568869  
       243   0              0              0              0              0             -0.060025008  
       244   0              0              0              0              0             -0.059554462  
       245   0              0              0              0              0             -0.059155908  
       246   0              0              0              0              0             -0.058827724  
       247   0              0              0              0              0             -0.058568126  
       248   0              0              0              0              0             -0.058375291  
       249   0              0              0              0              0             -0.058247463  
       250   0              0              0              0              0             -0.058183029  
       251   0              0              0              0              0             -0.058180582  
       252   0              0              0              0              0             -0.05823895   
       253   0              0              0              0              0             -0.05835719   
       254   0              0              0              0              0             -0.058534553  
       255   0              0              0              0              0             -0.058770398  
       256   0              0              0              0              0             -0.059064074  
       257   0              0              0              0              0             -0.059414776  
       258   0              0              0              0              0             -0.059821373  
       259   0              0              0              0              0             -0.060282233  
       260   0              0              0              0              0             -0.060795048  
       261   0              0              0              0              0             -0.061356658  
       262   0              0              0              0              0             -0.0619629    
       263   0              0              0              0              0             -0.062608476  
       264   0              0              0              0              0             -0.063286859  
       265   0              0              0              0              0             -0.063990248  
       266   0              0              0              0              0             -0.064709567  
       267   0              0              0              0              0             -0.065434531  
       268   0              0              0              0              0             -0.066153766  
       269   0              0              0              0              0             -0.066855004  
       270   0              0              0              0              0             -0.067525343  
       271   0              0              0              0              0             -0.068151586  
       272   0              0              0              0              0             -0.06872063   
       273   0              0              0              0              0             -0.069219905  
       274   0              0              0              0              0             -0.069637846  
       275   0              0              0              0              0             -0.069964352  
       276   0              0              0              0              0             -0.070191222  
       277   0              0              0              0              0             -0.070312507  
       278   0              0              0              0              0             -0.070324759  
       279   0              0              0              0              0             -0.070227153  
       280   0              0              0              0              0             -0.070021472  
       281   0              0              0              0              0             -0.069711961  
       282   0              0              0              0              0             -0.069305086  
       283   0              0              0              0              0             -0.068809197  
       284   0              0              0              0              0             -0.068234147  
       285   0              0              0              0              0             -0.067590872  
       286   0              0              0              0              0             -0.066890972  
       287   0              0              0              0              0             -0.06614632   
       288   0              0              0              0              0             -0.065368712  
       289   0              0              0              0              0             -0.064569593  
       290   0              0              0              0              0             -0.063759839  
       291   0              0              0              0              0             -0.062949632  
       292   0              0              0              0              0             -0.062148392  
       293   0              0              0              0              0             -0.061364773  
       294   0              0              0              0              0             -0.060606695  
       295   0              0              0              0              0             -0.059881421  
       296   0              0              0              0              0             -0.059195639  
       297   0              0              0              0              0             -0.058555561  
       298   0              0              0              0              0             -0.057967016  
       299   0              0              0              0              0             -0.057435535  
       300   0              0              0              0              0             -0.056966417  
       301   0              0              0              0              0             -0.05656477   
       302   0              0              0              0              0             -0.056235536  
       303   0              0              0              0              0             -0.055983487  
       304   0              0              0              0              0             -0.055813191  
       305   0              0              0              0              0             -0.05572897   
       306   0              0              0              0              0             -0.055734833  
       307   0              0              0              0              0             -0.055834397  
       308   0              0              0              0              0             -0.056030802  
       309   0              0              0              0              0             -0.056326623  
       310   0              0              0              0              0             -0.056723772  
       311   0              0              0              0              0             -0.057223407  
       312   0              0              0              0              0             -0.057825832  
       313   0              0              0              0              0             -0.058530405  
       314   0              0              0              0              0             -0.059335448  
       315   0              0              0              0              0             -0.060238171  
       316   0              0              0              0              0             -0.061234611  
       317   0              0              0              0              0             -0.062319584  
       318   0              0              0              0              0             -0.063486673  
       319   0              0              0              0              0             -0.064728221  
       320   0              0              0              0              0             -0.066035358  
       321   0              0              0              0              0             -0.067398027  
       322   0              0              0              0              0             -0.06880506   
       323   0              0              0              0              0             -0.070244297  
       324   0              0              0              0              0             -0.071702781  
       325   0              0              0              0              0             -0.073167034  
       326   0              0              0              0              0             -0.074623388  
       327   0              0              0              0              0             -0.076058376  
       328   0              0              0              0              0             -0.077459133  
       329   0              0              0              0              0             -0.078813811  
       330   0              0              0              0              0             -0.08011197   
       331   0              0              0              0              0             -0.081344921  
       332   0              0              0              0              0             -0.082506003  
       333   0              0              0              0              0             -0.08359077   
       334   0              0              0              0              0             -0.08459708   
       335   0              0              0              0              0             -0.085525076  
       336   0              0              0              0              0             -0.086377065  
       337   0              0              0              0              0             -0.087157315  
       338   0              0              0              0              0             -0.087871765  
       339   0              0              0              0              0             -0.088527688  
       340   0              0              0              0              0             -0.089133315  
       341   0              0              0              0              0             -0.089697456  
       342   0              0              0              0              0             -0.090229122  
       343   0              0              0              0              0             -0.09073719   
       344   0              0              0              0              0             -0.091230104  
       345   0              0              0              0              0             -0.091715637  
       346   0              0              0              0              0             -0.092200715  
       347   0              0              0              0              0             -0.092691298  
       348   0              0              0              0              0             -0.093192328  
       349   0              0              0              0              0             -0.093707726  
       350   0              0              0              0              0             -0.094240434  
       351   0              0              0              0              0             -0.094792494  
       352   0              0              0              0              0             -0.095365144  
       353   0              0              0              0              0             -0.09595893   
       354   0              0              0              0              0             -0.096573806  
       355   0              0              0              0              0             -0.097209231  
       356   0              0              0              0              0             -0.097864232  
       357   0              0              0              0              0             -0.098537441  
       358   0              0              0              0              0             -0.099227095  
       359   0              0              0              0              0             -0.099930987  
       360   0              0              0              0              0             -0.1006464    
       361   0              0              0              0              0             -0.10136999   
       362   0              0              0              0              0             -0.10209772   
       363   0              0              0              0              0             -0.10282475   
       364   0              0              0              0              0             -0.10354538   
       365   0              0              0              0              0             -0.10425299   
       366   0              0              0              0              0             -0.10494012   
       367   0              0              0              0              0             -0.10559845   
       368   0              0              0              0              0             -0.10621903   
       369   0              0              0              0              0             -0.10679246   
       370   0              0              0              0              0             -0.10730914   
       371   0              0              0              0              0             -0.10775963   
       372   0              0              0              0              0             -0.10813496   
       373   0              0              0              0              0             -0.10842705   
       374   0              0              0              0              0             -0.10862904   
       375   0              0              0              0              0             -0.10873566   
       376   0              0              0              0              0             -0.10874349   
       377   0              0              0              0              0             -0.10865117   
       378   0              0              0              0              0             -0.10845954   
       379   0              0              0              0              0             -0.10817167   
       380   0              0              0              0              0             -0.10779283   
       381   0              0              0              0              0             -0.10733032   
       382   0              0              0              0              0             -0.10679332   
       383   0              0              0              0              0             -0.10619259   
       384   0              0              0              0              0             -0.10554015   
       385   0              0              0              0              0             -0.10484898   
       386   0              0              0              0              0             -0.10413258   
       387   0              0              0              0              0             -0.10340463   
       388   0              0              0              0              0             -0.10267862   
       389   0              0              0              0              0             -0.10196744   
       390   0              0              0              0              0             -0.10128306   
       391   0              0              0              0              0             -0.10063623   
       392   0              0              0              0              0             -0.10003623   
       393   0              0              0              0              0             -0.099490614  
       394   0              0              0              0              0             -0.099005151  
       395   0              0              0              0              0             -0.098583699  
       396   0              0              0              0              0             -0.09822822   
       397   0              0              0              0              0             -0.097938839  
       398   0              0              0              0              0             -0.097713962  
       399   0              0              0              0              0             -0.097550429  
       400   0              0              0              0              0             -0.097443704  
       401   0              0              0              0              0             -0.09738808   
       402   0              0              0              0              0             -0.097376881  
       403   0              0              0              0              0             -0.09740266   
       404   0              0              0              0              0             -0.097457394  
       405   0              0              0              0              0             -0.097532675  
       406   0              0              0              0              0             -0.097619898  
       407   0              0              0              0              0             -0.097710447  
       408   0              0              0              0              0             -0.097795867  
       409   0              0              0              0              0             -0.097868018  
       410   0              0              0              0              0             -0.097919226  
       411   0              0              0              0              0             -0.097942411  
       412   0              0              0              0              0             -0.097931198  
       413   0              0              0              0              0             -0.09788003   
       414   0              0              0              0              0             -0.097784256  
       415   0              0              0              0              0             -0.097640213  
       416   0              0              0              0              0             -0.097445296  
       417   0              0              0              0              0             -0.097198005  
       418   0              0              0              0              0             -0.096897964  
       419   0              0              0              0              0             -0.096545924  
       420   0              0              0              0              0             -0.096143717  
       421   0              0              0              0              0             -0.095694193  
       422   0              0              0              0              0             -0.095201114  
       423   0              0              0              0              0             -0.09466903   
       424   0              0              0              0              0             -0.094103118  
       425   0              0              0              0              0             -0.093509018  
       426   0              0              0              0              0             -0.092892644  
       427   0              0              0              0              0             -0.092259998  
       428   0              0              0              0              0             -0.091616972  
       429   0              0              0              0              0             -0.090969161  
       430   0              0              0              0              0             -0.090321684  
       431   0              0              0              0              0             -0.089679027  
       432   0              0              0              0              0             -0.089044911  
       433   0              0              0              0              0             -0.088422195  
       434   0              0              0              0              0             -0.087812803  
       435   0              0              0              0              0             -0.087217673  
       436   0              0              0              0              0             -0.08663672   
       437   0              0              0              0              0             -0.086068832  
       438   0              0              0              0              0             -0.085511885  
       439   0              0              0              0              0             -0.08496281   
       440   0              0              0              0              0             -0.084417681  
       441   0              0              0              0              0             -0.083871856  
       442   0              0              0              0              0             -0.083320147  
       443   0              0              0              0              0             -0.082757033  
       444   0              0              0              0              0             -0.082176899  
       445   0              0              0              0              0             -0.081574292  
       446   0              0              0              0              0             -0.080944196  
       447   0              0              0              0              0             -0.080282284  
       448   0              0              0              0              0             -0.079585167  
       449   0              0              0              0              0             -0.07885059   
       450   0              0              0              0              0             -0.07807759   
       451   0              0              0              0              0             -0.077266585  
       452   0              0              0              0              0             -0.076419405  
       453   0              0              0              0              0             -0.075539255  
       454   0              0              0              0              0             -0.074630605  
       455   0              0              0              0              0             -0.073699036  
       456   0              0              0              0              0             -0.072751033  
       457   0              0              0              0              0             -0.071793759  
       458   0              0              0              0              0             -0.07083481   
       459   0              0              0              0              0             -0.069881974  
       460   0              0              0              0              0             -0.068943005  
       461   0              0              0              0              0             -0.068025422  
       462   0              0              0              0              0             -0.067136343  
       463   0              0              0              0              0             -0.066282347  
       464   0              0              0              0              0             -0.065469383  
       465   0              0              0              0              0             -0.064702695  
       466   0              0              0              0              0             -0.063986794  
       467   0              0              0              0              0             -0.063325445  
       468   0              0              0              0              0             -0.06272168   
       469   0              0              0              0              0             -0.062177839  
       470   0              0              0              0              0             -0.061695616  
       471   0              0              0              0              0             -0.061276134  
       472   0              0              0              0              0             -0.060920015  
       473   0              0              0              0              0             -0.060627466  
       474   0              0              0              0              0             -0.060398366  
       475   0              0              0              0              0             -0.060232344  
       476   0              0              0              0              0             -0.060128845  
       477   0              0              0              0              0             -0.060087185  
       478   0              0              0              0              0             -0.060106574  
       479   0              0              0              0              0             -0.060186131  
       480   0              0              0              0              0             -0.060324867  
       481   0              0              0              0              0             -0.060521664  
       482   0              0              0              0              0             -0.060775221  
       483   0              0              0              0              0             -0.061083998  
       484   0              0              0              0              0             -0.061446139  
       485   0              0              0              0              0             -0.061859385  
       486   0              0              0              0              0             -0.062320977  
       487   0              0              0              0              0             -0.062827562  
       488   0              0              0              0              0             -0.063375096  
       489   0              0              0              0              0             -0.06395876   
       490   0              0              0              0              0             -0.064572897  
       491   0              0              0              0              0             -0.065210972  
       492   0              0              0              0              0             -0.065865574  
       493   0              0              0              0              0             -0.066528449  
       494   0              0              0              0              0             -0.067190583  
       495   0              0              0              0              0             -0.067842329  
       496   0              0              0              0              0             -0.068473586  
       497   0              0              0              0              0             -0.069074019  
       498   0              0              0              0              0             -0.069633324  
       499   0              0              0              0              0             -0.070141517  
       500   0              0              0              0              0             -0.070589248  
       501   0              0              0              0              0             -0.070968097  
       502   0              0              0              0              0             -0.07127086   
       503   0              0              0              0              0             -0.071491786  
       504   0              0              0              0              0             -0.071626769  
       505   0              0              0              0              0             -0.071673469  
       506   0              0              0              0              0             -0.071631372  
       507   0              0              0              0              0             -0.071501769  
       508   0              0              0              0              0             -0.071287666  
       509   0              0              0              0              0             -0.070993635  
       510   0              0              0              0              0             -0.070625618  
       511   0              0              0              0              0             -0.0701907    
       512   0              0              0              0              0             -0.069696874  
       513   0              0              0              0              0             -0.069152802  
       514   0              0              0              0              0             -0.068567594  
       515   0              0              0              0              0             -0.067950618  
       516   0              0              0              0              0             -0.067311335  
       517   0              0              0              0              0             -0.066659177  
       518   0              0              0              0              0             -0.066003457  
       519   0              0              0              0              0             -0.065353309  
       520   0              0              0              0              0             -0.064717654  
       521   0              0              0              0              0             -0.064105187  
       522   0              0              0              0              0             -0.063524372  
       523   0              0              0              0              0             -0.062983431  
       524   0              0              0              0              0             -0.062490345  
       525   0              0              0              0              0             -0.062052835  
       526   0              0              0              0              0             -0.061678339  
       527   0              0              0              0              0             -0.061373978  
       528   0              0              0              0              0             -0.061146507  
       529   0              0              0              0              0             -0.061002261  
       530   0              0              0              0              0             -0.06094708   
       531   0              0              0              0              0             -0.060986233  
       532   0              0              0              0              0             -0.06112433   
       533   0              0              0              0              0             -0.061365236  
       534   0              0              0              0              0             -0.061711978  
       535   0              0              0              0              0             -0.062166658  
       536   0              0              0              0              0             -0.062730375  
       537   0              0              0              0              0             -0.063403141  
       538   0              0              0              0              0             -0.064183824  
       539   0              0              0              0              0             -0.065070084  
       540   0              0              0              0              0             -0.066058338  
       541   0              0              0              0              0             -0.067143728  
       542   0              0              0              0              0             -0.068320106  
       543   0              0              0              0              0             -0.069580041  
       544   0              0              0              0              0             -0.070914851  
       545   0              0              0              0              0             -0.072314656  
       546   0              0              0              0              0             -0.073768466  
       547   0              0              0              0              0             -0.075264292  
       548   0              0              0              0              0             -0.076789284  
       549   0              0              0              0              0             -0.078329899  
       550   0              0              0              0              0             -0.079872097  
       551   0              0              0              0              0             -0.081401552  
       552   0              0              0              0              0             -0.082903867  
       553   0              0              0              0              0             -0.084364805  
       554   0              0              0              0              0             -0.085770504  
       555   0              0              0              0              0             -0.087107681  
       556   0              0              0              0              0             -0.088363817  
       557   0              0              0              0              0             -0.089527324  
       558   0              0              0              0              0             -0.0905877    
       559   0              0              0              0              0             -0.091535676  
       560   0              0              0              0              0             -0.092363381  
       561   0              0              0              0              0             -0.093064506  
       562   0              0              0              0              0             -0.093634479  
       563   0              0              0              0              0             -0.094070626  
       564   0              0              0              0              0             -0.0943723    
       565   0              0              0              0              0             -0.094540982  
       566   0              0              0              0              0             -0.094580323  
       567   0              0              0              0              0             -0.094496138  
       568   0              0              0              0              0             -0.09429634   
       569   0              0              0              0              0             -0.093990805  
       570   0              0              0              0              0             -0.093591168  
       571   0              0              0              0              0             -0.093110567  
       572   0              0              0              0              0             -0.092563321  
       573   0              0              0              0              0             -0.09196458   
       574   0              0              0              0              0             -0.09132993   
       575   0              0              0              0              0             -0.090674976  
       576   0              0              0              0              0             -0.090014934  
       577   0              0              0              0              0             -0.08936424   
       578   0              0              0              0              0             -0.088736215  
       579   0              0              0              0              0             -0.088142795  
       580   0              0              0              0              0             -0.087594339  
       581   0              0              0              0              0             -0.087099511  
       582   0              0              0              0              0             -0.086665253  
       583   0              0              0              0              0             -0.086296816  
       584   0              0              0              0              0             -0.085997875  
       585   0              0              0              0              0             -0.085770694  
       586   0              0              0              0              0             -0.085616346  
       587   0              0              0              0              0             -0.085534969  
       588   0              0              0              0              0             -0.085526048  
       589   0              0              0              0              0             -0.085588708  
       590   0              0              0              0              0             -0.085721989  
       591   0              0              0              0              0             -0.085925087  
       592   0              0              0              0              0             -0.086197545  
       593   0              0              0              0              0             -0.086539362  
       594   0              0              0              0              0             -0.086951032  
       595   0              0              0              0              0             -0.087433481  
       596   0              0              0              0              0             -0.087987927  
       597   0              0              0              0              0             -0.088615636  
       598   0              0              0              0              0             -0.089317584  
       599   0              0              0              0              0             -0.090094025  
       600   0              0              0              0              0             -0.090944035  
       601   0              0              0              0              0             -0.091865068  
       602   0              0              0              0              0             -0.092852573  
       603   0              0              0              0              0             -0.093899667  
       604   0              0              0              0              0             -0.094996905  
       605   0              0              0              0              0             -0.096132195  
       606   0              0              0              0              0             -0.097290888  
       607   0              0              0              0              0             -0.098456073  
       608   0              0              0              0              0             -0.099609071  
       609   0              0              0              0              0             -0.10073011   
       610   0              0              0              0              0             -0.10179914   
       611   0              0              0              0              0             -0.10279672   
       612   0              0              0              0              0             -0.10370493   
       613   0              0              0              0              0             -0.10450821   
       614   0              0              0              0              0             -0.10519407   
       615   0              0              0              0              0             -0.10575359   
       616   0              0              0              0              0             -0.10618175   
       617   0              0              0              0              0             -0.10647745   
       618   0              0              0              0              0             -0.10664343   
       619   0              0              0              0              0             -0.10668588   
       620   0              0              0              0              0             -0.10661402   
       621   0              0              0              0              0             -0.10643952   
       622   0              0              0              0              0             -0.10617592   
       623   0              0              0              0              0             -0.10583802   
       624   0              0              0              0              0             -0.10544133   
       625   0              0              0              0              0             -0.10500149   
       626   0              0              0              0              0             -0.10453384   
       627   0              0              0              0              0             -0.10405297   
       628   0              0              0              0              0             -0.10357244   
       629   0              0              0              0              0             -0.10310444   
       630   0              0              0              0              0             -0.10265965   
       631   0              0              0              0              0             -0.10224708   
       632   0              0              0              0              0             -0.10187405   
       633   0              0              0              0              0             -0.1015462    
       634   0              0              0              0              0             -0.10126754   
       635   0              0              0              0              0             -0.10104063   
       636   0              0              0              0              0             -0.10086674   
       637   0              0              0              0              0             -0.10074608   
       638   0              0              0              0              0             -0.10067802   
       639   0              0              0              0              0             -0.10066139   
       640   0              0              0              0              0             -0.10069467   
       641   0              0              0              0              0             -0.10077626   
       642   0              0              0              0              0             -0.10090463   
       643   0              0              0              0              0             -0.10107854   
       644   0              0              0              0              0             -0.1012971    
       645   0              0              0              0              0             -0.10155987   
       646   0              0              0              0              0             -0.10186689   
       647   0              0              0              0              0             -0.10221872   
       648   0              0              0              0              0             -0.10261633   
       649   0              0              0              0              0             -0.10306113   
       650   0              0              0              0              0             -0.10355483   
       651   0              0              0              0              0             -0.10409938   
       652   0              0              0              0              0             -0.10469684   
       653   0              0              0              0              0             -0.10534928   
       654   0              0              0              0              0             -0.10605867   
       655   0              0              0              0              0             -0.10682677   
       656   0              0              0              0              0             -0.10765503   
       657   0              0              0              0              0             -0.10854452   
       658   0              0              0              0              0             -0.10949589   
       659   0              0              0              0              0             -0.11050925   
       660   0              0              0              0              0             -0.11158413   
       661   0              0              0              0              0             -0.11271943   
       662   0              0              0              0              0             -0.11391328   
       663   0              0              0              0              0             -0.11516291   
       664   0              0              0              0              0             -0.11646453   
       665   0              0              0              0              0             -0.11781311   
       666   0              0              0              0              0             -0.11920213   
       667   0              0              0              0              0             -0.12062331   
       668   0              0              0              0              0             -0.12206635   
       669   0              0              0              0              0             -0.12351863   
       670   0              0              0              0              0             -0.12496502   
       671   0              0              0              0              0             -0.12638775   
       672   0              0              0              0              0             -0.12776645   
       673   0              0              0              0              0             -0.12907837   
       674   0              0              0              0              0             -0.13029885   
       675   0              0              0              0              0             -0.13140199   
       676   0              0              0              0              0             -0.13236161   
       677   0              0              0              0              0             -0.13315235   
       678   0              0              0              0              0             -0.13375085   
       679   0              0              0              0              0             -0.13413696   
       680   0              0              0              0              0             -0.13429487   
       681   0              0              0              0              0             -0.13421394   
       682   0              0              0              0              0             -0.13388931   
       683   0              0              0              0              0             -0.13332207   
       684   0              0              0              0              0             -0.13251912   
       685   0              0              0              0              0             -0.13149264   
       686   0              0              0              0              0             -0.13025928   
       687   0              0              0              0              0             -0.12883918   
       688   0              0              0              0              0             -0.12725488   
       689   0              0              0              0              0             -0.12553022   
       690   0              0              0              0              0             -0.12368938   
       691   0              0              0              0              0             -0.12175595   
       692   0              0              0              0              0             -0.11975232   
       693   0              0              0              0              0             -0.11769916   
       694   0              0              0              0              0             -0.1156151    
       695   0              0              0              0              0             -0.11351659   
       696   0              0              0              0              0             -0.11141785   
       697   0              0              0              0              0             -0.109331     
       698   0              0              0              0              0             -0.10726611   
       699   0              0              0              0              0             -0.10523137   
       700   0              0              0              0              0             -0.10323327   
       701   0              0              0              0              0             -0.10127676   
       702   0              0              0              0              0             -0.099365368  
       703   0              0              0              0              0             -0.097501432  
       704   0              0              0              0              0             -0.095686164  
       705   0              0              0              0              0             -0.09391979   
       706   0              0              0              0              0             -0.092201659  
       707   0              0              0              0              0             -0.090530381  
       708   0              0              0              0              0             -0.088903944  
       709   0              0              0              0              0             -0.087319827  
       710   0              0              0              0              0             -0.085775118  
       711   0              0              0              0              0             -0.084266663  
       712   0              0              0              0              0             -0.082791297  
       713   0              0              0              0              0             -0.081346107  
       714   0              0              0              0              0             -0.079928701  
       715   0              0              0              0              0             -0.078537415  
       716   0              0              0              0              0             -0.07717144   
       717   0              0              0              0              0             -0.07583091   
       718   0              0              0              0              0             -0.074516936  
       719   0              0              0              0              0             -0.073231603  
       720   0              0              0              0              0             -0.07197793   
       721   0              0              0              0              0             -0.070759793  
       722   0              0              0              0              0             -0.069581808  
       723   0              0              0              0              0             -0.068449176  
       724   0              0              0              0              0             -0.067367506  
       725   0              0              0              0              0             -0.066342608  
       726   0              0              0              0              0             -0.065380274  
       727   0              0              0              0              0             -0.064486063  
       728   0              0              0              0              0             -0.063665115  
       729   0              0              0              0              0             -0.062922003  
       730   0              0              0              0              0             -0.062260636  
       731   0              0              0              0              0             -0.0616842    
       732   0              0              0              0              0             -0.061195132  
       733   0              0              0              0              0             -0.060795123  
       734   0              0              0              0              0             -0.060485143  
       735   0              0              0              0              0             -0.060265495  
       736   0              0              0              0              0             -0.060135878  
       737   0              0              0              0              0             -0.060095482  
       738   0              0              0              0              0             -0.060143072  
       739   0              0              0              0              0             -0.060277075  
       740   0              0              0              0              0             -0.060495658  
       741   0              0              0              0              0             -0.060796781  
       742   0              0              0              0              0             -0.061178239  
       743   0              0              0              0              0             -0.061637679  
       744   0              0              0              0              0             -0.062172608  
       745   0              0              0              0              0             -0.06278037   
       746   0              0              0              0              0             -0.063458113  
       747   0              0              0              0              0             -0.064202732  
       748   0              0              0              0              0             -0.065010805  
       749   0              0              0              0              0             -0.065878527  
       750   0              0              0              0              0             -0.066801654  
       751   0              0              0              0              0             -0.067775462  
       752   0              0              0              0              0             -0.068794716  
       753   0              0              0              0              0             -0.069853663  
       754   0              0              0              0              0             -0.070946047  
       755   0              0              0              0              0             -0.072065155  
       756   0              0              0              0              0             -0.07320389   
       757   0              0              0              0              0             -0.074354864  
       758   0              0              0              0              0             -0.075510515  
       759   0              0              0              0              0             -0.076663245  
[...]
      2806   0              0              0              0              0             -0.080011107  
      2807   0              0              0              0              0             -0.081213068  
      2808   0              0              0              0              0             -0.082327542  
      2809   0              0              0              0              0             -0.083327648  
      2810   0              0              0              0              0             -0.084188246  
      2811   0              0              0              0              0             -0.084887042  
      2812   0              0              0              0              0             -0.085405663  
      2813   0              0              0              0              0             -0.08573059   
      2814   0              0              0              0              0             -0.085853865  
      2815   0              0              0              0              0             -0.085773507  
      2816   0              0              0              0              0             -0.085493588  
      2817   0              0              0              0              0             -0.085023972  
      2818   0              0              0              0              0             -0.084379728  
      2819   0              0              0              0              0             -0.0835803    
      2820   0              0              0              0              0             -0.082648484  
      2821   0              0              0              0              0             -0.081609323  
      2822   0              0              0              0              0             -0.080489     
      2823   0              0              0              0              0             -0.079313799  
      2824   0              0              0              0              0             -0.0781092    
      2825   0              0              0              0              0             -0.076899143  
      2826   0              0              0              0              0             -0.075705485  
      2827   0              0              0              0              0             -0.074547637  
      2828   0              0              0              0              0             -0.073442389  
      2829   0              0              0              0              0             -0.072403869  
      2830   0              0              0              0              0             -0.07144363   
      2831   0              0              0              0              0             -0.070570804  
      2832   0              0              0              0              0             -0.069792329  
      2833   0              0              0              0              0             -0.069113215  
      2834   0              0              0              0              0             -0.068536836  
      2835   0              0              0              0              0             -0.068065221  
      2836   0              0              0              0              0             -0.067699346  
      2837   0              0              0              0              0             -0.067439394  
      2838   0              0              0              0              0             -0.067284987  
      2839   0              0              0              0              0             -0.067235381  
      2840   0              0              0              0              0             -0.06728962   
      2841   0              0              0              0              0             -0.06744666   
      2842   0              0              0              0              0             -0.067705449  
      2843   0              0              0              0              0             -0.068064982  
      2844   0              0              0              0              0             -0.068524309  
      2845   0              0              0              0              0             -0.069082507  
      2846   0              0              0              0              0             -0.069738619  
      2847   0              0              0              0              0             -0.070491562  
      2848   0              0              0              0              0             -0.071340014  
      2849   0              0              0              0              0             -0.07228229   
      2850   0              0              0              0              0             -0.07331622   
      2851   0              0              0              0              0             -0.074439045  
      2852   0              0              0              0              0             -0.075647348  
      2853   0              0              0              0              0             -0.076937017  
      2854   0              0              0              0              0             -0.078303248  
      2855   0              0              0              0              0             -0.079740573  
      2856   0              0              0              0              0             -0.081242908  
      2857   0              0              0              0              0             -0.082803626  
      2858   0              0              0              0              0             -0.084415634  
      2859   0              0              0              0              0             -0.086071454  
      2860   0              0              0              0              0             -0.087763305  
      2861   0              0              0              0              0             -0.089483186  
      2862   0              0              0              0              0             -0.091222938  
      2863   0              0              0              0              0             -0.092974284  
      2864   0              0              0              0              0             -0.094728824  
      2865   0              0              0              0              0             -0.096477994  
      2866   0              0              0              0              0             -0.098212969  
      2867   0              0              0              0              0             -0.099924534  
      2868   0              0              0              0              0             -0.10160291   
      2869   0              0              0              0              0             -0.10323757   
      2870   0              0              0              0              0             -0.10481699   
      2871   0              0              0              0              0             -0.10632851   
      2872   0              0              0              0              0             -0.10775807   
      2873   0              0              0              0              0             -0.1090902    
      2874   0              0              0              0              0             -0.11030799   
      2875   0              0              0              0              0             -0.11139333   
      2876   0              0              0              0              0             -0.11232717   
      2877   0              0              0              0              0             -0.11309012   
      2878   0              0              0              0              0             -0.11366314   
      2879   0              0              0              0              0             -0.11402833   
      2880   0              0              0              0              0             -0.11416993   
      2881   0              0              0              0              0             -0.11407527   
      2882   0              0              0              0              0             -0.11373575   
      2883   0              0              0              0              0             -0.11314763   
      2884   0              0              0              0              0             -0.11231266   
      2885   0              0              0              0              0             -0.1112384    
      2886   0              0              0              0              0             -0.10993828   
      2887   0              0              0              0              0             -0.10843129   
      2888   0              0              0              0              0             -0.10674136   
      2889   0              0              0              0              0             -0.10489653   
      2890   0              0              0              0              0             -0.10292793   
      2891   0              0              0              0              0             -0.10086856   
      2892   0              0              0              0              0             -0.098752012  
      2893   0              0              0              0              0             -0.096611211  
      2894   0              0              0              0              0             -0.094477318  
      2895   0              0              0              0              0             -0.092378786  
      2896   0              0              0              0              0             -0.090340644  
      2897   0              0              0              0              0             -0.088384002  
      2898   0              0              0              0              0             -0.086525767  
      2899   0              0              0              0              0             -0.08477855   
      2900   0              0              0              0              0             -0.083150765  
      2901   0              0              0              0              0             -0.081646853  
      2902   0              0              0              0              0             -0.080267641  
      2903   0              0              0              0              0             -0.079010765  
      2904   0              0              0              0              0             -0.077871164  
      2905   0              0              0              0              0             -0.07684158   
      2906   0              0              0              0              0             -0.075913073  
      2907   0              0              0              0              0             -0.075075508  
      2908   0              0              0              0              0             -0.074318016  
      2909   0              0              0              0              0             -0.073629397  
      2910   0              0              0              0              0             -0.072998485  
      2911   0              0              0              0              0             -0.072414446  
      2912   0              0              0              0              0             -0.071867028  
      2913   0              0              0              0              0             -0.071346755  
      2914   0              0              0              0              0             -0.070845084  
      2915   0              0              0              0              0             -0.070354501  
      2916   0              0              0              0              0             -0.069868592  
      2917   0              0              0              0              0             -0.06938206   
      2918   0              0              0              0              0             -0.068890717  
      2919   0              0              0              0              0             -0.068391433  
      2920   0              0              0              0              0             -0.067882065  
      2921   0              0              0              0              0             -0.067361361  
      2922   0              0              0              0              0             -0.066828859  
      2923   0              0              0              0              0             -0.066284786  
      2924   0              0              0              0              0             -0.065729955  
      2925   0              0              0              0              0             -0.06516567   
      2926   0              0              0              0              0             -0.06459363   
      2927   0              0              0              0              0             -0.064015841  
      2928   0              0              0              0              0             -0.063434525  
      2929   0              0              0              0              0             -0.062852039  
      2930   0              0              0              0              0             -0.062270804  
      2931   0              0              0              0              0             -0.061693237  
      2932   0              0              0              0              0             -0.061121686  
      2933   0              0              0              0              0             -0.06055834   
      2934   0              0              0              0              0             -0.06000514   
      2935   0              0              0              0              0             -0.059463724  
      2936   0              0              0              0              0             -0.058935444  
      2937   0              0              0              0              0             -0.058421451  
      2938   0              0              0              0              0             -0.057922822  
      2939   0              0              0              0              0             -0.057440688  
      2940   0              0              0              0              0             -0.056976323  
      2941   0              0              0              0              0             -0.056531201  
      2942   0              0              0              0              0             -0.056106993  
      2943   0              0              0              0              0             -0.055705534  
      2944   0              0              0              0              0             -0.055328758  
      2945   0              0              0              0              0             -0.054978625  
      2946   0              0              0              0              0             -0.054657035  
      2947   0              0              0              0              0             -0.054365752  
      2948   0              0              0              0              0             -0.054106335  
      2949   0              0              0              0              0             -0.053880075  
      2950   0              0              0              0              0             -0.053687962  
      2951   0              0              0              0              0             -0.053530652  
      2952   0              0              0              0              0             -0.053408467  
      2953   0              0              0              0              0             -0.053321402  
      2954   0              0              0              0              0             -0.053269152  
      2955   0              0              0              0              0             -0.053251156  
      2956   0              0              0              0              0             -0.053266641  
      2957   0              0              0              0              0             -0.053314677  
      2958   0              0              0              0              0             -0.053394226  
      2959   0              0              0              0              0             -0.053504183  
      2960   0              0              0              0              0             -0.053643395  
      2961   0              0              0              0              0             -0.053810665  
      2962   0              0              0              0              0             -0.054004733  
      2963   0              0              0              0              0             -0.054224232  
      2964   0              0              0              0              0             -0.054467647  
      2965   0              0              0              0              0             -0.054733265  
      2966   0              0              0              0              0             -0.055019169  
      2967   0              0              0              0              0             -0.055323266  
      2968   0              0              0              0              0             -0.055643391  
      2969   0              0              0              0              0             -0.055977474  
      2970   0              0              0              0              0             -0.056323742  
      2971   0              0              0              0              0             -0.056680895  
      2972   0              0              0              0              0             -0.057048137  
      2973   0              0              0              0              0             -0.057424962  
      2974   0              0              0              0              0             -0.057810626  
      2975   0              0              0              0              0             -0.058203417  
      2976   0              0              0              0              0             -0.058600001  
      2977   0              0              0              0              0             -0.058995171  
      2978   0              0              0              0              0             -0.059382142  
      2979   0              0              0              0              0             -0.059753142  
      2980   0              0              0              0              0             -0.06009998   
      2981   0              0              0              0              0             -0.060414461  
      2982   0              0              0              0              0             -0.060688728  
      2983   0              0              0              0              0             -0.060915595  
      2984   0              0              0              0              0             -0.061088852  
      2985   0              0              0              0              0             -0.061203546  
      2986   0              0              0              0              0             -0.061256199  
      2987   0              0              0              0              0             -0.061244971  
      2988   0              0              0              0              0             -0.061169717  
      2989   0              0              0              0              0             -0.061031972  
      2990   0              0              0              0              0             -0.060834836  
      2991   0              0              0              0              0             -0.060582804  
      2992   0              0              0              0              0             -0.06028154   
      2993   0              0              0              0              0             -0.059937637  
      2994   0              0              0              0              0             -0.059558374  
      2995   0              0              0              0              0             -0.059151499  
      2996   0              0              0              0              0             -0.058725046  
      2997   0              0              0              0              0             -0.058287194  
      2998   0              0              0              0              0             -0.05784617   
      2999   0              0              0              0              0             -0.057410178  
      3000   0              0              0              0              0             -0.056987353  
Loop time of 9.72933 on 1 procs for 3001 steps with 12 atoms

Total wall time: 0:00:09
