LAMMPS (7 Feb 2024 - Development - patch_2Jun2022-7271-g417598498c)
Reading data file ...
  triclinic box = (0 0 0) to (5.1364755 5.1934133 5.2461598) with tilt (0 -0.88344297 0)
  1 by 1 by 1 MPI processor grid
  reading atoms ...
  12 atoms
  read_data CPU = 0.001 seconds
**************** Begin of POD Potentials ****************
species: Hf O 
periodic boundary conditions: 1 1 1
number of enviroment clusters: 1
number of principal compoments: 1
inner cut-off radius: 1
outer cut-off radius: 5.5
bessel polynomial degree: 4
inverse polynomial degree: 8
one-body potential: 1
two-body radial basis functions: 8
three-body radial basis functions: 6
three-body angular degree: 4
four-body radial basis functions: 4
four-body angular degree: 2
five-body radial basis functions: 4
five-body angular degree: 2
six-body radial basis functions: 3
six-body angular degree: 2
seven-body radial basis functions: 0
seven-body angular degree: 0
number of local descriptors per element for one-body potential: 1
number of local descriptors per element for two-body potential: 16
number of local descriptors per element for three-body potential: 90
number of local descriptors per element for four-body potential: 64
number of local descriptors per element for five-body potential: 192
number of local descriptors per element for six-body potential: 198
number of local descriptors per element for seven-body potential: 0
number of local descriptors per element for all potentials: 561
number of global descriptors: 1122
**************** End of POD Potentials ****************

WARNING: No fixes with time integration, atoms won't move (src/verlet.cpp:60)
Generated 0 of 1 mixed pair_coeff terms from geometric mixing rule
Neighbor list info ...
  update: every = 1 steps, delay = 0 steps, check = yes
  max neighbors/atom: 2000, page size: 100000
  master list distance cutoff = 10.5
  ghost atom cutoff = 10.5
  binsize = 5.25, bins = 2 1 1
  2 neighbor lists, perpetual/occasional/extra = 1 1 0
  (1) pair zero, perpetual
      attributes: half, newton on
      pair build: half/bin/atomonly/newton/tri
      stencil: half/bin/3d/tri
      bin: standard
  (2) compute podd/atom, occasional
      attributes: full, newton on
      pair build: full/bin/atomonly
      stencil: full/bin/3d
      bin: standard
Per MPI rank memory allocation (min/avg/max) = 3.666 | 3.666 | 3.666 Mbytes
   Step          Temp          PotEng         KinEng         TotEng         Press       v_exampledd  
         0   0              0              0              0              0             -0.072502342  
         1   0              0              0              0              0             -0.07195518   
         2   0              0              0              0              0             -0.071455739  
         3   0              0              0              0              0             -0.071008699  
         4   0              0              0              0              0             -0.070617667  
         5   0              0              0              0              0             -0.070285229  
         6   0              0              0              0              0             -0.07001303   
         7   0              0              0              0              0             -0.069801868  
         8   0              0              0              0              0             -0.0696518    
         9   0              0              0              0              0             -0.069562249  
        10   0              0              0              0              0             -0.069532113  
        11   0              0              0              0              0             -0.06955986   
        12   0              0              0              0              0             -0.069643611  
        13   0              0              0              0              0             -0.069781204  
        14   0              0              0              0              0             -0.069970237  
        15   0              0              0              0              0             -0.070208085  
        16   0              0              0              0              0             -0.070491893  
        17   0              0              0              0              0             -0.070818544  
        18   0              0              0              0              0             -0.071184599  
        19   0              0              0              0              0             -0.071586223  
        20   0              0              0              0              0             -0.07201909   
        21   0              0              0              0              0             -0.07247829   
        22   0              0              0              0              0             -0.072958225  
        23   0              0              0              0              0             -0.073452535  
        24   0              0              0              0              0             -0.073954037  
        25   0              0              0              0              0             -0.07445471   
        26   0              0              0              0              0             -0.074945723  
        27   0              0              0              0              0             -0.075417525  
        28   0              0              0              0              0             -0.07586      
        29   0              0              0              0              0             -0.076262683  
        30   0              0              0              0              0             -0.07661504   
        31   0              0              0              0              0             -0.076906799  
        32   0              0              0              0              0             -0.077128319  
        33   0              0              0              0              0             -0.077270966  
        34   0              0              0              0              0             -0.07732749   
        35   0              0              0              0              0             -0.07729236   
        36   0              0              0              0              0             -0.077162045  
        37   0              0              0              0              0             -0.076935213  
        38   0              0              0              0              0             -0.07661284   
        39   0              0              0              0              0             -0.07619822   
        40   0              0              0              0              0             -0.075696873  
        41   0              0              0              0              0             -0.07511636   
        42   0              0              0              0              0             -0.074466022  
        43   0              0              0              0              0             -0.073756665  
        44   0              0              0              0              0             -0.073000194  
        45   0              0              0              0              0             -0.072209247  
        46   0              0              0              0              0             -0.071396825  
        47   0              0              0              0              0             -0.070575948  
        48   0              0              0              0              0             -0.069759351  
        49   0              0              0              0              0             -0.068959228  
        50   0              0              0              0              0             -0.068187023  
        51   0              0              0              0              0             -0.067453287  
        52   0              0              0              0              0             -0.066767576  
        53   0              0              0              0              0             -0.066138405  
        54   0              0              0              0              0             -0.065573236  
        55   0              0              0              0              0             -0.06507851   
        56   0              0              0              0              0             -0.064659687  
        57   0              0              0              0              0             -0.064321316  
        58   0              0              0              0              0             -0.064067107  
        59   0              0              0              0              0             -0.063900002  
        60   0              0              0              0              0             -0.063822243  
        61   0              0              0              0              0             -0.063835434  
        62   0              0              0              0              0             -0.063940595  
        63   0              0              0              0              0             -0.064138203  
        64   0              0              0              0              0             -0.064428224  
        65   0              0              0              0              0             -0.064810151  
        66   0              0              0              0              0             -0.065283026  
        67   0              0              0              0              0             -0.065845474  
        68   0              0              0              0              0             -0.066495742  
        69   0              0              0              0              0             -0.067231743  
        70   0              0              0              0              0             -0.068051116  
        71   0              0              0              0              0             -0.068951296  
        72   0              0              0              0              0             -0.069929598  
        73   0              0              0              0              0             -0.070983305  
        74   0              0              0              0              0             -0.072109764  
        75   0              0              0              0              0             -0.073306467  
        76   0              0              0              0              0             -0.074571119  
        77   0              0              0              0              0             -0.075901682  
        78   0              0              0              0              0             -0.077296379  
        79   0              0              0              0              0             -0.078753656  
        80   0              0              0              0              0             -0.080272098  
        81   0              0              0              0              0             -0.081850292  
        82   0              0              0              0              0             -0.083486639  
        83   0              0              0              0              0             -0.085179119  
        84   0              0              0              0              0             -0.086925021  
        85   0              0              0              0              0             -0.088720648  
        86   0              0              0              0              0             -0.090561017  
        87   0              0              0              0              0             -0.092439568  
        88   0              0              0              0              0             -0.094347912  
        89   0              0              0              0              0             -0.096275652  
        90   0              0              0              0              0             -0.098210292  
        91   0              0              0              0              0             -0.10013727   
        92   0              0              0              0              0             -0.10204013   
        93   0              0              0              0              0             -0.10390084   
        94   0              0              0              0              0             -0.10570028   
        95   0              0              0              0              0             -0.10741886   
        96   0              0              0              0              0             -0.1090372    
        97   0              0              0              0              0             -0.1105369    
        98   0              0              0              0              0             -0.11190133   
        99   0              0              0              0              0             -0.1131163    
       100   0              0              0              0              0             -0.11417068   
       101   0              0              0              0              0             -0.11505675   
       102   0              0              0              0              0             -0.11577047   
       103   0              0              0              0              0             -0.1163115    
       104   0              0              0              0              0             -0.11668304   
       105   0              0              0              0              0             -0.11689152   
       106   0              0              0              0              0             -0.1169462    
       107   0              0              0              0              0             -0.11685868   
       108   0              0              0              0              0             -0.11664244   
       109   0              0              0              0              0             -0.11631233   
       110   0              0              0              0              0             -0.11588415   
       111   0              0              0              0              0             -0.11537416   
       112   0              0              0              0              0             -0.11479881   
       113   0              0              0              0              0             -0.1141743    
       114   0              0              0              0              0             -0.11351626   
       115   0              0              0              0              0             -0.11283948   
       116   0              0              0              0              0             -0.11215755   
       117   0              0              0              0              0             -0.1114826    
       118   0              0              0              0              0             -0.11082506   
       119   0              0              0              0              0             -0.11019342   
       120   0              0              0              0              0             -0.10959406   
       121   0              0              0              0              0             -0.1090312    
       122   0              0              0              0              0             -0.10850682   
       123   0              0              0              0              0             -0.10802078   
       124   0              0              0              0              0             -0.10757098   
       125   0              0              0              0              0             -0.10715365   
       126   0              0              0              0              0             -0.10676381   
       127   0              0              0              0              0             -0.10639575   
       128   0              0              0              0              0             -0.10604364   
       129   0              0              0              0              0             -0.10570217   
       130   0              0              0              0              0             -0.10536709   
       131   0              0              0              0              0             -0.10503578   
       132   0              0              0              0              0             -0.10470754   
       133   0              0              0              0              0             -0.10438384   
       134   0              0              0              0              0             -0.10406829   
       135   0              0              0              0              0             -0.10376637   
       136   0              0              0              0              0             -0.10348514   
       137   0              0              0              0              0             -0.1032326    
       138   0              0              0              0              0             -0.10301712   
       139   0              0              0              0              0             -0.10284678   
       140   0              0              0              0              0             -0.10272864   
       141   0              0              0              0              0             -0.1026682    
       142   0              0              0              0              0             -0.10266884   
       143   0              0              0              0              0             -0.10273139   
       144   0              0              0              0              0             -0.10285388   
       145   0              0              0              0              0             -0.10303141   
       146   0              0              0              0              0             -0.10325614   
       147   0              0              0              0              0             -0.10351755   
       148   0              0              0              0              0             -0.1038027    
       149   0              0              0              0              0             -0.10409677   
       150   0              0              0              0              0             -0.10438352   
       151   0              0              0              0              0             -0.10464596   
       152   0              0              0              0              0             -0.10486699   
       153   0              0              0              0              0             -0.10503005   
       154   0              0              0              0              0             -0.10511972   
       155   0              0              0              0              0             -0.10512231   
       156   0              0              0              0              0             -0.10502633   
       157   0              0              0              0              0             -0.10482277   
       158   0              0              0              0              0             -0.1045054    
       159   0              0              0              0              0             -0.10407086   
       160   0              0              0              0              0             -0.10351861   
       161   0              0              0              0              0             -0.10285088   
       162   0              0              0              0              0             -0.10207247   
       163   0              0              0              0              0             -0.10119052   
       164   0              0              0              0              0             -0.10021414   
       165   0              0              0              0              0             -0.099154179  
       166   0              0              0              0              0             -0.098022738  
       167   0              0              0              0              0             -0.096832849  
       168   0              0              0              0              0             -0.095598048  
       169   0              0              0              0              0             -0.094331987  
       170   0              0              0              0              0             -0.093048076  
       171   0              0              0              0              0             -0.091759157  
       172   0              0              0              0              0             -0.090477243  
       173   0              0              0              0              0             -0.089213314  
       174   0              0              0              0              0             -0.087977191  
       175   0              0              0              0              0             -0.086777474  
       176   0              0              0              0              0             -0.085621552  
       177   0              0              0              0              0             -0.084515662  
       178   0              0              0              0              0             -0.083465009  
       179   0              0              0              0              0             -0.082473909  
       180   0              0              0              0              0             -0.081545951  
       181   0              0              0              0              0             -0.080684134  
       182   0              0              0              0              0             -0.079891003  
       183   0              0              0              0              0             -0.079168762  
       184   0              0              0              0              0             -0.078519381  
       185   0              0              0              0              0             -0.077944685  
       186   0              0              0              0              0             -0.077446435  
       187   0              0              0              0              0             -0.077026395  
       188   0              0              0              0              0             -0.076686389  
       189   0              0              0              0              0             -0.076428338  
       190   0              0              0              0              0             -0.076254282  
       191   0              0              0              0              0             -0.076166387  
       192   0              0              0              0              0             -0.076166932  
       193   0              0              0              0              0             -0.076258287  
       194   0              0              0              0              0             -0.076442876  
       195   0              0              0              0              0             -0.076723138  
       196   0              0              0              0              0             -0.077101474  
       197   0              0              0              0              0             -0.077580179  
       198   0              0              0              0              0             -0.078161376  
       199   0              0              0              0              0             -0.078846919  
       200   0              0              0              0              0             -0.079638295  
       201   0              0              0              0              0             -0.080536491  
       202   0              0              0              0              0             -0.081541849  
       203   0              0              0              0              0             -0.08265387   
       204   0              0              0              0              0             -0.083871     
       205   0              0              0              0              0             -0.085190376  
       206   0              0              0              0              0             -0.086607544  
       207   0              0              0              0              0             -0.088116169  
       208   0              0              0              0              0             -0.089707733  
       209   0              0              0              0              0             -0.091371242  
       210   0              0              0              0              0             -0.093092969  
       211   0              0              0              0              0             -0.09485625   
       212   0              0              0              0              0             -0.096641365  
       213   0              0              0              0              0             -0.098425544  
       214   0              0              0              0              0             -0.10018313   
       215   0              0              0              0              0             -0.10188591   
       216   0              0              0              0              0             -0.10350369   
       217   0              0              0              0              0             -0.10500509   
       218   0              0              0              0              0             -0.10635848   
       219   0              0              0              0              0             -0.10753322   
       220   0              0              0              0              0             -0.10850091   
       221   0              0              0              0              0             -0.10923676   
       222   0              0              0              0              0             -0.10972083   
       223   0              0              0              0              0             -0.10993915   
       224   0              0              0              0              0             -0.10988454   
       225   0              0              0              0              0             -0.10955703   
       226   0              0              0              0              0             -0.10896391   
       227   0              0              0              0              0             -0.10811932   
       228   0              0              0              0              0             -0.10704353   
       229   0              0              0              0              0             -0.10576181   
       230   0              0              0              0              0             -0.10430315   
       231   0              0              0              0              0             -0.10269895   
       232   0              0              0              0              0             -0.10098161   
       233   0              0              0              0              0             -0.099183376  
       234   0              0              0              0              0             -0.097335244  
       235   0              0              0              0              0             -0.095466198  
       236   0              0              0              0              0             -0.093602621  
       237   0              0              0              0              0             -0.09176796   
       238   0              0              0              0              0             -0.089982593  
       239   0              0              0              0              0             -0.088263858  
       240   0              0              0              0              0             -0.086626203  
       241   0              0              0              0              0             -0.085081406  
       242   0              0              0              0              0             -0.083638842  
       243   0              0              0              0              0             -0.08230577   
       244   0              0              0              0              0             -0.081087615  
       245   0              0              0              0              0             -0.079988246  
       246   0              0              0              0              0             -0.079010229  
       247   0              0              0              0              0             -0.078155058  
       248   0              0              0              0              0             -0.07742335   
       249   0              0              0              0              0             -0.076815001  
       250   0              0              0              0              0             -0.076329307  
       251   0              0              0              0              0             -0.075965037  
       252   0              0              0              0              0             -0.075720476  
       253   0              0              0              0              0             -0.075593418  
       254   0              0              0              0              0             -0.075581132  
       255   0              0              0              0              0             -0.075680297  
       256   0              0              0              0              0             -0.075886916  
       257   0              0              0              0              0             -0.07619622   
       258   0              0              0              0              0             -0.076602575  
       259   0              0              0              0              0             -0.07709939   
       260   0              0              0              0              0             -0.077679053  
       261   0              0              0              0              0             -0.078332876  
       262   0              0              0              0              0             -0.079051077  
       263   0              0              0              0              0             -0.079822776  
       264   0              0              0              0              0             -0.080636031  
       265   0              0              0              0              0             -0.081477887  
       266   0              0              0              0              0             -0.082334463  
       267   0              0              0              0              0             -0.083191068  
       268   0              0              0              0              0             -0.084032352  
       269   0              0              0              0              0             -0.084842493  
       270   0              0              0              0              0             -0.08560544   
       271   0              0              0              0              0             -0.086305191  
       272   0              0              0              0              0             -0.086926128  
       273   0              0              0              0              0             -0.087453394  
       274   0              0              0              0              0             -0.087873304  
       275   0              0              0              0              0             -0.088173766  
       276   0              0              0              0              0             -0.088344701  
       277   0              0              0              0              0             -0.088378409  
       278   0              0              0              0              0             -0.088269882  
       279   0              0              0              0              0             -0.088017005  
       280   0              0              0              0              0             -0.087620663  
       281   0              0              0              0              0             -0.087084709  
       282   0              0              0              0              0             -0.086415828  
       283   0              0              0              0              0             -0.085623285  
       284   0              0              0              0              0             -0.084718583  
       285   0              0              0              0              0             -0.083715054  
       286   0              0              0              0              0             -0.082627409  
       287   0              0              0              0              0             -0.081471267  
       288   0              0              0              0              0             -0.080262701  
       289   0              0              0              0              0             -0.079017825  
       290   0              0              0              0              0             -0.077752441  
       291   0              0              0              0              0             -0.076481762  
       292   0              0              0              0              0             -0.075220209  
       293   0              0              0              0              0             -0.073981279  
       294   0              0              0              0              0             -0.072777461  
       295   0              0              0              0              0             -0.071620188  
       296   0              0              0              0              0             -0.070519818  
       297   0              0              0              0              0             -0.069485613  
       298   0              0              0              0              0             -0.068525729  
       299   0              0              0              0              0             -0.067647201  
       300   0              0              0              0              0             -0.066855918  
       301   0              0              0              0              0             -0.066156609  
       302   0              0              0              0              0             -0.065552825  
       303   0              0              0              0              0             -0.065046928  
       304   0              0              0              0              0             -0.064640092  
       305   0              0              0              0              0             -0.064332302  
       306   0              0              0              0              0             -0.06412237   
       307   0              0              0              0              0             -0.06400796   
       308   0              0              0              0              0             -0.063985621  
       309   0              0              0              0              0             -0.064050834  
       310   0              0              0              0              0             -0.064198067  
       311   0              0              0              0              0             -0.064420848  
       312   0              0              0              0              0             -0.064711842  
       313   0              0              0              0              0             -0.065062948  
       314   0              0              0              0              0             -0.065465407  
       315   0              0              0              0              0             -0.065909918  
       316   0              0              0              0              0             -0.066386779  
       317   0              0              0              0              0             -0.066886026  
       318   0              0              0              0              0             -0.067397592  
       319   0              0              0              0              0             -0.067911463  
       320   0              0              0              0              0             -0.068417845  
       321   0              0              0              0              0             -0.068907324  
       322   0              0              0              0              0             -0.069371024  
       323   0              0              0              0              0             -0.06980075   
       324   0              0              0              0              0             -0.070189114  
       325   0              0              0              0              0             -0.070529639  
       326   0              0              0              0              0             -0.070816836  
       327   0              0              0              0              0             -0.071046258  
       328   0              0              0              0              0             -0.071214526  
       329   0              0              0              0              0             -0.071319323  
       330   0              0              0              0              0             -0.071359377  
       331   0              0              0              0              0             -0.071334418  
       332   0              0              0              0              0             -0.071245123  
       333   0              0              0              0              0             -0.071093054  
       334   0              0              0              0              0             -0.070880585  
       335   0              0              0              0              0             -0.070610819  
       336   0              0              0              0              0             -0.070287511  
       337   0              0              0              0              0             -0.069914964  
       338   0              0              0              0              0             -0.069497943  
       339   0              0              0              0              0             -0.069041559  
       340   0              0              0              0              0             -0.068551167  
       341   0              0              0              0              0             -0.068032244  
       342   0              0              0              0              0             -0.06749028   
       343   0              0              0              0              0             -0.066930669  
       344   0              0              0              0              0             -0.06635861   
       345   0              0              0              0              0             -0.065779032  
       346   0              0              0              0              0             -0.065196539  
       347   0              0              0              0              0             -0.064615388  
       348   0              0              0              0              0             -0.064039486  
       349   0              0              0              0              0             -0.06347243   
       350   0              0              0              0              0             -0.062917554  
       351   0              0              0              0              0             -0.062378005  
       352   0              0              0              0              0             -0.061856818  
       353   0              0              0              0              0             -0.061356992  
       354   0              0              0              0              0             -0.060881554  
       355   0              0              0              0              0             -0.060433607  
       356   0              0              0              0              0             -0.060016356  
       357   0              0              0              0              0             -0.05963311   
       358   0              0              0              0              0             -0.059287264  
       359   0              0              0              0              0             -0.05898226   
       360   0              0              0              0              0             -0.058721528  
       361   0              0              0              0              0             -0.058508423  
       362   0              0              0              0              0             -0.058346145  
       363   0              0              0              0              0             -0.058237663  
       364   0              0              0              0              0             -0.058185641  
       365   0              0              0              0              0             -0.058192364  
       366   0              0              0              0              0             -0.058259682  
       367   0              0              0              0              0             -0.058388946  
       368   0              0              0              0              0             -0.058580962  
       369   0              0              0              0              0             -0.058835934  
       370   0              0              0              0              0             -0.059153422  
       371   0              0              0              0              0             -0.059532319  
       372   0              0              0              0              0             -0.05997088   
       373   0              0              0              0              0             -0.060466803  
       374   0              0              0              0              0             -0.061017354  
       375   0              0              0              0              0             -0.061619508  
       376   0              0              0              0              0             -0.062270089  
       377   0              0              0              0              0             -0.062965877  
       378   0              0              0              0              0             -0.063703689  
       379   0              0              0              0              0             -0.064480419  
       380   0              0              0              0              0             -0.065293058  
       381   0              0              0              0              0             -0.066138699  
       382   0              0              0              0              0             -0.067014526  
       383   0              0              0              0              0             -0.067917806  
       384   0              0              0              0              0             -0.06884588   
       385   0              0              0              0              0             -0.06979615   
       386   0              0              0              0              0             -0.070766076  
       387   0              0              0              0              0             -0.071753185  
       388   0              0              0              0              0             -0.072755081  
       389   0              0              0              0              0             -0.073769473  
       390   0              0              0              0              0             -0.074794203  
       391   0              0              0              0              0             -0.075827283  
       392   0              0              0              0              0             -0.076866923  
       393   0              0              0              0              0             -0.077911528  
       394   0              0              0              0              0             -0.078959662  
       395   0              0              0              0              0             -0.080009959  
       396   0              0              0              0              0             -0.081060967  
       397   0              0              0              0              0             -0.082110955  
       398   0              0              0              0              0             -0.083157695  
       399   0              0              0              0              0             -0.084198291  
       400   0              0              0              0              0             -0.085229075  
       401   0              0              0              0              0             -0.0862456    
       402   0              0              0              0              0             -0.087242681  
       403   0              0              0              0              0             -0.088214461  
       404   0              0              0              0              0             -0.089154488  
       405   0              0              0              0              0             -0.090055804  
       406   0              0              0              0              0             -0.090911078  
       407   0              0              0              0              0             -0.09171277   
       408   0              0              0              0              0             -0.092453335  
       409   0              0              0              0              0             -0.093125453  
       410   0              0              0              0              0             -0.093722275  
       411   0              0              0              0              0             -0.094237671  
       412   0              0              0              0              0             -0.094666475  
       413   0              0              0              0              0             -0.095004696  
       414   0              0              0              0              0             -0.095249707  
       415   0              0              0              0              0             -0.095400383  
       416   0              0              0              0              0             -0.095457189  
       417   0              0              0              0              0             -0.095422206  
       418   0              0              0              0              0             -0.09529911   
       419   0              0              0              0              0             -0.09509308   
       420   0              0              0              0              0             -0.094810669  
       421   0              0              0              0              0             -0.094459617  
       422   0              0              0              0              0             -0.094048636  
       423   0              0              0              0              0             -0.093587156  
       424   0              0              0              0              0             -0.093085069  
       425   0              0              0              0              0             -0.092552446  
       426   0              0              0              0              0             -0.091999268  
       427   0              0              0              0              0             -0.091435163  
       428   0              0              0              0              0             -0.090869166  
       429   0              0              0              0              0             -0.090309509  
       430   0              0              0              0              0             -0.089763449  
       431   0              0              0              0              0             -0.08923713   
       432   0              0              0              0              0             -0.088735489  
       433   0              0              0              0              0             -0.08826221   
       434   0              0              0              0              0             -0.087819711  
       435   0              0              0              0              0             -0.087409179  
       436   0              0              0              0              0             -0.087030636  
       437   0              0              0              0              0             -0.086683044  
       438   0              0              0              0              0             -0.086364441  
       439   0              0              0              0              0             -0.086072102  
       440   0              0              0              0              0             -0.08580272   
       441   0              0              0              0              0             -0.085552608  
       442   0              0              0              0              0             -0.085317897  
       443   0              0              0              0              0             -0.08509474   
       444   0              0              0              0              0             -0.084879487  
       445   0              0              0              0              0             -0.084668841  
       446   0              0              0              0              0             -0.084459956  
       447   0              0              0              0              0             -0.084250505  
       448   0              0              0              0              0             -0.08403869   
       449   0              0              0              0              0             -0.083823253  
       450   0              0              0              0              0             -0.083603486  
       451   0              0              0              0              0             -0.083379268  
       452   0              0              0              0              0             -0.083151081  
       453   0              0              0              0              0             -0.082920031  
       454   0              0              0              0              0             -0.082687832  
       455   0              0              0              0              0             -0.082456768  
       456   0              0              0              0              0             -0.082229623  
       457   0              0              0              0              0             -0.08200959   
       458   0              0              0              0              0             -0.08180017   
       459   0              0              0              0              0             -0.081605068  
       460   0              0              0              0              0             -0.081428086  
       461   0              0              0              0              0             -0.08127303   
       462   0              0              0              0              0             -0.081143626  
       463   0              0              0              0              0             -0.081043449  
       464   0              0              0              0              0             -0.080975861  
       465   0              0              0              0              0             -0.080943966  
       466   0              0              0              0              0             -0.080950555  
       467   0              0              0              0              0             -0.080998077  
       468   0              0              0              0              0             -0.081088606  
       469   0              0              0              0              0             -0.081223834  
       470   0              0              0              0              0             -0.08140507   
       471   0              0              0              0              0             -0.081633265  
       472   0              0              0              0              0             -0.081909052  
       473   0              0              0              0              0             -0.082232786  
       474   0              0              0              0              0             -0.082604607  
       475   0              0              0              0              0             -0.083024499  
       476   0              0              0              0              0             -0.083492371  
       477   0              0              0              0              0             -0.08400813   
       478   0              0              0              0              0             -0.084571775  
       479   0              0              0              0              0             -0.085183473  
       480   0              0              0              0              0             -0.085843644  
       481   0              0              0              0              0             -0.086553021  
       482   0              0              0              0              0             -0.087312713  
       483   0              0              0              0              0             -0.088124234  
       484   0              0              0              0              0             -0.08898952   
       485   0              0              0              0              0             -0.08991091   
       486   0              0              0              0              0             -0.090891112  
       487   0              0              0              0              0             -0.091933124  
       488   0              0              0              0              0             -0.093040145  
       489   0              0              0              0              0             -0.094215436  
       490   0              0              0              0              0             -0.095462167  
       491   0              0              0              0              0             -0.096783223  
       492   0              0              0              0              0             -0.098180984  
       493   0              0              0              0              0             -0.099657076  
       494   0              0              0              0              0             -0.1012121    
       495   0              0              0              0              0             -0.10284537   
       496   0              0              0              0              0             -0.10455459   
       497   0              0              0              0              0             -0.10633562   
       498   0              0              0              0              0             -0.1081822    
       499   0              0              0              0              0             -0.11008577   
       500   0              0              0              0              0             -0.1120353    
       501   0              0              0              0              0             -0.11401724   
       502   0              0              0              0              0             -0.11601556   
       503   0              0              0              0              0             -0.1180119    
       504   0              0              0              0              0             -0.11998589   
       505   0              0              0              0              0             -0.12191553   
       506   0              0              0              0              0             -0.12377786   
       507   0              0              0              0              0             -0.12554952   
       508   0              0              0              0              0             -0.12720763   
       509   0              0              0              0              0             -0.12873051   
       510   0              0              0              0              0             -0.13009844   
       511   0              0              0              0              0             -0.13129437   
       512   0              0              0              0              0             -0.13230446   
       513   0              0              0              0              0             -0.13311845   
       514   0              0              0              0              0             -0.13372986   
       515   0              0              0              0              0             -0.13413608   
       516   0              0              0              0              0             -0.13433816   
       517   0              0              0              0              0             -0.13434058   
       518   0              0              0              0              0             -0.1341509    
       519   0              0              0              0              0             -0.13377926   
       520   0              0              0              0              0             -0.13323794   
       521   0              0              0              0              0             -0.13254082   
       522   0              0              0              0              0             -0.13170298   
       523   0              0              0              0              0             -0.13074023   
       524   0              0              0              0              0             -0.12966884   
       525   0              0              0              0              0             -0.12850522   
       526   0              0              0              0              0             -0.12726572   
       527   0              0              0              0              0             -0.12596646   
       528   0              0              0              0              0             -0.12462326   
       529   0              0              0              0              0             -0.12325153   
       530   0              0              0              0              0             -0.12186625   
       531   0              0              0              0              0             -0.12048197   
       532   0              0              0              0              0             -0.11911275   
       533   0              0              0              0              0             -0.11777221   
       534   0              0              0              0              0             -0.11647346   
       535   0              0              0              0              0             -0.1152291    
       536   0              0              0              0              0             -0.11405115   
       537   0              0              0              0              0             -0.11295104   
       538   0              0              0              0              0             -0.11193946   
       539   0              0              0              0              0             -0.1110263    
       540   0              0              0              0              0             -0.1102205    
       541   0              0              0              0              0             -0.10952992   
       542   0              0              0              0              0             -0.10896118   
       543   0              0              0              0              0             -0.10851948   
       544   0              0              0              0              0             -0.10820843   
       545   0              0              0              0              0             -0.10802987   
       546   0              0              0              0              0             -0.10798375   
       547   0              0              0              0              0             -0.10806797   
       548   0              0              0              0              0             -0.10827829   
       549   0              0              0              0              0             -0.10860834   
       550   0              0              0              0              0             -0.10904957   
       551   0              0              0              0              0             -0.1095914    
       552   0              0              0              0              0             -0.11022134   
       553   0              0              0              0              0             -0.11092526   
       554   0              0              0              0              0             -0.11168759   
       555   0              0              0              0              0             -0.11249165   
       556   0              0              0              0              0             -0.11332001   
       557   0              0              0              0              0             -0.11415476   
       558   0              0              0              0              0             -0.11497792   
       559   0              0              0              0              0             -0.11577173   
       560   0              0              0              0              0             -0.11651892   
       561   0              0              0              0              0             -0.11720297   
       562   0              0              0              0              0             -0.11780828   
       563   0              0              0              0              0             -0.11832043   
       564   0              0              0              0              0             -0.11872635   
       565   0              0              0              0              0             -0.11901463   
       566   0              0              0              0              0             -0.11917583   
       567   0              0              0              0              0             -0.11920276   
       568   0              0              0              0              0             -0.1190908    
       569   0              0              0              0              0             -0.1188381    
       570   0              0              0              0              0             -0.11844569   
       571   0              0              0              0              0             -0.11791738   
       572   0              0              0              0              0             -0.11725953   
       573   0              0              0              0              0             -0.11648068   
       574   0              0              0              0              0             -0.11559096   
       575   0              0              0              0              0             -0.11460159   
       576   0              0              0              0              0             -0.11352424   
       577   0              0              0              0              0             -0.11237056   
       578   0              0              0              0              0             -0.11115178   
       579   0              0              0              0              0             -0.10987847   
       580   0              0              0              0              0             -0.10856036   
       581   0              0              0              0              0             -0.10720638   
       582   0              0              0              0              0             -0.10582474   
       583   0              0              0              0              0             -0.10442305   
       584   0              0              0              0              0             -0.10300853   
       585   0              0              0              0              0             -0.10158815   
       586   0              0              0              0              0             -0.10016878   
       587   0              0              0              0              0             -0.098757288  
       588   0              0              0              0              0             -0.097360621  
       589   0              0              0              0              0             -0.095985772  
       590   0              0              0              0              0             -0.094639768  
       591   0              0              0              0              0             -0.093329613  
       592   0              0              0              0              0             -0.09206222   
       593   0              0              0              0              0             -0.09084433   
       594   0              0              0              0              0             -0.089682424  
       595   0              0              0              0              0             -0.088582619  
       596   0              0              0              0              0             -0.087550558  
       597   0              0              0              0              0             -0.08659129   
       598   0              0              0              0              0             -0.085709152  
       599   0              0              0              0              0             -0.084907663  
       600   0              0              0              0              0             -0.084189436  
       601   0              0              0              0              0             -0.08355613   
       602   0              0              0              0              0             -0.083008434  
       603   0              0              0              0              0             -0.082546108  
       604   0              0              0              0              0             -0.082168059  
       605   0              0              0              0              0             -0.081872474  
       606   0              0              0              0              0             -0.081656972  
       607   0              0              0              0              0             -0.081518794  
       608   0              0              0              0              0             -0.081454988  
       609   0              0              0              0              0             -0.0814626    
       610   0              0              0              0              0             -0.08153885   
       611   0              0              0              0              0             -0.081681271  
       612   0              0              0              0              0             -0.081887817  
       613   0              0              0              0              0             -0.082156923  
       614   0              0              0              0              0             -0.08248751   
       615   0              0              0              0              0             -0.082878946  
       616   0              0              0              0              0             -0.083330955  
       617   0              0              0              0              0             -0.083843482  
       618   0              0              0              0              0             -0.08441654   
       619   0              0              0              0              0             -0.085050022  
       620   0              0              0              0              0             -0.085743511  
       621   0              0              0              0              0             -0.086496096  
       622   0              0              0              0              0             -0.087306197  
       623   0              0              0              0              0             -0.088171411  
       624   0              0              0              0              0             -0.089088398  
       625   0              0              0              0              0             -0.090052798  
       626   0              0              0              0              0             -0.091059197  
       627   0              0              0              0              0             -0.092101136  
       628   0              0              0              0              0             -0.093171175  
       629   0              0              0              0              0             -0.09426099   
       630   0              0              0              0              0             -0.095361527  
       631   0              0              0              0              0             -0.096463186  
       632   0              0              0              0              0             -0.09755604   
       633   0              0              0              0              0             -0.098630071  
       634   0              0              0              0              0             -0.099675428  
       635   0              0              0              0              0             -0.10068267   
       636   0              0              0              0              0             -0.101643     
       637   0              0              0              0              0             -0.10254849   
       638   0              0              0              0              0             -0.10339221   
       639   0              0              0              0              0             -0.10416842   
       640   0              0              0              0              0             -0.10487259   
       641   0              0              0              0              0             -0.1055015    
       642   0              0              0              0              0             -0.10605321   
       643   0              0              0              0              0             -0.10652704   
       644   0              0              0              0              0             -0.10692349   
       645   0              0              0              0              0             -0.10724412   
       646   0              0              0              0              0             -0.10749146   
       647   0              0              0              0              0             -0.10766879   
       648   0              0              0              0              0             -0.10778006   
       649   0              0              0              0              0             -0.10782964   
       650   0              0              0              0              0             -0.10782221   
       651   0              0              0              0              0             -0.1077626    
       652   0              0              0              0              0             -0.10765563   
       653   0              0              0              0              0             -0.10750605   
       654   0              0              0              0              0             -0.1073184    
       655   0              0              0              0              0             -0.10709698   
       656   0              0              0              0              0             -0.10684578   
       657   0              0              0              0              0             -0.1065685    
       658   0              0              0              0              0             -0.10626849   
       659   0              0              0              0              0             -0.10594881   
       660   0              0              0              0              0             -0.10561221   
       661   0              0              0              0              0             -0.1052612    
       662   0              0              0              0              0             -0.10489803   
       663   0              0              0              0              0             -0.10452474   
       664   0              0              0              0              0             -0.10414318   
       665   0              0              0              0              0             -0.10375501   
       666   0              0              0              0              0             -0.10336176   
       667   0              0              0              0              0             -0.10296479   
       668   0              0              0              0              0             -0.10256531   
       669   0              0              0              0              0             -0.10216436   
       670   0              0              0              0              0             -0.10176285   
       671   0              0              0              0              0             -0.10136147   
       672   0              0              0              0              0             -0.10096072   
       673   0              0              0              0              0             -0.1005609    
       674   0              0              0              0              0             -0.10016203   
       675   0              0              0              0              0             -0.099763917  
       676   0              0              0              0              0             -0.099366071  
       677   0              0              0              0              0             -0.098967748  
       678   0              0              0              0              0             -0.098567947  
       679   0              0              0              0              0             -0.098165427  
       680   0              0              0              0              0             -0.09775875   
       681   0              0              0              0              0             -0.097346314  
       682   0              0              0              0              0             -0.096926419  
       683   0              0              0              0              0             -0.096497321  
       684   0              0              0              0              0             -0.096057296  
       685   0              0              0              0              0             -0.095604708  
       686   0              0              0              0              0             -0.095138062  
       687   0              0              0              0              0             -0.094656054  
       688   0              0              0              0              0             -0.094157618  
       689   0              0              0              0              0             -0.093641947  
       690   0              0              0              0              0             -0.093108514  
       691   0              0              0              0              0             -0.092557074  
       692   0              0              0              0              0             -0.091987658  
       693   0              0              0              0              0             -0.091400554  
       694   0              0              0              0              0             -0.090796283  
       695   0              0              0              0              0             -0.090175566  
       696   0              0              0              0              0             -0.089539289  
       697   0              0              0              0              0             -0.088888471  
       698   0              0              0              0              0             -0.088224223  
       699   0              0              0              0              0             -0.087547723  
       700   0              0              0              0              0             -0.086860188  
       701   0              0              0              0              0             -0.086162868  
       702   0              0              0              0              0             -0.085457035  
       703   0              0              0              0              0             -0.084744     
       704   0              0              0              0              0             -0.084025123  
       705   0              0              0              0              0             -0.083301832  
       706   0              0              0              0              0             -0.082575644  
       707   0              0              0              0              0             -0.081848177  
       708   0              0              0              0              0             -0.081121169  
       709   0              0              0              0              0             -0.080396482  
       710   0              0              0              0              0             -0.079676109  
       711   0              0              0              0              0             -0.07896217   
       712   0              0              0              0              0             -0.07825691   
       713   0              0              0              0              0             -0.077562686  
       714   0              0              0              0              0             -0.076881945  
       715   0              0              0              0              0             -0.076217209  
       716   0              0              0              0              0             -0.075571042  
       717   0              0              0              0              0             -0.074946022  
       718   0              0              0              0              0             -0.0743447    
       719   0              0              0              0              0             -0.073769559  
       720   0              0              0              0              0             -0.073222971  
       721   0              0              0              0              0             -0.07270715   
       722   0              0              0              0              0             -0.072224102  
       723   0              0              0              0              0             -0.071775584  
       724   0              0              0              0              0             -0.071363058  
       725   0              0              0              0              0             -0.070987651  
       726   0              0              0              0              0             -0.070650118  
       727   0              0              0              0              0             -0.070350802  
       728   0              0              0              0              0             -0.070089606  
       729   0              0              0              0              0             -0.069865972  
       730   0              0              0              0              0             -0.06967887   
       731   0              0              0              0              0             -0.0695268    
       732   0              0              0              0              0             -0.069407816  
       733   0              0              0              0              0             -0.069319556  
       734   0              0              0              0              0             -0.069259295  
       735   0              0              0              0              0             -0.069224015  
       736   0              0              0              0              0             -0.069210483  
       737   0              0              0              0              0             -0.069215346  
       738   0              0              0              0              0             -0.069235239  
       739   0              0              0              0              0             -0.069266892  
       740   0              0              0              0              0             -0.069307244  
       741   0              0              0              0              0             -0.069353552  
       742   0              0              0              0              0             -0.06940349   
       743   0              0              0              0              0             -0.069455232  
       744   0              0              0              0              0             -0.06950751   
       745   0              0              0              0              0             -0.069559648  
       746   0              0              0              0              0             -0.06961156   
       747   0              0              0              0              0             -0.069663717  
       748   0              0              0              0              0             -0.069717079  
       749   0              0              0              0              0             -0.069772992  
       750   0              0              0              0              0             -0.069833062  
       751   0              0              0              0              0             -0.069898999  
       752   0              0              0              0              0             -0.069972458  
       753   0              0              0              0              0             -0.070054866  
       754   0              0              0              0              0             -0.070147262  
       755   0              0              0              0              0             -0.07025015   
       756   0              0              0              0              0             -0.070363379  
       757   0              0              0              0              0             -0.070486051  
       758   0              0              0              0              0             -0.070616476  
       759   0              0              0              0              0             -0.070752169  
[...]
      2806   0              0              0              0              0             -0.10059008   
      2807   0              0              0              0              0             -0.1013569    
      2808   0              0              0              0              0             -0.10209335   
      2809   0              0              0              0              0             -0.10280974   
      2810   0              0              0              0              0             -0.10351718   
      2811   0              0              0              0              0             -0.10422704   
      2812   0              0              0              0              0             -0.10495053   
      2813   0              0              0              0              0             -0.10569818   
      2814   0              0              0              0              0             -0.10647947   
      2815   0              0              0              0              0             -0.10730249   
      2816   0              0              0              0              0             -0.10817377   
      2817   0              0              0              0              0             -0.10909816   
      2818   0              0              0              0              0             -0.11007887   
      2819   0              0              0              0              0             -0.11111757   
      2820   0              0              0              0              0             -0.1122146    
      2821   0              0              0              0              0             -0.11336919   
      2822   0              0              0              0              0             -0.11457963   
      2823   0              0              0              0              0             -0.11584348   
      2824   0              0              0              0              0             -0.11715768   
      2825   0              0              0              0              0             -0.11851864   
      2826   0              0              0              0              0             -0.11992223   
      2827   0              0              0              0              0             -0.12136382   
      2828   0              0              0              0              0             -0.12283823   
      2829   0              0              0              0              0             -0.12433972   
      2830   0              0              0              0              0             -0.125862     
      2831   0              0              0              0              0             -0.12739817   
      2832   0              0              0              0              0             -0.12894071   
      2833   0              0              0              0              0             -0.13048146   
      2834   0              0              0              0              0             -0.13201163   
      2835   0              0              0              0              0             -0.13352174   
      2836   0              0              0              0              0             -0.13500167   
      2837   0              0              0              0              0             -0.13644067   
      2838   0              0              0              0              0             -0.13782743   
      2839   0              0              0              0              0             -0.13915018   
      2840   0              0              0              0              0             -0.14039679   
      2841   0              0              0              0              0             -0.14155497   
      2842   0              0              0              0              0             -0.14261242   
      2843   0              0              0              0              0             -0.14355704   
      2844   0              0              0              0              0             -0.14437717   
      2845   0              0              0              0              0             -0.1450618    
      2846   0              0              0              0              0             -0.14560077   
      2847   0              0              0              0              0             -0.145985     
      2848   0              0              0              0              0             -0.14620664   
      2849   0              0              0              0              0             -0.14625919   
      2850   0              0              0              0              0             -0.14613771   
      2851   0              0              0              0              0             -0.14583885   
      2852   0              0              0              0              0             -0.14536099   
      2853   0              0              0              0              0             -0.14470433   
      2854   0              0              0              0              0             -0.14387097   
      2855   0              0              0              0              0             -0.14286496   
      2856   0              0              0              0              0             -0.14169239   
      2857   0              0              0              0              0             -0.14036138   
      2858   0              0              0              0              0             -0.13888208   
      2859   0              0              0              0              0             -0.1372666    
      2860   0              0              0              0              0             -0.13552885   
      2861   0              0              0              0              0             -0.13368431   
      2862   0              0              0              0              0             -0.13174981   
      2863   0              0              0              0              0             -0.1297431    
      2864   0              0              0              0              0             -0.12768253   
      2865   0              0              0              0              0             -0.12558657   
      2866   0              0              0              0              0             -0.12347342   
      2867   0              0              0              0              0             -0.12136059   
      2868   0              0              0              0              0             -0.11926452   
      2869   0              0              0              0              0             -0.11720031   
      2870   0              0              0              0              0             -0.11518147   
      2871   0              0              0              0              0             -0.11321977   
      2872   0              0              0              0              0             -0.11132521   
      2873   0              0              0              0              0             -0.10950595   
      2874   0              0              0              0              0             -0.10776847   
      2875   0              0              0              0              0             -0.10611758   
      2876   0              0              0              0              0             -0.10455666   
      2877   0              0              0              0              0             -0.10308773   
      2878   0              0              0              0              0             -0.10171168   
      2879   0              0              0              0              0             -0.10042838   
      2880   0              0              0              0              0             -0.099236902  
      2881   0              0              0              0              0             -0.098135634  
      2882   0              0              0              0              0             -0.097122435  
      2883   0              0              0              0              0             -0.096194769  
      2884   0              0              0              0              0             -0.095349818  
      2885   0              0              0              0              0             -0.094584579  
      2886   0              0              0              0              0             -0.093895906  
      2887   0              0              0              0              0             -0.093280538  
      2888   0              0              0              0              0             -0.092735099  
      2889   0              0              0              0              0             -0.092256093  
      2890   0              0              0              0              0             -0.09183989   
      2891   0              0              0              0              0             -0.091482715  
      2892   0              0              0              0              0             -0.091180625  
      2893   0              0              0              0              0             -0.090929495  
      2894   0              0              0              0              0             -0.090724993  
      2895   0              0              0              0              0             -0.090562569  
      2896   0              0              0              0              0             -0.090437442  
      2897   0              0              0              0              0             -0.090344604  
      2898   0              0              0              0              0             -0.09027883   
      2899   0              0              0              0              0             -0.090234719  
      2900   0              0              0              0              0             -0.090206735  
      2901   0              0              0              0              0             -0.090189292  
      2902   0              0              0              0              0             -0.090176839  
      2903   0              0              0              0              0             -0.090163978  
      2904   0              0              0              0              0             -0.090145582  
      2905   0              0              0              0              0             -0.090116927  
      2906   0              0              0              0              0             -0.090073814  
      2907   0              0              0              0              0             -0.090012701  
      2908   0              0              0              0              0             -0.089930823  
      2909   0              0              0              0              0             -0.089826303  
      2910   0              0              0              0              0             -0.089698242  
      2911   0              0              0              0              0             -0.089546785  
      2912   0              0              0              0              0             -0.089373149  
      2913   0              0              0              0              0             -0.089179602  
      2914   0              0              0              0              0             -0.088969401  
      2915   0              0              0              0              0             -0.088746693  
      2916   0              0              0              0              0             -0.088516383  
      2917   0              0              0              0              0             -0.088283979  
      2918   0              0              0              0              0             -0.088055417  
      2919   0              0              0              0              0             -0.087836886  
      2920   0              0              0              0              0             -0.087634646  
      2921   0              0              0              0              0             -0.087454851  
      2922   0              0              0              0              0             -0.087303386  
      2923   0              0              0              0              0             -0.087185718  
      2924   0              0              0              0              0             -0.087106767  
      2925   0              0              0              0              0             -0.087070792  
      2926   0              0              0              0              0             -0.087081307  
      2927   0              0              0              0              0             -0.087141003  
      2928   0              0              0              0              0             -0.087251695  
      2929   0              0              0              0              0             -0.087414273  
      2930   0              0              0              0              0             -0.08762868   
      2931   0              0              0              0              0             -0.08789388   
      2932   0              0              0              0              0             -0.088207853  
      2933   0              0              0              0              0             -0.088567589  
      2934   0              0              0              0              0             -0.088969089  
      2935   0              0              0              0              0             -0.089407385  
      2936   0              0              0              0              0             -0.089876561  
      2937   0              0              0              0              0             -0.090369807  
      2938   0              0              0              0              0             -0.09087947   
      2939   0              0              0              0              0             -0.091397142  
      2940   0              0              0              0              0             -0.091913752  
      2941   0              0              0              0              0             -0.092419703  
      2942   0              0              0              0              0             -0.092905019  
      2943   0              0              0              0              0             -0.093359535  
      2944   0              0              0              0              0             -0.093773116  
      2945   0              0              0              0              0             -0.094135907  
      2946   0              0              0              0              0             -0.094438616  
      2947   0              0              0              0              0             -0.094672793  
      2948   0              0              0              0              0             -0.094831118  
      2949   0              0              0              0              0             -0.094907646  
      2950   0              0              0              0              0             -0.094898018  
      2951   0              0              0              0              0             -0.094799605  
      2952   0              0              0              0              0             -0.094611583  
      2953   0              0              0              0              0             -0.094334941  
      2954   0              0              0              0              0             -0.093972394  
      2955   0              0              0              0              0             -0.093528246  
      2956   0              0              0              0              0             -0.093008179  
      2957   0              0              0              0              0             -0.092419     
      2958   0              0              0              0              0             -0.091768362  
      2959   0              0              0              0              0             -0.091064469  
      2960   0              0              0              0              0             -0.09031579   
      2961   0              0              0              0              0             -0.089530788  
      2962   0              0              0              0              0             -0.08871769   
      2963   0              0              0              0              0             -0.087884279  
      2964   0              0              0              0              0             -0.087037743  
      2965   0              0              0              0              0             -0.086184558  
      2966   0              0              0              0              0             -0.085330413  
      2967   0              0              0              0              0             -0.084480175  
      2968   0              0              0              0              0             -0.083637883  
      2969   0              0              0              0              0             -0.082806773  
      2970   0              0              0              0              0             -0.081989321  
      2971   0              0              0              0              0             -0.081187315  
      2972   0              0              0              0              0             -0.080401931  
      2973   0              0              0              0              0             -0.07963383   
      2974   0              0              0              0              0             -0.078883266  
      2975   0              0              0              0              0             -0.078150203  
      2976   0              0              0              0              0             -0.077434432  
      2977   0              0              0              0              0             -0.076735687  
      2978   0              0              0              0              0             -0.076053755  
      2979   0              0              0              0              0             -0.075388577  
      2980   0              0              0              0              0             -0.074740337  
      2981   0              0              0              0              0             -0.07410955   
      2982   0              0              0              0              0             -0.073497113  
      2983   0              0              0              0              0             -0.072904336  
      2984   0              0              0              0              0             -0.072332918  
      2985   0              0              0              0              0             -0.071784883  
      2986   0              0              0              0              0             -0.071262468  
      2987   0              0              0              0              0             -0.070767977  
      2988   0              0              0              0              0             -0.070303634  
      2989   0              0              0              0              0             -0.06987144   
      2990   0              0              0              0              0             -0.069473047  
      2991   0              0              0              0              0             -0.06910967   
      2992   0              0              0              0              0             -0.068782019  
      2993   0              0              0              0              0             -0.068490268  
      2994   0              0              0              0              0             -0.068234056  
      2995   0              0              0              0              0             -0.068012505  
      2996   0              0              0              0              0             -0.067824269  
      2997   0              0              0              0              0             -0.067667602  
      2998   0              0              0              0              0             -0.067540431  
      2999   0              0              0              0              0             -0.067440448  
      3000   0              0              0              0              0             -0.067365195  
Loop time of 9.6769 on 1 procs for 3001 steps with 12 atoms

Total wall time: 0:00:09
