LAMMPS (7 Feb 2024 - Development - patch_2Jun2022-7271-g417598498c)
Reading data file ...
  triclinic box = (0 0 0) to (5.1364755 5.1934133 5.2461598) with tilt (0 -0.88344297 0)
  1 by 1 by 1 MPI processor grid
  reading atoms ...
  12 atoms
  read_data CPU = 0.001 seconds
**************** Begin of POD Potentials ****************
species: Hf O 
periodic boundary conditions: 1 1 1
number of enviroment clusters: 1
number of principal compoments: 1
inner cut-off radius: 1
outer cut-off radius: 5.5
bessel polynomial degree: 4
inverse polynomial degree: 8
one-body potential: 1
two-body radial basis functions: 8
three-body radial basis functions: 6
three-body angular degree: 4
four-body radial basis functions: 4
four-body angular degree: 2
five-body radial basis functions: 4
five-body angular degree: 2
six-body radial basis functions: 3
six-body angular degree: 2
seven-body radial basis functions: 0
seven-body angular degree: 0
number of local descriptors per element for one-body potential: 1
number of local descriptors per element for two-body potential: 16
number of local descriptors per element for three-body potential: 90
number of local descriptors per element for four-body potential: 64
number of local descriptors per element for five-body potential: 192
number of local descriptors per element for six-body potential: 198
number of local descriptors per element for seven-body potential: 0
number of local descriptors per element for all potentials: 561
number of global descriptors: 1122
**************** End of POD Potentials ****************

WARNING: No fixes with time integration, atoms won't move (src/verlet.cpp:60)
Generated 0 of 1 mixed pair_coeff terms from geometric mixing rule
Neighbor list info ...
  update: every = 1 steps, delay = 0 steps, check = yes
  max neighbors/atom: 2000, page size: 100000
  master list distance cutoff = 10.5
  ghost atom cutoff = 10.5
  binsize = 5.25, bins = 2 1 1
  2 neighbor lists, perpetual/occasional/extra = 1 1 0
  (1) pair zero, perpetual
      attributes: half, newton on
      pair build: half/bin/atomonly/newton/tri
      stencil: half/bin/3d/tri
      bin: standard
  (2) compute podd/atom, occasional
      attributes: full, newton on
      pair build: full/bin/atomonly
      stencil: full/bin/3d
      bin: standard
Per MPI rank memory allocation (min/avg/max) = 3.666 | 3.666 | 3.666 Mbytes
   Step          Temp          PotEng         KinEng         TotEng         Press       v_exampledd  
         0   0              0              0              0              0             -0.072502342  
         1   0              0              0              0              0             -0.072394076  
         2   0              0              0              0              0             -0.0723073    
         3   0              0              0              0              0             -0.072243194  
         4   0              0              0              0              0             -0.072202549  
         5   0              0              0              0              0             -0.072185722  
         6   0              0              0              0              0             -0.07219259   
         7   0              0              0              0              0             -0.072222528  
         8   0              0              0              0              0             -0.072274398  
         9   0              0              0              0              0             -0.072346565  
        10   0              0              0              0              0             -0.072436922  
        11   0              0              0              0              0             -0.072542934  
        12   0              0              0              0              0             -0.072661706  
        13   0              0              0              0              0             -0.072790046  
        14   0              0              0              0              0             -0.072924551  
        15   0              0              0              0              0             -0.073061689  
        16   0              0              0              0              0             -0.073197884  
        17   0              0              0              0              0             -0.073329601  
        18   0              0              0              0              0             -0.073453421  
        19   0              0              0              0              0             -0.07356611   
        20   0              0              0              0              0             -0.073664672  
        21   0              0              0              0              0             -0.073746385  
        22   0              0              0              0              0             -0.073808832  
        23   0              0              0              0              0             -0.073849893  
        24   0              0              0              0              0             -0.073867748  
        25   0              0              0              0              0             -0.073860838  
        26   0              0              0              0              0             -0.073827842  
        27   0              0              0              0              0             -0.073767627  
        28   0              0              0              0              0             -0.073679211  
        29   0              0              0              0              0             -0.073561722  
        30   0              0              0              0              0             -0.073414362  
        31   0              0              0              0              0             -0.073236394  
        32   0              0              0              0              0             -0.073027129  
        33   0              0              0              0              0             -0.07278594   
        34   0              0              0              0              0             -0.072512296  
        35   0              0              0              0              0             -0.072205807  
        36   0              0              0              0              0             -0.071866294  
        37   0              0              0              0              0             -0.071493866  
        38   0              0              0              0              0             -0.071089006  
        39   0              0              0              0              0             -0.070652654  
        40   0              0              0              0              0             -0.070186282  
        41   0              0              0              0              0             -0.06969195   
        42   0              0              0              0              0             -0.069172351  
        43   0              0              0              0              0             -0.068630824  
        44   0              0              0              0              0             -0.068071341  
        45   0              0              0              0              0             -0.067498475  
        46   0              0              0              0              0             -0.066917337  
        47   0              0              0              0              0             -0.066333494  
        48   0              0              0              0              0             -0.065752878  
        49   0              0              0              0              0             -0.065181668  
        50   0              0              0              0              0             -0.064626178  
        51   0              0              0              0              0             -0.064092735  
        52   0              0              0              0              0             -0.063587562  
        53   0              0              0              0              0             -0.063116669  
        54   0              0              0              0              0             -0.062685754  
        55   0              0              0              0              0             -0.062300111  
        56   0              0              0              0              0             -0.061964558  
        57   0              0              0              0              0             -0.061683371  
        58   0              0              0              0              0             -0.061460236  
        59   0              0              0              0              0             -0.061298206  
        60   0              0              0              0              0             -0.061199681  
        61   0              0              0              0              0             -0.061166381  
        62   0              0              0              0              0             -0.061199343  
        63   0              0              0              0              0             -0.061298913  
        64   0              0              0              0              0             -0.06146475   
        65   0              0              0              0              0             -0.061695827  
        66   0              0              0              0              0             -0.061990442  
        67   0              0              0              0              0             -0.062346223  
        68   0              0              0              0              0             -0.062760143  
        69   0              0              0              0              0             -0.063228534  
        70   0              0              0              0              0             -0.063747104  
        71   0              0              0              0              0             -0.064310971  
        72   0              0              0              0              0             -0.064914693  
        73   0              0              0              0              0             -0.06555232   
        74   0              0              0              0              0             -0.066217456  
        75   0              0              0              0              0             -0.066903333  
        76   0              0              0              0              0             -0.067602907  
        77   0              0              0              0              0             -0.068308962  
        78   0              0              0              0              0             -0.069014237  
        79   0              0              0              0              0             -0.069711558  
        80   0              0              0              0              0             -0.070393989  
        81   0              0              0              0              0             -0.071054985  
        82   0              0              0              0              0             -0.071688549  
        83   0              0              0              0              0             -0.072289384  
        84   0              0              0              0              0             -0.072853029  
        85   0              0              0              0              0             -0.073375976  
        86   0              0              0              0              0             -0.07385576   
        87   0              0              0              0              0             -0.074291017  
        88   0              0              0              0              0             -0.074681502  
        89   0              0              0              0              0             -0.075028069  
        90   0              0              0              0              0             -0.075332616  
        91   0              0              0              0              0             -0.075597988  
        92   0              0              0              0              0             -0.075827858  
        93   0              0              0              0              0             -0.07602657   
        94   0              0              0              0              0             -0.076198984  
        95   0              0              0              0              0             -0.076350292  
        96   0              0              0              0              0             -0.076485849  
        97   0              0              0              0              0             -0.07661101   
        98   0              0              0              0              0             -0.076730969  
        99   0              0              0              0              0             -0.076850635  
       100   0              0              0              0              0             -0.076974515  
       101   0              0              0              0              0             -0.077106632  
       102   0              0              0              0              0             -0.077250463  
       103   0              0              0              0              0             -0.077408896  
       104   0              0              0              0              0             -0.077584208  
       105   0              0              0              0              0             -0.077778054  
       106   0              0              0              0              0             -0.077991469  
       107   0              0              0              0              0             -0.078224868  
       108   0              0              0              0              0             -0.07847805   
       109   0              0              0              0              0             -0.078750204  
       110   0              0              0              0              0             -0.07903991   
       111   0              0              0              0              0             -0.079345141  
       112   0              0              0              0              0             -0.079663266  
       113   0              0              0              0              0             -0.079991058  
       114   0              0              0              0              0             -0.080324701  
       115   0              0              0              0              0             -0.080659813  
       116   0              0              0              0              0             -0.080991482  
       117   0              0              0              0              0             -0.081314318  
       118   0              0              0              0              0             -0.081622538  
       119   0              0              0              0              0             -0.08191006   
       120   0              0              0              0              0             -0.082170637  
       121   0              0              0              0              0             -0.082398004  
       122   0              0              0              0              0             -0.082586044  
       123   0              0              0              0              0             -0.082728971  
       124   0              0              0              0              0             -0.082821516  
       125   0              0              0              0              0             -0.08285911   
       126   0              0              0              0              0             -0.082838062  
       127   0              0              0              0              0             -0.082755707  
       128   0              0              0              0              0             -0.082610541  
       129   0              0              0              0              0             -0.082402309  
       130   0              0              0              0              0             -0.082132065  
       131   0              0              0              0              0             -0.081802184  
       132   0              0              0              0              0             -0.081416337  
       133   0              0              0              0              0             -0.080979421  
       134   0              0              0              0              0             -0.08049746   
       135   0              0              0              0              0             -0.079977466  
       136   0              0              0              0              0             -0.079427288  
       137   0              0              0              0              0             -0.078855441  
       138   0              0              0              0              0             -0.078270944  
       139   0              0              0              0              0             -0.077683154  
       140   0              0              0              0              0             -0.077101606  
       141   0              0              0              0              0             -0.076535877  
       142   0              0              0              0              0             -0.075995451  
       143   0              0              0              0              0             -0.075489619  
       144   0              0              0              0              0             -0.075027385  
       145   0              0              0              0              0             -0.074617393  
       146   0              0              0              0              0             -0.074267864  
       147   0              0              0              0              0             -0.073986545  
       148   0              0              0              0              0             -0.073780663  
       149   0              0              0              0              0             -0.073656893  
       150   0              0              0              0              0             -0.073621323  
       151   0              0              0              0              0             -0.073679428  
       152   0              0              0              0              0             -0.073836045  
       153   0              0              0              0              0             -0.074095346  
       154   0              0              0              0              0             -0.074460805  
       155   0              0              0              0              0             -0.074935168  
       156   0              0              0              0              0             -0.075520402  
       157   0              0              0              0              0             -0.076217652  
       158   0              0              0              0              0             -0.077027166  
       159   0              0              0              0              0             -0.077948227  
       160   0              0              0              0              0             -0.078979054  
       161   0              0              0              0              0             -0.080116693  
       162   0              0              0              0              0             -0.081356886  
       163   0              0              0              0              0             -0.082693916  
       164   0              0              0              0              0             -0.084120441  
       165   0              0              0              0              0             -0.085627316  
       166   0              0              0              0              0             -0.087203421  
       167   0              0              0              0              0             -0.088835516  
       168   0              0              0              0              0             -0.090508132  
       169   0              0              0              0              0             -0.092203512  
       170   0              0              0              0              0             -0.09390165   
       171   0              0              0              0              0             -0.095580424  
       172   0              0              0              0              0             -0.097215876  
       173   0              0              0              0              0             -0.098782666  
       174   0              0              0              0              0             -0.10025468   
       175   0              0              0              0              0             -0.10160584   
       176   0              0              0              0              0             -0.10281102   
       177   0              0              0              0              0             -0.10384705   
       178   0              0              0              0              0             -0.1046938    
       179   0              0              0              0              0             -0.10533517   
       180   0              0              0              0              0             -0.1057599    
       181   0              0              0              0              0             -0.10596219   
       182   0              0              0              0              0             -0.105942     
       183   0              0              0              0              0             -0.10570513   
       184   0              0              0              0              0             -0.10526293   
       185   0              0              0              0              0             -0.1046318    
       186   0              0              0              0              0             -0.1038324    
       187   0              0              0              0              0             -0.10288871   
       188   0              0              0              0              0             -0.10182692   
       189   0              0              0              0              0             -0.10067436   
       190   0              0              0              0              0             -0.099458358  
       191   0              0              0              0              0             -0.09820527   
       192   0              0              0              0              0             -0.096939634  
       193   0              0              0              0              0             -0.095683489  
       194   0              0              0              0              0             -0.094455896  
       195   0              0              0              0              0             -0.093272637  
       196   0              0              0              0              0             -0.092146075  
       197   0              0              0              0              0             -0.091085162  
       198   0              0              0              0              0             -0.090095562  
       199   0              0              0              0              0             -0.089179868  
       200   0              0              0              0              0             -0.088337879  
       201   0              0              0              0              0             -0.087566931  
       202   0              0              0              0              0             -0.086862244  
       203   0              0              0              0              0             -0.086217285  
       204   0              0              0              0              0             -0.085624127  
       205   0              0              0              0              0             -0.085073808  
       206   0              0              0              0              0             -0.084556689  
       207   0              0              0              0              0             -0.084062824  
       208   0              0              0              0              0             -0.083582343  
       209   0              0              0              0              0             -0.083105837  
       210   0              0              0              0              0             -0.082624708  
       211   0              0              0              0              0             -0.082131451  
       212   0              0              0              0              0             -0.081619871  
       213   0              0              0              0              0             -0.081085249  
       214   0              0              0              0              0             -0.080524453  
       215   0              0              0              0              0             -0.079935983  
       216   0              0              0              0              0             -0.079319958  
       217   0              0              0              0              0             -0.078678023  
       218   0              0              0              0              0             -0.078013212  
       219   0              0              0              0              0             -0.077329754  
       220   0              0              0              0              0             -0.076632847  
       221   0              0              0              0              0             -0.075928409  
       222   0              0              0              0              0             -0.075222835  
       223   0              0              0              0              0             -0.074522747  
       224   0              0              0              0              0             -0.073834777  
       225   0              0              0              0              0             -0.073165385  
       226   0              0              0              0              0             -0.072520711  
       227   0              0              0              0              0             -0.071906487  
       228   0              0              0              0              0             -0.071327976  
       229   0              0              0              0              0             -0.070789946  
       230   0              0              0              0              0             -0.070296671  
       231   0              0              0              0              0             -0.069851951  
       232   0              0              0              0              0             -0.069459149  
       233   0              0              0              0              0             -0.069121233  
       234   0              0              0              0              0             -0.06884082   
       235   0              0              0              0              0             -0.068620217  
       236   0              0              0              0              0             -0.068461438  
       237   0              0              0              0              0             -0.068366213  
       238   0              0              0              0              0             -0.068335965  
       239   0              0              0              0              0             -0.068371771  
       240   0              0              0              0              0             -0.068474292  
       241   0              0              0              0              0             -0.068643692  
       242   0              0              0              0              0             -0.068879536  
       243   0              0              0              0              0             -0.069180686  
       244   0              0              0              0              0             -0.069545191  
       245   0              0              0              0              0             -0.069970194  
       246   0              0              0              0              0             -0.070451857  
       247   0              0              0              0              0             -0.070985306  
       248   0              0              0              0              0             -0.071564615  
       249   0              0              0              0              0             -0.072182826  
       250   0              0              0              0              0             -0.072832011  
       251   0              0              0              0              0             -0.073503373  
       252   0              0              0              0              0             -0.074187381  
       253   0              0              0              0              0             -0.074873931  
       254   0              0              0              0              0             -0.075552541  
       255   0              0              0              0              0             -0.076212558  
       256   0              0              0              0              0             -0.076843402  
       257   0              0              0              0              0             -0.077434819  
       258   0              0              0              0              0             -0.077977142  
       259   0              0              0              0              0             -0.078461542  
       260   0              0              0              0              0             -0.07888025   
       261   0              0              0              0              0             -0.079226762  
       262   0              0              0              0              0             -0.079495989  
       263   0              0              0              0              0             -0.07968437   
       264   0              0              0              0              0             -0.079789933  
       265   0              0              0              0              0             -0.079812299  
       266   0              0              0              0              0             -0.079752643  
       267   0              0              0              0              0             -0.0796136    
       268   0              0              0              0              0             -0.07939914   
       269   0              0              0              0              0             -0.079114404  
       270   0              0              0              0              0             -0.07876553   
       271   0              0              0              0              0             -0.078359453  
       272   0              0              0              0              0             -0.077903718  
       273   0              0              0              0              0             -0.077406288  
       274   0              0              0              0              0             -0.076875364  
       275   0              0              0              0              0             -0.076319218  
       276   0              0              0              0              0             -0.075746046  
       277   0              0              0              0              0             -0.075163833  
       278   0              0              0              0              0             -0.074580246  
       279   0              0              0              0              0             -0.074002534  
       280   0              0              0              0              0             -0.073437459  
       281   0              0              0              0              0             -0.072891242  
       282   0              0              0              0              0             -0.072369525  
       283   0              0              0              0              0             -0.071877346  
       284   0              0              0              0              0             -0.071419141  
       285   0              0              0              0              0             -0.070998745  
       286   0              0              0              0              0             -0.07061942   
       287   0              0              0              0              0             -0.070283881  
       288   0              0              0              0              0             -0.069994344  
       289   0              0              0              0              0             -0.069752575  
       290   0              0              0              0              0             -0.069559957  
       291   0              0              0              0              0             -0.069417554  
       292   0              0              0              0              0             -0.069326183  
       293   0              0              0              0              0             -0.069286472  
       294   0              0              0              0              0             -0.069298887  
       295   0              0              0              0              0             -0.069363719  
       296   0              0              0              0              0             -0.069481036  
       297   0              0              0              0              0             -0.069650583  
       298   0              0              0              0              0             -0.069871665  
       299   0              0              0              0              0             -0.070143019  
       300   0              0              0              0              0             -0.070462694  
       301   0              0              0              0              0             -0.070827955  
       302   0              0              0              0              0             -0.071235216  
       303   0              0              0              0              0             -0.071680012  
       304   0              0              0              0              0             -0.072156999  
       305   0              0              0              0              0             -0.072659996  
       306   0              0              0              0              0             -0.073182069  
       307   0              0              0              0              0             -0.073715664  
       308   0              0              0              0              0             -0.074252763  
       309   0              0              0              0              0             -0.074785077  
       310   0              0              0              0              0             -0.075304246  
       311   0              0              0              0              0             -0.075802037  
       312   0              0              0              0              0             -0.076270546  
       313   0              0              0              0              0             -0.076702362  
       314   0              0              0              0              0             -0.077090727  
       315   0              0              0              0              0             -0.077429654  
       316   0              0              0              0              0             -0.077714043  
       317   0              0              0              0              0             -0.07793978   
       318   0              0              0              0              0             -0.078103829  
       319   0              0              0              0              0             -0.078204335  
       320   0              0              0              0              0             -0.078240695  
       321   0              0              0              0              0             -0.078213601  
       322   0              0              0              0              0             -0.078125     
       323   0              0              0              0              0             -0.077977961  
       324   0              0              0              0              0             -0.077776452  
       325   0              0              0              0              0             -0.077525095  
       326   0              0              0              0              0             -0.07722893   
       327   0              0              0              0              0             -0.076893235  
       328   0              0              0              0              0             -0.076523384  
       329   0              0              0              0              0             -0.076124746  
       330   0              0              0              0              0             -0.075702626  
       331   0              0              0              0              0             -0.075262227  
       332   0              0              0              0              0             -0.074808643  
       333   0              0              0              0              0             -0.074346857  
       334   0              0              0              0              0             -0.073881747  
       335   0              0              0              0              0             -0.073418087  
       336   0              0              0              0              0             -0.072960539  
       337   0              0              0              0              0             -0.072513638  
       338   0              0              0              0              0             -0.072081757  
       339   0              0              0              0              0             -0.071669065  
       340   0              0              0              0              0             -0.071279474  
       341   0              0              0              0              0             -0.070916577  
       342   0              0              0              0              0             -0.07058359   
       343   0              0              0              0              0             -0.07028329   
       344   0              0              0              0              0             -0.070017967  
       345   0              0              0              0              0             -0.069789381  
       346   0              0              0              0              0             -0.069598721  
       347   0              0              0              0              0             -0.069446563  
       348   0              0              0              0              0             -0.069332839  
       349   0              0              0              0              0             -0.069256814  
       350   0              0              0              0              0             -0.069217082  
       351   0              0              0              0              0             -0.069211601  
       352   0              0              0              0              0             -0.069237769  
       353   0              0              0              0              0             -0.069292527  
       354   0              0              0              0              0             -0.069372505  
       355   0              0              0              0              0             -0.069474194  
       356   0              0              0              0              0             -0.069594118  
       357   0              0              0              0              0             -0.06972901   
       358   0              0              0              0              0             -0.069875956  
       359   0              0              0              0              0             -0.070032516  
       360   0              0              0              0              0             -0.070196791  
       361   0              0              0              0              0             -0.070367449  
       362   0              0              0              0              0             -0.070543706  
       363   0              0              0              0              0             -0.070725273  
       364   0              0              0              0              0             -0.070912279  
       365   0              0              0              0              0             -0.071105192  
       366   0              0              0              0              0             -0.071304727  
       367   0              0              0              0              0             -0.071511777  
       368   0              0              0              0              0             -0.071727335  
       369   0              0              0              0              0             -0.07195242   
       370   0              0              0              0              0             -0.072187998  
       371   0              0              0              0              0             -0.072434892  
       372   0              0              0              0              0             -0.072693665  
       373   0              0              0              0              0             -0.072964496  
       374   0              0              0              0              0             -0.073247041  
       375   0              0              0              0              0             -0.073540288  
       376   0              0              0              0              0             -0.073842428  
       377   0              0              0              0              0             -0.074150746  
       378   0              0              0              0              0             -0.074461548  
       379   0              0              0              0              0             -0.074770136  
       380   0              0              0              0              0             -0.07507083   
       381   0              0              0              0              0             -0.075357043  
       382   0              0              0              0              0             -0.075621402  
       383   0              0              0              0              0             -0.075855916  
       384   0              0              0              0              0             -0.076052174  
       385   0              0              0              0              0             -0.076201575  
       386   0              0              0              0              0             -0.07629557   
       387   0              0              0              0              0             -0.076325908  
       388   0              0              0              0              0             -0.076284891  
       389   0              0              0              0              0             -0.076165616  
       390   0              0              0              0              0             -0.075962208  
       391   0              0              0              0              0             -0.075670043  
       392   0              0              0              0              0             -0.075285955  
       393   0              0              0              0              0             -0.074808414  
       394   0              0              0              0              0             -0.074237688  
       395   0              0              0              0              0             -0.073575957  
       396   0              0              0              0              0             -0.072827388  
       397   0              0              0              0              0             -0.071998148  
       398   0              0              0              0              0             -0.071096361  
       399   0              0              0              0              0             -0.070131984  
       400   0              0              0              0              0             -0.069116633  
       401   0              0              0              0              0             -0.068063349  
       402   0              0              0              0              0             -0.066986321  
       403   0              0              0              0              0             -0.065900588  
       404   0              0              0              0              0             -0.064821719  
       405   0              0              0              0              0             -0.063765493  
       406   0              0              0              0              0             -0.062747585  
       407   0              0              0              0              0             -0.061783264  
       408   0              0              0              0              0             -0.060887102  
       409   0              0              0              0              0             -0.060072716  
       410   0              0              0              0              0             -0.059352529  
       411   0              0              0              0              0             -0.058737556  
       412   0              0              0              0              0             -0.058237223  
       413   0              0              0              0              0             -0.057859206  
       414   0              0              0              0              0             -0.057609305  
       415   0              0              0              0              0             -0.057491338  
       416   0              0              0              0              0             -0.057507077  
       417   0              0              0              0              0             -0.057656198  
       418   0              0              0              0              0             -0.057936279  
       419   0              0              0              0              0             -0.058342825  
       420   0              0              0              0              0             -0.058869334  
       421   0              0              0              0              0             -0.059507403  
       422   0              0              0              0              0             -0.060246876  
       423   0              0              0              0              0             -0.061076037  
       424   0              0              0              0              0             -0.061981836  
       425   0              0              0              0              0             -0.062950159  
       426   0              0              0              0              0             -0.063966125  
       427   0              0              0              0              0             -0.065014391  
       428   0              0              0              0              0             -0.066079476  
       429   0              0              0              0              0             -0.067146074  
       430   0              0              0              0              0             -0.068199349  
       431   0              0              0              0              0             -0.06922521   
       432   0              0              0              0              0             -0.070210557  
       433   0              0              0              0              0             -0.071143501  
       434   0              0              0              0              0             -0.072013552  
       435   0              0              0              0              0             -0.072811775  
       436   0              0              0              0              0             -0.073530918  
       437   0              0              0              0              0             -0.074165504  
       438   0              0              0              0              0             -0.074711884  
       439   0              0              0              0              0             -0.075168262  
       440   0              0              0              0              0             -0.075534678  
       441   0              0              0              0              0             -0.075812959  
       442   0              0              0              0              0             -0.076006628  
       443   0              0              0              0              0             -0.076120776  
       444   0              0              0              0              0             -0.076161901  
       445   0              0              0              0              0             -0.076137712  
       446   0              0              0              0              0             -0.076056901  
       447   0              0              0              0              0             -0.075928909  
       448   0              0              0              0              0             -0.075763671  
       449   0              0              0              0              0             -0.075571377  
       450   0              0              0              0              0             -0.075362237  
       451   0              0              0              0              0             -0.075146275  
       452   0              0              0              0              0             -0.074933153  
       453   0              0              0              0              0             -0.074732032  
       454   0              0              0              0              0             -0.07455147   
       455   0              0              0              0              0             -0.07439936   
       456   0              0              0              0              0             -0.074282909  
       457   0              0              0              0              0             -0.074208647  
       458   0              0              0              0              0             -0.074182465  
       459   0              0              0              0              0             -0.074209676  
       460   0              0              0              0              0             -0.074295098  
       461   0              0              0              0              0             -0.074443136  
       462   0              0              0              0              0             -0.074657866  
       463   0              0              0              0              0             -0.074943126  
       464   0              0              0              0              0             -0.075302581  
       465   0              0              0              0              0             -0.075739785  
       466   0              0              0              0              0             -0.076258211  
       467   0              0              0              0              0             -0.07686127   
       468   0              0              0              0              0             -0.077552288  
       469   0              0              0              0              0             -0.078334462  
       470   0              0              0              0              0             -0.079210786  
       471   0              0              0              0              0             -0.080183957  
       472   0              0              0              0              0             -0.08125625   
       473   0              0              0              0              0             -0.082429389  
       474   0              0              0              0              0             -0.083704396  
       475   0              0              0              0              0             -0.085081436  
       476   0              0              0              0              0             -0.086559657  
       477   0              0              0              0              0             -0.088137037  
       478   0              0              0              0              0             -0.089810227  
       479   0              0              0              0              0             -0.091574422  
       480   0              0              0              0              0             -0.09342323   
       481   0              0              0              0              0             -0.095348574  
       482   0              0              0              0              0             -0.097340603  
       483   0              0              0              0              0             -0.099387632  
       484   0              0              0              0              0             -0.10147611   
       485   0              0              0              0              0             -0.10359061   
       486   0              0              0              0              0             -0.1057139    
       487   0              0              0              0              0             -0.10782705   
       488   0              0              0              0              0             -0.10990961   
       489   0              0              0              0              0             -0.1119399    
       490   0              0              0              0              0             -0.11389536   
       491   0              0              0              0              0             -0.11575305   
       492   0              0              0              0              0             -0.11749013   
       493   0              0              0              0              0             -0.11908453   
       494   0              0              0              0              0             -0.1205156    
       495   0              0              0              0              0             -0.12176481   
       496   0              0              0              0              0             -0.12281644   
       497   0              0              0              0              0             -0.12365818   
       498   0              0              0              0              0             -0.1242817    
       499   0              0              0              0              0             -0.12468298   
       500   0              0              0              0              0             -0.12486254   
       501   0              0              0              0              0             -0.12482544   
       502   0              0              0              0              0             -0.12458102   
       503   0              0              0              0              0             -0.12414253   
       504   0              0              0              0              0             -0.12352657   
       505   0              0              0              0              0             -0.12275232   
       506   0              0              0              0              0             -0.12184081   
       507   0              0              0              0              0             -0.12081409   
       508   0              0              0              0              0             -0.11969446   
       509   0              0              0              0              0             -0.11850372   
       510   0              0              0              0              0             -0.11726254   
       511   0              0              0              0              0             -0.11598995   
       512   0              0              0              0              0             -0.11470293   
       513   0              0              0              0              0             -0.11341616   
       514   0              0              0              0              0             -0.11214182   
       515   0              0              0              0              0             -0.11088957   
       516   0              0              0              0              0             -0.10966655   
       517   0              0              0              0              0             -0.10847746   
       518   0              0              0              0              0             -0.10732469   
       519   0              0              0              0              0             -0.10620856   
       520   0              0              0              0              0             -0.10512746   
       521   0              0              0              0              0             -0.10407816   
       522   0              0              0              0              0             -0.10305606   
       523   0              0              0              0              0             -0.10205545   
       524   0              0              0              0              0             -0.10106981   
       525   0              0              0              0              0             -0.10009213   
       526   0              0              0              0              0             -0.09911518   
       527   0              0              0              0              0             -0.098131813  
       528   0              0              0              0              0             -0.097135266  
       529   0              0              0              0              0             -0.096119403  
       530   0              0              0              0              0             -0.095078955  
       531   0              0              0              0              0             -0.094009716  
       532   0              0              0              0              0             -0.092908702  
       533   0              0              0              0              0             -0.091774258  
       534   0              0              0              0              0             -0.090606122  
       535   0              0              0              0              0             -0.089405439  
       536   0              0              0              0              0             -0.088174725  
       537   0              0              0              0              0             -0.086917784  
       538   0              0              0              0              0             -0.085639591  
       539   0              0              0              0              0             -0.084346131  
       540   0              0              0              0              0             -0.083044222  
       541   0              0              0              0              0             -0.081741313  
       542   0              0              0              0              0             -0.080445266  
       543   0              0              0              0              0             -0.079164146  
       544   0              0              0              0              0             -0.077906004  
       545   0              0              0              0              0             -0.076678676  
       546   0              0              0              0              0             -0.075489591  
       547   0              0              0              0              0             -0.074345599  
       548   0              0              0              0              0             -0.073252813  
       549   0              0              0              0              0             -0.072216483  
       550   0              0              0              0              0             -0.07124088   
       551   0              0              0              0              0             -0.070329219  
       552   0              0              0              0              0             -0.06948358   
       553   0              0              0              0              0             -0.068704855  
       554   0              0              0              0              0             -0.067992705  
       555   0              0              0              0              0             -0.067345566  
       556   0              0              0              0              0             -0.066760702  
       557   0              0              0              0              0             -0.066234325  
       558   0              0              0              0              0             -0.065761755  
       559   0              0              0              0              0             -0.065337615  
       560   0              0              0              0              0             -0.064956017  
       561   0              0              0              0              0             -0.064610753  
       562   0              0              0              0              0             -0.064295454  
       563   0              0              0              0              0             -0.06400374   
       564   0              0              0              0              0             -0.063729354  
       565   0              0              0              0              0             -0.063466288  
       566   0              0              0              0              0             -0.06320891   
       567   0              0              0              0              0             -0.062952081  
       568   0              0              0              0              0             -0.062691282  
       569   0              0              0              0              0             -0.062422725  
       570   0              0              0              0              0             -0.062143454  
       571   0              0              0              0              0             -0.061851427  
       572   0              0              0              0              0             -0.061545564  
       573   0              0              0              0              0             -0.061225771  
       574   0              0              0              0              0             -0.060892924  
       575   0              0              0              0              0             -0.060548831  
       576   0              0              0              0              0             -0.060196167  
       577   0              0              0              0              0             -0.059838385  
       578   0              0              0              0              0             -0.059479611  
       579   0              0              0              0              0             -0.059124515  
       580   0              0              0              0              0             -0.05877818   
       581   0              0              0              0              0             -0.058445954  
       582   0              0              0              0              0             -0.058133318  
       583   0              0              0              0              0             -0.057845747  
       584   0              0              0              0              0             -0.057588595  
       585   0              0              0              0              0             -0.057366997  
       586   0              0              0              0              0             -0.057185783  
       587   0              0              0              0              0             -0.057049416  
       588   0              0              0              0              0             -0.056961947  
       589   0              0              0              0              0             -0.056926984  
       590   0              0              0              0              0             -0.056947667  
       591   0              0              0              0              0             -0.057026666  
       592   0              0              0              0              0             -0.057166167  
       593   0              0              0              0              0             -0.057367871  
       594   0              0              0              0              0             -0.057632989  
       595   0              0              0              0              0             -0.057962233  
       596   0              0              0              0              0             -0.058355807  
       597   0              0              0              0              0             -0.058813383  
       598   0              0              0              0              0             -0.059334084  
       599   0              0              0              0              0             -0.05991644   
       600   0              0              0              0              0             -0.060558351  
       601   0              0              0              0              0             -0.061257021  
       602   0              0              0              0              0             -0.062008897  
       603   0              0              0              0              0             -0.06280958   
       604   0              0              0              0              0             -0.063653747  
       605   0              0              0              0              0             -0.06453507   
       606   0              0              0              0              0             -0.065446156  
       607   0              0              0              0              0             -0.06637852   
       608   0              0              0              0              0             -0.067322599  
       609   0              0              0              0              0             -0.068267814  
       610   0              0              0              0              0             -0.069202684  
       611   0              0              0              0              0             -0.070114976  
       612   0              0              0              0              0             -0.070991912  
       613   0              0              0              0              0             -0.07182043   
       614   0              0              0              0              0             -0.072587487  
       615   0              0              0              0              0             -0.073280412  
       616   0              0              0              0              0             -0.073887289  
       617   0              0              0              0              0             -0.074397352  
       618   0              0              0              0              0             -0.074801367  
       619   0              0              0              0              0             -0.075091986  
       620   0              0              0              0              0             -0.075264034  
       621   0              0              0              0              0             -0.075314728  
       622   0              0              0              0              0             -0.07524379   
       623   0              0              0              0              0             -0.075053461  
       624   0              0              0              0              0             -0.07474841   
       625   0              0              0              0              0             -0.074335546  
       626   0              0              0              0              0             -0.073823753  
       627   0              0              0              0              0             -0.073223558  
       628   0              0              0              0              0             -0.072546774  
       629   0              0              0              0              0             -0.071806121  
       630   0              0              0              0              0             -0.071014865  
       631   0              0              0              0              0             -0.070186475  
       632   0              0              0              0              0             -0.069334322  
       633   0              0              0              0              0             -0.068471422  
       634   0              0              0              0              0             -0.067610222  
       635   0              0              0              0              0             -0.066762439  
       636   0              0              0              0              0             -0.065938938  
       637   0              0              0              0              0             -0.06514965   
       638   0              0              0              0              0             -0.064403533  
       639   0              0              0              0              0             -0.06370855   
       640   0              0              0              0              0             -0.063071683  
       641   0              0              0              0              0             -0.062498959  
       642   0              0              0              0              0             -0.061995493  
       643   0              0              0              0              0             -0.061565542  
       644   0              0              0              0              0             -0.061212568  
       645   0              0              0              0              0             -0.060939295  
       646   0              0              0              0              0             -0.060747772  
       647   0              0              0              0              0             -0.060639435  
       648   0              0              0              0              0             -0.06061515   
       649   0              0              0              0              0             -0.06067526   
       650   0              0              0              0              0             -0.060819612  
       651   0              0              0              0              0             -0.061047582  
       652   0              0              0              0              0             -0.061358081  
       653   0              0              0              0              0             -0.061749552  
       654   0              0              0              0              0             -0.062219965  
       655   0              0              0              0              0             -0.062766793  
       656   0              0              0              0              0             -0.063387002  
       657   0              0              0              0              0             -0.064077029  
       658   0              0              0              0              0             -0.064832775  
       659   0              0              0              0              0             -0.065649603  
       660   0              0              0              0              0             -0.066522344  
       661   0              0              0              0              0             -0.067445327  
       662   0              0              0              0              0             -0.068412414  
       663   0              0              0              0              0             -0.069417056  
       664   0              0              0              0              0             -0.070452366  
       665   0              0              0              0              0             -0.071511203  
       666   0              0              0              0              0             -0.07258627   
       667   0              0              0              0              0             -0.073670227  
       668   0              0              0              0              0             -0.074755802  
       669   0              0              0              0              0             -0.075835919  
       670   0              0              0              0              0             -0.076903827  
       671   0              0              0              0              0             -0.077953227  
       672   0              0              0              0              0             -0.078978411  
       673   0              0              0              0              0             -0.079974394  
       674   0              0              0              0              0             -0.080937046  
       675   0              0              0              0              0             -0.081863229  
       676   0              0              0              0              0             -0.082750899  
       677   0              0              0              0              0             -0.083599186  
       678   0              0              0              0              0             -0.084408408  
       679   0              0              0              0              0             -0.085180003  
       680   0              0              0              0              0             -0.085916397  
       681   0              0              0              0              0             -0.086620818  
       682   0              0              0              0              0             -0.087297098  
       683   0              0              0              0              0             -0.087949456  
       684   0              0              0              0              0             -0.088582277  
       685   0              0              0              0              0             -0.089199878  
       686   0              0              0              0              0             -0.089806277  
       687   0              0              0              0              0             -0.090404988  
       688   0              0              0              0              0             -0.090998829  
       689   0              0              0              0              0             -0.091589786  
       690   0              0              0              0              0             -0.092178899  
       691   0              0              0              0              0             -0.092766213  
       692   0              0              0              0              0             -0.093350769  
       693   0              0              0              0              0             -0.093930649  
       694   0              0              0              0              0             -0.094503064  
       695   0              0              0              0              0             -0.095064484  
       696   0              0              0              0              0             -0.0956108    
       697   0              0              0              0              0             -0.09613751   
       698   0              0              0              0              0             -0.096639917  
       699   0              0              0              0              0             -0.097113329  
       700   0              0              0              0              0             -0.097553255  
       701   0              0              0              0              0             -0.097955576  
       702   0              0              0              0              0             -0.098316703  
       703   0              0              0              0              0             -0.098633694  
       704   0              0              0              0              0             -0.098904347  
       705   0              0              0              0              0             -0.099127253  
       706   0              0              0              0              0             -0.099301821  
       707   0              0              0              0              0             -0.099428268  
       708   0              0              0              0              0             -0.099507588  
       709   0              0              0              0              0             -0.099541497  
       710   0              0              0              0              0             -0.099532368  
       711   0              0              0              0              0             -0.099483144  
       712   0              0              0              0              0             -0.099397255  
       713   0              0              0              0              0             -0.099278511  
       714   0              0              0              0              0             -0.099131005  
       715   0              0              0              0              0             -0.098959     
       716   0              0              0              0              0             -0.098766817  
       717   0              0              0              0              0             -0.098558735  
       718   0              0              0              0              0             -0.098338878  
       719   0              0              0              0              0             -0.098111128  
       720   0              0              0              0              0             -0.097879046  
       721   0              0              0              0              0             -0.097645802  
       722   0              0              0              0              0             -0.097414143  
       723   0              0              0              0              0             -0.097186367  
       724   0              0              0              0              0             -0.096964337  
       725   0              0              0              0              0             -0.096749511  
       726   0              0              0              0              0             -0.096542998  
       727   0              0              0              0              0             -0.096345627  
       728   0              0              0              0              0             -0.096158033  
       729   0              0              0              0              0             -0.095980739  
       730   0              0              0              0              0             -0.095814237  
       731   0              0              0              0              0             -0.095659046  
       732   0              0              0              0              0             -0.095515751  
       733   0              0              0              0              0             -0.095385     
       734   0              0              0              0              0             -0.095267472  
       735   0              0              0              0              0             -0.095163783  
       736   0              0              0              0              0             -0.095074366  
       737   0              0              0              0              0             -0.094999296  
       738   0              0              0              0              0             -0.094938093  
       739   0              0              0              0              0             -0.0948895    
       740   0              0              0              0              0             -0.09485126   
       741   0              0              0              0              0             -0.094819915  
       742   0              0              0              0              0             -0.094790627  
       743   0              0              0              0              0             -0.094757066  
       744   0              0              0              0              0             -0.094711364  
       745   0              0              0              0              0             -0.094644154  
       746   0              0              0              0              0             -0.094544717  
       747   0              0              0              0              0             -0.094401222  
       748   0              0              0              0              0             -0.09420108   
       749   0              0              0              0              0             -0.093931386  
       750   0              0              0              0              0             -0.093579444  
       751   0              0              0              0              0             -0.093133341  
       752   0              0              0              0              0             -0.092582539  
       753   0              0              0              0              0             -0.091918451  
       754   0              0              0              0              0             -0.091134953  
       755   0              0              0              0              0             -0.090228795  
       756   0              0              0              0              0             -0.089199874  
       757   0              0              0              0              0             -0.088051352  
       758   0              0              0              0              0             -0.086789604  
       759   0              0              0              0              0             -0.085424     
[...]
      2806   0              0              0              0              0             -0.08862334   
      2807   0              0              0              0              0             -0.087717741  
      2808   0              0              0              0              0             -0.086789193  
      2809   0              0              0              0              0             -0.085848829  
      2810   0              0              0              0              0             -0.084907012  
      2811   0              0              0              0              0             -0.083973364  
      2812   0              0              0              0              0             -0.083056806  
      2813   0              0              0              0              0             -0.082165568  
      2814   0              0              0              0              0             -0.081307165  
      2815   0              0              0              0              0             -0.08048837   
      2816   0              0              0              0              0             -0.079715176  
      2817   0              0              0              0              0             -0.078992785  
      2818   0              0              0              0              0             -0.078325603  
      2819   0              0              0              0              0             -0.077717255  
      2820   0              0              0              0              0             -0.0771706    
      2821   0              0              0              0              0             -0.076687767  
      2822   0              0              0              0              0             -0.076270206  
      2823   0              0              0              0              0             -0.075918737  
      2824   0              0              0              0              0             -0.07563361   
      2825   0              0              0              0              0             -0.075414566  
      2826   0              0              0              0              0             -0.075260881  
      2827   0              0              0              0              0             -0.075171412  
      2828   0              0              0              0              0             -0.075144628  
      2829   0              0              0              0              0             -0.075178637  
      2830   0              0              0              0              0             -0.075271204  
      2831   0              0              0              0              0             -0.075419765  
      2832   0              0              0              0              0             -0.075621442  
      2833   0              0              0              0              0             -0.075873053  
      2834   0              0              0              0              0             -0.076171129  
      2835   0              0              0              0              0             -0.076511938  
      2836   0              0              0              0              0             -0.076891505  
      2837   0              0              0              0              0             -0.077305651  
      2838   0              0              0              0              0             -0.077750028  
      2839   0              0              0              0              0             -0.078220165  
      2840   0              0              0              0              0             -0.078711513  
      2841   0              0              0              0              0             -0.079219498  
      2842   0              0              0              0              0             -0.07973958   
      2843   0              0              0              0              0             -0.080267309  
      2844   0              0              0              0              0             -0.080798396  
      2845   0              0              0              0              0             -0.081328779  
      2846   0              0              0              0              0             -0.0818547    
      2847   0              0              0              0              0             -0.08237277   
      2848   0              0              0              0              0             -0.082880042  
      2849   0              0              0              0              0             -0.083374063  
      2850   0              0              0              0              0             -0.083852925  
      2851   0              0              0              0              0             -0.084315301  
      2852   0              0              0              0              0             -0.084760465  
      2853   0              0              0              0              0             -0.085188306  
      2854   0              0              0              0              0             -0.085599329  
      2855   0              0              0              0              0             -0.085994636  
      2856   0              0              0              0              0             -0.086375897  
      2857   0              0              0              0              0             -0.086745305  
      2858   0              0              0              0              0             -0.087105506  
      2859   0              0              0              0              0             -0.087459524  
      2860   0              0              0              0              0             -0.08781066   
      2861   0              0              0              0              0             -0.088162386  
      2862   0              0              0              0              0             -0.088518222  
      2863   0              0              0              0              0             -0.088881618  
      2864   0              0              0              0              0             -0.089255818  
      2865   0              0              0              0              0             -0.089643728  
      2866   0              0              0              0              0             -0.090047795  
      2867   0              0              0              0              0             -0.090469878  
      2868   0              0              0              0              0             -0.090911136  
      2869   0              0              0              0              0             -0.091371929  
      2870   0              0              0              0              0             -0.091851729  
      2871   0              0              0              0              0             -0.092349054  
      2872   0              0              0              0              0             -0.092861415  
      2873   0              0              0              0              0             -0.093385293  
      2874   0              0              0              0              0             -0.093916127  
      2875   0              0              0              0              0             -0.094448336  
      2876   0              0              0              0              0             -0.094975352  
      2877   0              0              0              0              0             -0.095489686  
      2878   0              0              0              0              0             -0.09598301   
      2879   0              0              0              0              0             -0.096446263  
      2880   0              0              0              0              0             -0.096869782  
      2881   0              0              0              0              0             -0.097243457  
      2882   0              0              0              0              0             -0.097556917  
      2883   0              0              0              0              0             -0.097799734  
      2884   0              0              0              0              0             -0.097961662  
      2885   0              0              0              0              0             -0.098032897  
      2886   0              0              0              0              0             -0.098004351  
      2887   0              0              0              0              0             -0.097867941  
      2888   0              0              0              0              0             -0.097616868  
      2889   0              0              0              0              0             -0.097245878  
      2890   0              0              0              0              0             -0.096751489  
      2891   0              0              0              0              0             -0.096132169  
      2892   0              0              0              0              0             -0.095388433  
      2893   0              0              0              0              0             -0.094522876  
      2894   0              0              0              0              0             -0.093540115  
      2895   0              0              0              0              0             -0.092446647  
      2896   0              0              0              0              0             -0.091250642  
      2897   0              0              0              0              0             -0.089961671  
      2898   0              0              0              0              0             -0.088590398  
      2899   0              0              0              0              0             -0.087148243  
      2900   0              0              0              0              0             -0.085647045  
      2901   0              0              0              0              0             -0.084098741  
      2902   0              0              0              0              0             -0.082515075  
      2903   0              0              0              0              0             -0.08090735   
      2904   0              0              0              0              0             -0.079286234  
      2905   0              0              0              0              0             -0.077661627  
      2906   0              0              0              0              0             -0.076042578  
      2907   0              0              0              0              0             -0.074437259  
      2908   0              0              0              0              0             -0.072852978  
      2909   0              0              0              0              0             -0.071296233  
      2910   0              0              0              0              0             -0.069772784  
      2911   0              0              0              0              0             -0.068287752  
      2912   0              0              0              0              0             -0.066845709  
      2913   0              0              0              0              0             -0.065450786  
      2914   0              0              0              0              0             -0.064106746  
      2915   0              0              0              0              0             -0.062817053  
      2916   0              0              0              0              0             -0.061584892  
      2917   0              0              0              0              0             -0.060413166  
      2918   0              0              0              0              0             -0.059304487  
      2919   0              0              0              0              0             -0.058261161  
      2920   0              0              0              0              0             -0.057285202  
      2921   0              0              0              0              0             -0.056378351  
      2922   0              0              0              0              0             -0.055542117  
      2923   0              0              0              0              0             -0.054777812  
      2924   0              0              0              0              0             -0.054086589  
      2925   0              0              0              0              0             -0.05346946   
      2926   0              0              0              0              0             -0.052927289  
      2927   0              0              0              0              0             -0.05246076   
      2928   0              0              0              0              0             -0.052070326  
      2929   0              0              0              0              0             -0.051756152  
      2930   0              0              0              0              0             -0.051518074  
      2931   0              0              0              0              0             -0.051355558  
      2932   0              0              0              0              0             -0.051267682  
      2933   0              0              0              0              0             -0.051253128  
      2934   0              0              0              0              0             -0.051310197  
      2935   0              0              0              0              0             -0.051436831  
      2936   0              0              0              0              0             -0.051630647  
      2937   0              0              0              0              0             -0.051888971  
      2938   0              0              0              0              0             -0.052208872  
      2939   0              0              0              0              0             -0.052587181  
      2940   0              0              0              0              0             -0.053020496  
      2941   0              0              0              0              0             -0.053505181  
      2942   0              0              0              0              0             -0.054037352  
      2943   0              0              0              0              0             -0.054612874  
      2944   0              0              0              0              0             -0.055227362  
      2945   0              0              0              0              0             -0.055876197  
      2946   0              0              0              0              0             -0.056554544  
      2947   0              0              0              0              0             -0.057257376  
      2948   0              0              0              0              0             -0.057979508  
      2949   0              0              0              0              0             -0.058715629  
      2950   0              0              0              0              0             -0.059460354  
      2951   0              0              0              0              0             -0.060208281  
      2952   0              0              0              0              0             -0.060954069  
      2953   0              0              0              0              0             -0.06169252   
      2954   0              0              0              0              0             -0.062418681  
      2955   0              0              0              0              0             -0.063127948  
      2956   0              0              0              0              0             -0.063816158  
      2957   0              0              0              0              0             -0.064479681  
      2958   0              0              0              0              0             -0.065115484  
      2959   0              0              0              0              0             -0.065721174  
      2960   0              0              0              0              0             -0.066294991  
      2961   0              0              0              0              0             -0.066835775  
      2962   0              0              0              0              0             -0.067342874  
      2963   0              0              0              0              0             -0.067816027  
      2964   0              0              0              0              0             -0.068255225  
      2965   0              0              0              0              0             -0.068660572  
      2966   0              0              0              0              0             -0.06903219   
      2967   0              0              0              0              0             -0.06937017   
      2968   0              0              0              0              0             -0.069674585  
      2969   0              0              0              0              0             -0.069945572  
      2970   0              0              0              0              0             -0.070183429  
      2971   0              0              0              0              0             -0.070388739  
      2972   0              0              0              0              0             -0.070562462  
      2973   0              0              0              0              0             -0.070706015  
      2974   0              0              0              0              0             -0.070821321  
      2975   0              0              0              0              0             -0.070910827  
      2976   0              0              0              0              0             -0.0709775    
      2977   0              0              0              0              0             -0.071024787  
      2978   0              0              0              0              0             -0.071056554  
      2979   0              0              0              0              0             -0.071077001  
      2980   0              0              0              0              0             -0.071090563  
      2981   0              0              0              0              0             -0.071101802  
      2982   0              0              0              0              0             -0.071115297  
      2983   0              0              0              0              0             -0.071135529  
      2984   0              0              0              0              0             -0.071166784  
      2985   0              0              0              0              0             -0.07121305   
      2986   0              0              0              0              0             -0.071277942  
      2987   0              0              0              0              0             -0.071364629  
      2988   0              0              0              0              0             -0.071475776  
      2989   0              0              0              0              0             -0.071613506  
      2990   0              0              0              0              0             -0.071779371  
      2991   0              0              0              0              0             -0.071974335  
      2992   0              0              0              0              0             -0.072198767  
      2993   0              0              0              0              0             -0.072452452  
      2994   0              0              0              0              0             -0.072734599  
      2995   0              0              0              0              0             -0.073043868  
      2996   0              0              0              0              0             -0.073378392  
      2997   0              0              0              0              0             -0.073735814  
      2998   0              0              0              0              0             -0.07411333   
      2999   0              0              0              0              0             -0.074507732  
      3000   0              0              0              0              0             -0.074915458  
Loop time of 9.75381 on 1 procs for 3001 steps with 12 atoms

Total wall time: 0:00:09
