(written by ASE)

4861 atoms
2 atom types

0.0      48.302314085994816  xlo xhi
0.0      50.197237398508086  ylo yhi
0.0      45.139087810335219  zlo zhi

Masses

     1      178.48999995408445 # Hf
     2      15.998999995884349 # O

Atoms # atomic

     1   1      3.2062694385712094        1.83510772546741      1.2686572697129099
     2   1      1.5961923276286101     0.90552923996633594      3.7763843702870901
     3   1      48.288429277423603        3.69426465099456      3.7763843702870901
     4   1        1.59619230237139      4.6238431364956298      1.2686572697129099
     5   1      3.2062694385712094        1.83510772546741      6.2841114708612666
     6   1      1.5961923276286101     0.90552923996633594      8.7918385714354486
     7   1      48.288429277423603        3.69426465099456      8.7918385714354486
     8   1        1.59619230237139      4.6238431364956298      6.2841114708612666
     9   1      3.2062694385712094        1.83510772546741      11.299565672009622
    10   1      1.5961923276286101     0.90552923996633594      13.807292772583805
    11   1      48.288429277423603        3.69426465099456      13.807292772583805
    12   1        1.59619230237139      4.6238431364956298      11.299565672009622
    13   1      3.2062694385712094        1.83510772546741      16.315019873157983
    14   1      1.5961923276286101     0.90552923996633594      18.822746973732162
    15   1      48.288429277423603        3.69426465099456      18.822746973732162
    16   1        1.59619230237139      4.6238431364956298      16.315019873157983
    17   1      3.2062694385712094        1.83510772546741      21.330474074306341
    18   1      1.5961923276286101     0.90552923996633594       23.83820117488052
    19   1      48.288429277423603        3.69426465099456       23.83820117488052
    20   1        1.59619230237139      4.6238431364956298      21.330474074306341
    21   1      3.2062694385712094        1.83510772546741        26.3459282754547
    22   1      1.5961923276286101     0.90552923996633594      28.853655376028879
    23   1      48.288429277423603        3.69426465099456      28.853655376028879
    24   1        1.59619230237139      4.6238431364956298        26.3459282754547
    25   1      3.2062694385712094        1.83510772546741      31.361382476603055
    26   1      1.5961923276286101     0.90552923996633594      33.869109577177234
    27   1      48.288429277423603        3.69426465099456      33.869109577177234
    28   1        1.59619230237139      4.6238431364956298      31.361382476603055
    29   1      3.2062694385712094        1.83510772546741      36.376836677751413
    30   1      1.5961923276286101     0.90552923996633594      38.884563778325592
    31   1      48.288429277423603        3.69426465099456      38.884563778325592
    32   1        1.59619230237139      4.6238431364956298      36.376836677751413
    33   1      3.2062694385712094        1.83510772546741      41.392290878899772
    34   1      1.5961923276286101     0.90552923996633594      43.900017979473951
    35   1      48.288429277423603        3.69426465099456      43.900017979473951
    36   1        1.59619230237139      4.6238431364956298      41.392290878899772
    37   1      3.2062694385712094      7.4125785475238644      1.2686572697129099
    38   1      1.5961923276286101      6.4830000620227901      3.7763843702870901
    39   1      48.288429277423603      9.2717354730510131      3.7763843702870901
    40   1        1.59619230237139      10.201313958552085      1.2686572697129099
    41   1      3.2062694385712094      7.4125785475238644      6.2841114708612666
    42   1      1.5961923276286101      6.4830000620227901      8.7918385714354486
    43   1      48.288429277423603      9.2717354730510131      8.7918385714354486
    44   1        1.59619230237139      10.201313958552085      6.2841114708612666
    45   1      3.2062694385712094      7.4125785475238644      11.299565672009622
    46   1      1.5961923276286101      6.4830000620227901      13.807292772583805
    47   1      48.288429277423603      9.2717354730510131      13.807292772583805
    48   1        1.59619230237139      10.201313958552085      11.299565672009622
    49   1      3.2062694385712094      7.4125785475238644      16.315019873157983
    50   1      1.5961923276286101      6.4830000620227901      18.822746973732162
    51   1      48.288429277423603      9.2717354730510131      18.822746973732162
    52   1        1.59619230237139      10.201313958552085      16.315019873157983
    53   1      3.2062694385712094      7.4125785475238644      21.330474074306341
    54   1      1.5961923276286101      6.4830000620227901       23.83820117488052
    55   1      48.288429277423603      9.2717354730510131       23.83820117488052
    56   1        1.59619230237139      10.201313958552085      21.330474074306341
    57   1      3.2062694385712094      7.4125785475238644        26.3459282754547
    58   1      1.5961923276286101      6.4830000620227901      28.853655376028879
    59   1      48.288429277423603      9.2717354730510131      28.853655376028879
    60   1        1.59619230237139      10.201313958552085        26.3459282754547
    61   1      3.2062694385712094      7.4125785475238644      31.361382476603055
    62   1      1.5961923276286101      6.4830000620227901      33.869109577177234
    63   1      48.288429277423603      9.2717354730510131      33.869109577177234
    64   1        1.59619230237139      10.201313958552085      31.361382476603055
    65   1      3.2062694385712094      7.4125785475238644      36.376836677751413
    66   1      1.5961923276286101      6.4830000620227901      38.884563778325592
    67   1      48.288429277423603      9.2717354730510131      38.884563778325592
    68   1        1.59619230237139      10.201313958552085      36.376836677751413
    69   1      3.2062694385712094      7.4125785475238644      41.392290878899772
    70   1      1.5961923276286101      6.4830000620227901      43.900017979473951
    71   1      48.288429277423603      9.2717354730510131      43.900017979473951
    72   1        1.59619230237139      10.201313958552085      41.392290878899772
    73   1      3.2062694385712094      12.990049369580317      1.2686572697129099
    74   1      1.5961923276286101      12.060470884079244      3.7763843702870901
    75   1      48.288429277423603      14.849206295107466      3.7763843702870901
    76   1        1.59619230237139      15.778784780608538      1.2686572697129099
    77   1      3.2062694385712094      12.990049369580317      6.2841114708612666
    78   1      1.5961923276286101      12.060470884079244      8.7918385714354486
    79   1      48.288429277423603      14.849206295107466      8.7918385714354486
    80   1        1.59619230237139      15.778784780608538      6.2841114708612666
    81   1      3.2062694385712094      12.990049369580317      11.299565672009622
    82   1      1.5961923276286101      12.060470884079244      13.807292772583805
    83   1      48.288429277423603      14.849206295107466      13.807292772583805
    84   1        1.59619230237139      15.778784780608538      11.299565672009622
    85   1      3.2062694385712094      12.990049369580317      16.315019873157983
    86   1      1.5961923276286101      12.060470884079244      18.822746973732162
    87   1      48.288429277423603      14.849206295107466      18.822746973732162
    88   1        1.59619230237139      15.778784780608538      16.315019873157983
    89   1      3.2062694385712094      12.990049369580317      21.330474074306341
    90   1      1.5961923276286101      12.060470884079244       23.83820117488052
    91   1      48.288429277423603      14.849206295107466       23.83820117488052
    92   1        1.59619230237139      15.778784780608538      21.330474074306341
    93   1      3.2062694385712094      12.990049369580317        26.3459282754547
    94   1      1.5961923276286101      12.060470884079244      28.853655376028879
    95   1      48.288429277423603      14.849206295107466      28.853655376028879
    96   1        1.59619230237139      15.778784780608538        26.3459282754547
    97   1      3.2062694385712094      12.990049369580317      31.361382476603055
    98   1      1.5961923276286101      12.060470884079244      33.869109577177234
    99   1      48.288429277423603      14.849206295107466      33.869109577177234
   100   1        1.59619230237139      15.778784780608538      31.361382476603055
   101   1      3.2062694385712094      12.990049369580317      36.376836677751413
   102   1      1.5961923276286101      12.060470884079244      38.884563778325592
   103   1      48.288429277423603      14.849206295107466      38.884563778325592
   104   1        1.59619230237139      15.778784780608538      36.376836677751413
   105   1      3.2062694385712094      12.990049369580317      41.392290878899772
   106   1      1.5961923276286101      12.060470884079244      43.900017979473951
   107   1      48.288429277423603      14.849206295107466      43.900017979473951
   108   1        1.59619230237139      15.778784780608538      41.392290878899772
   109   1      3.2062694385712094       18.56752019163677      1.2686572697129099
   110   1      1.5961923276286101      17.637941706135695      3.7763843702870901
   111   1      48.288429277423603      20.426677117163919      3.7763843702870901
   112   1        1.59619230237139      21.356255602664987      1.2686572697129099
   113   1      3.2062694385712094       18.56752019163677      6.2841114708612666
   114   1      1.5961923276286101      17.637941706135695      8.7918385714354486
   115   1      48.288429277423603      20.426677117163919      8.7918385714354486
   116   1        1.59619230237139      21.356255602664987      6.2841114708612666
   117   1      3.2062694385712094       18.56752019163677      11.299565672009622
   118   1      1.5961923276286101      17.637941706135695      13.807292772583805
   119   1      48.288429277423603      20.426677117163919      13.807292772583805
   120   1        1.59619230237139      21.356255602664987      11.299565672009622
   121   1      3.2062694385712094       18.56752019163677      16.315019873157983
   122   1      1.5961923276286101      17.637941706135695      18.822746973732162
   123   1      48.288429277423603      20.426677117163919      18.822746973732162
   124   1        1.59619230237139      21.356255602664987      16.315019873157983
   125   1      3.2062694385712094       18.56752019163677      21.330474074306341
   126   1      1.5961923276286101      17.637941706135695       23.83820117488052
   127   1      48.288429277423603      20.426677117163919       23.83820117488052
   128   1        1.59619230237139      21.356255602664987      21.330474074306341
   129   1      3.2062694385712094       18.56752019163677        26.3459282754547
   130   1      1.5961923276286101      17.637941706135695      28.853655376028879
   131   1      48.288429277423603      20.426677117163919      28.853655376028879
   132   1        1.59619230237139      21.356255602664987        26.3459282754547
   133   1      3.2062694385712094       18.56752019163677      31.361382476603055
   134   1      1.5961923276286101      17.637941706135695      33.869109577177234
   135   1      48.288429277423603      20.426677117163919      33.869109577177234
   136   1        1.59619230237139      21.356255602664987      31.361382476603055
   137   1      3.2062694385712094       18.56752019163677      36.376836677751413
   138   1      1.5961923276286101      17.637941706135695      38.884563778325592
   139   1      48.288429277423603      20.426677117163919      38.884563778325592
   140   1        1.59619230237139      21.356255602664987      36.376836677751413
   141   1      3.2062694385712094       18.56752019163677      41.392290878899772
   142   1      1.5961923276286101      17.637941706135695      43.900017979473951
   143   1      48.288429277423603      20.426677117163919      43.900017979473951
   144   1        1.59619230237139      21.356255602664987      41.392290878899772
   145   1      3.2062694385712094      24.144991013693222      1.2686572697129099
   146   1      1.5961923276286101       23.21541252819215      3.7763843702870901
   147   1      48.288429277423603      26.004147939220374      3.7763843702870901
   148   1        1.59619230237139      26.933726424721442      1.2686572697129099
   149   1      3.2062694385712094      24.144991013693222      6.2841114708612666
   150   1      1.5961923276286101       23.21541252819215      8.7918385714354486
   151   1      48.288429277423603      26.004147939220374      8.7918385714354486
   152   1        1.59619230237139      26.933726424721442      6.2841114708612666
   153   1      3.2062694385712094      24.144991013693222      11.299565672009622
   154   1      1.5961923276286101       23.21541252819215      13.807292772583805
   155   1      48.288429277423603      26.004147939220374      13.807292772583805
   156   1        1.59619230237139      26.933726424721442      11.299565672009622
   157   1      3.2062694385712094      24.144991013693222      16.315019873157983
   158   1      1.5961923276286101       23.21541252819215      18.822746973732162
   159   1      48.288429277423603      26.004147939220374      18.822746973732162
   160   1        1.59619230237139      26.933726424721442      16.315019873157983
   161   1      3.2062694385712094      24.144991013693222      21.330474074306341
   162   1      1.5961923276286101       23.21541252819215       23.83820117488052
   163   1      48.288429277423603      26.004147939220374       23.83820117488052
   164   1        1.59619230237139      26.933726424721442      21.330474074306341
   165   1      3.2062694385712094      24.144991013693222        26.3459282754547
   166   1      1.5961923276286101       23.21541252819215      28.853655376028879
   167   1      48.288429277423603      26.004147939220374      28.853655376028879
   168   1        1.59619230237139      26.933726424721442        26.3459282754547
   169   1      3.2062694385712094      24.144991013693222      31.361382476603055
   170   1      1.5961923276286101       23.21541252819215      33.869109577177234
   171   1      48.288429277423603      26.004147939220374      33.869109577177234
   172   1        1.59619230237139      26.933726424721442      31.361382476603055
   173   1      3.2062694385712094      24.144991013693222      36.376836677751413
   174   1      1.5961923276286101       23.21541252819215      38.884563778325592
   175   1      48.288429277423603      26.004147939220374      38.884563778325592
   176   1        1.59619230237139      26.933726424721442      36.376836677751413
   177   1      3.2062694385712094      24.144991013693222      41.392290878899772
   178   1      1.5961923276286101       23.21541252819215      43.900017979473951
   179   1      48.288429277423603      26.004147939220374      43.900017979473951
   180   1        1.59619230237139      26.933726424721442      41.392290878899772
   181   1      3.2062694385712094      29.722461835749677      1.2686572697129099
   182   1      1.5961923276286101      28.792883350248601      3.7763843702870901
   183   1      48.288429277423603      31.581618761276825      3.7763843702870901
   184   1        1.59619230237139      32.511197246777897      1.2686572697129099
   185   1      3.2062694385712094      29.722461835749677      6.2841114708612666
   186   1      1.5961923276286101      28.792883350248601      8.7918385714354486
   187   1      48.288429277423603      31.581618761276825      8.7918385714354486
   188   1        1.59619230237139      32.511197246777897      6.2841114708612666
   189   1      3.2062694385712094      29.722461835749677      11.299565672009622
   190   1      1.5961923276286101      28.792883350248601      13.807292772583805
   191   1      48.288429277423603      31.581618761276825      13.807292772583805
   192   1        1.59619230237139      32.511197246777897      11.299565672009622
   193   1      3.2062694385712094      29.722461835749677      16.315019873157983
   194   1      1.5961923276286101      28.792883350248601      18.822746973732162
   195   1      48.288429277423603      31.581618761276825      18.822746973732162
   196   1        1.59619230237139      32.511197246777897      16.315019873157983
   197   1      3.2062694385712094      29.722461835749677      21.330474074306341
   198   1      1.5961923276286101      28.792883350248601       23.83820117488052
   199   1      48.288429277423603      31.581618761276825       23.83820117488052
   200   1        1.59619230237139      32.511197246777897      21.330474074306341
   201   1      3.2062694385712094      29.722461835749677        26.3459282754547
   202   1      1.5961923276286101      28.792883350248601      28.853655376028879
   203   1      48.288429277423603      31.581618761276825      28.853655376028879
   204   1        1.59619230237139      32.511197246777897        26.3459282754547
   205   1      3.2062694385712094      29.722461835749677      31.361382476603055
   206   1      1.5961923276286101      28.792883350248601      33.869109577177234
   207   1      48.288429277423603      31.581618761276825      33.869109577177234
   208   1        1.59619230237139      32.511197246777897      31.361382476603055
   209   1      3.2062694385712094      29.722461835749677      36.376836677751413
   210   1      1.5961923276286101      28.792883350248601      38.884563778325592
   211   1      48.288429277423603      31.581618761276825      38.884563778325592
   212   1        1.59619230237139      32.511197246777897      36.376836677751413
   213   1      3.2062694385712094      29.722461835749677      41.392290878899772
   214   1      1.5961923276286101      28.792883350248601      43.900017979473951
   215   1      48.288429277423603      31.581618761276825      43.900017979473951
   216   1        1.59619230237139      32.511197246777897      41.392290878899772
   217   1      3.2062694385712094      35.299932657806124      1.2686572697129099
   218   1      1.5961923276286101      34.370354172305056      3.7763843702870901
   219   1      48.288429277423603      37.159089583333284      3.7763843702870901
   220   1        1.59619230237139      38.088668068834352      1.2686572697129099
   221   1      3.2062694385712094      35.299932657806124      6.2841114708612666
   222   1      1.5961923276286101      34.370354172305056      8.7918385714354486
   223   1      48.288429277423603      37.159089583333284      8.7918385714354486
   224   1        1.59619230237139      38.088668068834352      6.2841114708612666
   225   1      3.2062694385712094      35.299932657806124      11.299565672009622
   226   1      1.5961923276286101      34.370354172305056      13.807292772583805
   227   1      48.288429277423603      37.159089583333284      13.807292772583805
   228   1        1.59619230237139      38.088668068834352      11.299565672009622
   229   1      3.2062694385712094      35.299932657806124      16.315019873157983
   230   1      1.5961923276286101      34.370354172305056      18.822746973732162
   231   1      48.288429277423603      37.159089583333284      18.822746973732162
   232   1        1.59619230237139      38.088668068834352      16.315019873157983
   233   1      3.2062694385712094      35.299932657806124      21.330474074306341
   234   1      1.5961923276286101      34.370354172305056       23.83820117488052
   235   1      48.288429277423603      37.159089583333284       23.83820117488052
   236   1        1.59619230237139      38.088668068834352      21.330474074306341
   237   1      3.2062694385712094      35.299932657806124        26.3459282754547
   238   1      1.5961923276286101      34.370354172305056      28.853655376028879
   239   1      48.288429277423603      37.159089583333284      28.853655376028879
   240   1        1.59619230237139      38.088668068834352        26.3459282754547
   241   1      3.2062694385712094      35.299932657806124      31.361382476603055
   242   1      1.5961923276286101      34.370354172305056      33.869109577177234
   243   1      48.288429277423603      37.159089583333284      33.869109577177234
   244   1        1.59619230237139      38.088668068834352      31.361382476603055
   245   1      3.2062694385712094      35.299932657806124      36.376836677751413
   246   1      1.5961923276286101      34.370354172305056      38.884563778325592
   247   1      48.288429277423603      37.159089583333284      38.884563778325592
   248   1        1.59619230237139      38.088668068834352      36.376836677751413
   249   1      3.2062694385712094      35.299932657806124      41.392290878899772
   250   1      1.5961923276286101      34.370354172305056      43.900017979473951
   251   1      48.288429277423603      37.159089583333284      43.900017979473951
   252   1        1.59619230237139      38.088668068834352      41.392290878899772
   253   1      3.2062694385712094      40.877403479862586      1.2686572697129099
   254   1      1.5961923276286101      39.947824994361511      3.7763843702870901
   255   1      48.288429277423603      42.736560405389739      3.7763843702870901
   256   1        1.59619230237139      43.666138890890807      1.2686572697129099
   257   1      3.2062694385712094      40.877403479862586      6.2841114708612666
   258   1      1.5961923276286101      39.947824994361511      8.7918385714354486
   259   1      48.288429277423603      42.736560405389739      8.7918385714354486
   260   1        1.59619230237139      43.666138890890807      6.2841114708612666
   261   1      3.2062694385712094      40.877403479862586      11.299565672009622
   262   1      1.5961923276286101      39.947824994361511      13.807292772583805
   263   1      48.288429277423603      42.736560405389739      13.807292772583805
   264   1        1.59619230237139      43.666138890890807      11.299565672009622
   265   1      3.2062694385712094      40.877403479862586      16.315019873157983
   266   1      1.5961923276286101      39.947824994361511      18.822746973732162
   267   1      48.288429277423603      42.736560405389739      18.822746973732162
   268   1        1.59619230237139      43.666138890890807      16.315019873157983
   269   1      3.2062694385712094      40.877403479862586      21.330474074306341
   270   1      1.5961923276286101      39.947824994361511       23.83820117488052
   271   1      48.288429277423603      42.736560405389739       23.83820117488052
   272   1        1.59619230237139      43.666138890890807      21.330474074306341
   273   1      3.2062694385712094      40.877403479862586        26.3459282754547
   274   1      1.5961923276286101      39.947824994361511      28.853655376028879
   275   1      48.288429277423603      42.736560405389739      28.853655376028879
   276   1        1.59619230237139      43.666138890890807        26.3459282754547
   277   1      3.2062694385712094      40.877403479862586      31.361382476603055
   278   1      1.5961923276286101      39.947824994361511      33.869109577177234
   279   1      48.288429277423603      42.736560405389739      33.869109577177234
   280   1        1.59619230237139      43.666138890890807      31.361382476603055
   281   1      3.2062694385712094      40.877403479862586      36.376836677751413
   282   1      1.5961923276286101      39.947824994361511      38.884563778325592
   283   1      48.288429277423603      42.736560405389739      38.884563778325592
   284   1        1.59619230237139      43.666138890890807      36.376836677751413
   285   1      3.2062694385712094      40.877403479862586      41.392290878899772
   286   1      1.5961923276286101      39.947824994361511      43.900017979473951
   287   1      48.288429277423603      42.736560405389739      43.900017979473951
   288   1        1.59619230237139      43.666138890890807      41.392290878899772
   289   1      3.2062694385712094      46.454874301919041      1.2686572697129099
   290   1      1.5961923276286101      45.525295816417966      3.7763843702870901
   291   1      48.288429277423603      48.314031227446186      3.7763843702870901
   292   1        1.59619230237139      49.243609712947254      1.2686572697129099
   293   1      3.2062694385712094      46.454874301919041      6.2841114708612666
   294   1      1.5961923276286101      45.525295816417966      8.7918385714354486
   295   1      48.288429277423603      48.314031227446186      8.7918385714354486
   296   1        1.59619230237139      49.243609712947254      6.2841114708612666
   297   1      3.2062694385712094      46.454874301919041      11.299565672009622
   298   1      1.5961923276286101      45.525295816417966      13.807292772583805
   299   1      48.288429277423603      48.314031227446186      13.807292772583805
   300   1        1.59619230237139      49.243609712947254      11.299565672009622
   301   1      3.2062694385712094      46.454874301919041      16.315019873157983
   302   1      1.5961923276286101      45.525295816417966      18.822746973732162
   303   1      48.288429277423603      48.314031227446186      18.822746973732162
   304   1        1.59619230237139      49.243609712947254      16.315019873157983
   305   1      3.2062694385712094      46.454874301919041      21.330474074306341
   306   1      1.5961923276286101      45.525295816417966       23.83820117488052
   307   1      48.288429277423603      48.314031227446186       23.83820117488052
   308   1        1.59619230237139      49.243609712947254      21.330474074306341
   309   1      3.2062694385712094      46.454874301919041        26.3459282754547
   310   1      1.5961923276286101      45.525295816417966      28.853655376028879
   311   1      48.288429277423603      48.314031227446186      28.853655376028879
   312   1        1.59619230237139      49.243609712947254        26.3459282754547
   313   1      3.2062694385712094      46.454874301919041      31.361382476603055
   314   1      1.5961923276286101      45.525295816417966      33.869109577177234
   315   1      48.288429277423603      48.314031227446186      33.869109577177234
   316   1        1.59619230237139      49.243609712947254      31.361382476603055
   317   1      3.2062694385712094      46.454874301919041      36.376836677751413
   318   1      1.5961923276286101      45.525295816417966      38.884563778325592
   319   1      48.288429277423603      48.314031227446186      38.884563778325592
   320   1        1.59619230237139      49.243609712947254      36.376836677751413
   321   1      3.2062694385712094      46.454874301919041      41.392290878899772
   322   1      1.5961923276286101      45.525295816417966      43.900017979473951
   323   1      48.288429277423603      48.314031227446186      43.900017979473951
   324   1        1.59619230237139      49.243609712947254      41.392290878899772
   325   1      6.4264237109708633        1.83510772546741      1.2686572697129099
   326   1      4.8163466000282638     0.90552923996633594      3.7763843702870901
   327   1      3.2062694638284412        3.69426465099456      3.7763843702870901
   328   1      4.8163465747710443      4.6238431364956298      1.2686572697129099
   329   1      6.4264237109708633        1.83510772546741      6.2841114708612666
   330   1      4.8163466000282638     0.90552923996633594      8.7918385714354486
   331   1      3.2062694638284412        3.69426465099456      8.7918385714354486
   332   1      4.8163465747710443      4.6238431364956298      6.2841114708612666
   333   1      6.4264237109708633        1.83510772546741      11.299565672009622
   334   1      4.8163466000282638     0.90552923996633594      13.807292772583805
   335   1      3.2062694638284412        3.69426465099456      13.807292772583805
   336   1      4.8163465747710443      4.6238431364956298      11.299565672009622
   337   1      6.4264237109708633        1.83510772546741      16.315019873157983
   338   1      4.8163466000282638     0.90552923996633594      18.822746973732162
   339   1      3.2062694638284412        3.69426465099456      18.822746973732162
   340   1      4.8163465747710443      4.6238431364956298      16.315019873157983
   341   1      6.4264237109708633        1.83510772546741      21.330474074306341
   342   1      4.8163466000282638     0.90552923996633594       23.83820117488052
   343   1      3.2062694638284412        3.69426465099456       23.83820117488052
   344   1      4.8163465747710443      4.6238431364956298      21.330474074306341
   345   1      6.4264237109708633        1.83510772546741        26.3459282754547
   346   1      4.8163466000282638     0.90552923996633594      28.853655376028879
   347   1      3.2062694638284412        3.69426465099456      28.853655376028879
   348   1      4.8163465747710443      4.6238431364956298        26.3459282754547
   349   1      6.4264237109708633        1.83510772546741      31.361382476603055
   350   1      4.8163466000282638     0.90552923996633594      33.869109577177234
   351   1      3.2062694638284412        3.69426465099456      33.869109577177234
   352   1      4.8163465747710443      4.6238431364956298      31.361382476603055
   353   1      6.4264237109708633        1.83510772546741      36.376836677751413
   354   1      4.8163466000282638     0.90552923996633594      38.884563778325592
   355   1      3.2062694638284412        3.69426465099456      38.884563778325592
   356   1      4.8163465747710443      4.6238431364956298      36.376836677751413
   357   1      6.4264237109708633        1.83510772546741      41.392290878899772
   358   1      4.8163466000282638     0.90552923996633594      43.900017979473951