ITEM: TIMESTEP
9
ITEM: NUMBER OF ATOMS
4
ITEM: BOX BOUNDS pp pp pp
-1.3884821199827140e-02 3.2062694511998271e+00
-2.4049222797241167e-02 5.5534215992592131e+00
1.4793719425821418e-02 5.0302479205741788e+00
ITEM: ATOMS id type x y z
1 1     3.20626943857121     1.83510772546741     1.26865726971291
2 1     1.59619232762861    0.905529239966336     3.77638437028709
3 1  -0.0138848085712131     3.69426465099456     3.77638437028709
4 1     1.59619230237139     4.62384313649563     1.26865726971291
