ITEM: TIMESTEP
0
ITEM: NUMBER OF ATOMS
97
ITEM: BOX BOUNDS xy xz yz pp pp pp
-6.4403077717034334e+00 1.2880619210125166e+01 -6.4403077717034334e+00
0.0000000000000000e+00 1.1154943116692575e+01 0.0000000000000000e+00
0.0000000000000000e+00 1.5046356078130312e+01 0.0000000000000000e+00
ITEM: ATOMS id type x y z
1 1     -6.3485530392723     11.0846972824578   0.0698876704036161
2 1   -0.088325961958484     1.77726265018379     2.59415601843513
3 1   0.0264299266894771   0.0222438922108399     5.00101819830817
4 1  -0.0175796173566707     1.90449043152763     7.61752310391022
5 1     6.42099958032953     11.0949491199794     9.93196436377398
6 1  -0.0738198552779274     1.79329616731391     12.4649547336001
7 1     11.2298890487935     2.82878920662821   0.0648931836931574
8 1     -1.5237735159166     4.59514084348817     2.52541907732686
9 1    -1.59236806824625     2.89115166162168     4.99942270068684
10 1    -1.67317969918954     4.70481325007152      7.6012619682058
11 1     11.1792635351903     2.73688721116399     10.0918763503728
12 1    -1.57592993506636     4.70492834036539     12.5224736153421
13 1     9.59062843706696     5.58731950430152     15.0137748790765
14 1    -3.15831678832471     7.35123756974256     2.59669355464164
15 1    -3.25754006330126     5.65878040714603     5.00996927580811
16 1     -3.2245697138816     7.45748605831479     7.62409293047209
17 1     9.61326713459563     5.59535459772628     10.0096876696421
18 1    -3.21968694914871     7.33549294900845     12.6065289332747
19 1     -4.7322618764761     8.31790779299866     15.0446857949822
20 1     -4.7753090003065     10.2930275795462     2.58709524043341
21 1    -4.78611913423934     8.33429980402207     4.99600233649297
22 1    -4.88694542713342     10.2160324226262      7.5400404730258
23 1     8.02433948180355     8.36347471208998     9.92949546670945
24 1    -4.92597029781133     10.1245557755622     12.5525296152276
25 1    -3.20230639031989     11.1036747686943   0.0316110105452823
26 1     3.30332871669061     1.77678387474832     2.55533604413603
27 1     3.26885230719797      0.0288709542173     4.99441012776202
28 1     3.13068428638778     1.80932889342359     7.44297067680705
29 1     3.19248655629849   0.0642852746558644     10.0999434151715
30 1     3.16296244030006     1.81565126482899     12.5962227618894
31 1     1.69860230057864     2.84261707817444     14.9492968450263
32 1     1.51176368309977     4.68650364738059     2.46281119924954
33 1     1.55908460665142     2.76295849468172     5.07134044426677
34 1     1.69320973981736     4.63067995469597     7.60205872222242
35 1     1.57069241013221     2.83536475174423     10.0636295632932
36 1     1.64851921272673     4.73747239106602     12.4457308977443
37 1   0.0913281994383791     5.49942507642081  0.00710831371988793
38 1   0.0306469027517213     7.34254050342199     2.51117978156844
39 1   0.0182004829069691      5.5954598279935     5.09662043387975
40 1  -0.0498491850608448     7.49334453270364       7.542519545215
41 1   0.0380831702358782     5.54922808619312     10.0013763612873
42 1   0.0172975323785232     7.49763880428108     12.5061887738524
43 1    -1.64413871550838     8.42373393929724   0.0265359382139155
44 1    -1.54559319871378     10.3005019328455     2.44714918572855
45 1    -1.65632562153564     8.28196466577774     4.96963072956217
46 1    -1.59423181994375      10.222160903472     7.61587750635565
47 1    -1.59701065473443     8.29670233055812     10.0544842653576
48 1    -1.62285283858991     10.2118309475972     12.6067468160689
49 1  0.00317909013825565     11.1294063477029    0.068929005831575
50 1     6.50649498908636     1.82065497833026     2.53792312990102
51 1     6.40778587239158   0.0674315728694416     4.99380895366612
52 1     6.38117161521768     1.93435702604408     7.46232605078415
53 1   0.0181540762414839     11.0559680029473      10.107509653656
54 1     6.54129839706555     1.87679985223836      12.598274707942
55 1     4.93162985995241      2.7082532899209    0.023667925870712
56 1     4.92748160075101     4.65616171038882     2.50905526305403
57 1     4.85233301683961     2.77296301722108     4.99949026618754
58 1     4.77250699622209     4.59961987392489     7.61839051731012
59 1     4.89295264355734     2.84644568781204     10.0372998105477
60 1     4.91976092405285     4.60387896195754     12.5809996962146
61 1     3.12758539591224     5.58592456594537  0.00487558657059591
62 1     3.17273403254212      7.3649544639499     2.42803260361303
63 1     3.30597057178943     5.52170347597539     5.07175007239218
64 1     3.23438695617639     7.49393812605345     7.51210063632295
65 1     3.13481482519438     5.51921258415645     9.92778584844974
66 1     3.19200645601257     7.36559056662633      12.573321010076
67 1     1.60385901649175     8.43239774099176   0.0609740749470884
68 1     1.58334812382067     10.1634286965526     2.45761922460008
69 1     1.59001568382605      8.3602245477495      5.0621543756205
70 1     1.65522137524125     10.3162929865151     7.59627758163627
71 1     1.54625914356011     8.33948049276384     10.0413814148103
72 1      1.5380742160866     10.2370332944561     12.5094243652368
73 1     9.71620118191895  0.00329482724596084   0.0364873568250251
74 1     9.65562424434299     1.93718512617569     2.45283688153002
75 1     3.12128577701509        11.1274204967      5.1015676173724
76 1     9.62369083357838     1.77581779416848     7.49768851653401
77 1     9.56109513875419   0.0790244533078591     9.94318496631907
78 1     9.74680561795949     1.88864104798923     12.6179922091586
79 1     8.12922829636684      2.8772346846179   0.0917535068009655
80 1      8.0691896617701     4.65856530581271     2.46996774102576
81 1     8.07469115318099      2.8598254542186     4.96404625174847
82 1     7.99633581835951     4.58014447469772     7.47696652520114
83 1      8.1326182877144     2.83796434455057     9.98871356805571
84 1     8.09100858947102     4.56420314139441     12.5692720551598
85 1     6.49540397021392     5.59397818558677    0.074118364193837
86 1     6.52160437923808     7.51370282621891      2.5468725334161
87 1     6.40873965819277     5.52805034453766     5.02303472179336
88 1     6.50218309019869     7.44947722074487     7.61126299150281
89 1     6.42577311210216     5.55834598952082     9.99872909958373
90 1     6.47567051527274     7.47357732291589     12.5794262973553
91 1     4.81182994204632     8.31578128768089   0.0554832471181038
92 1     4.79306334259264     10.1842508767211     2.61158470943383
93 1     4.75059927643779     8.29912930018239     5.03650805664262
94 1     4.73436326200089     10.2055094939061     7.54158321350664
95 1     4.89285266807586     8.44904716121532     10.1025388299395
96 1     4.80907244152784     10.2388690361264     12.6262489050225
97 2     1.70533704380965    0.967675803228548     1.34673586327163
ITEM: TIMESTEP
1
ITEM: NUMBER OF ATOMS
97
ITEM: BOX BOUNDS xy xz yz pp pp pp
-6.4403077717034334e+00 1.2880619210125166e+01 -6.4403077717034334e+00
0.0000000000000000e+00 1.1154943116692575e+01 0.0000000000000000e+00
0.0000000000000000e+00 1.5046356078130312e+01 0.0000000000000000e+00
ITEM: ATOMS id type x y z
1 1    -6.35010433533851     11.0857144788888   0.0689829848199164
2 1  -0.0855398988561167     1.77880732835202     2.59141524723643
3 1   0.0249425003870936   0.0215324146985234     5.00374542006708
4 1  -0.0184343058058654     1.90453165132494     7.61544840758668
5 1     6.42061639197028      11.096403389652     9.93487617869393
6 1   -0.071988231197196     1.79401948693732     12.4676817112723
7 1      11.232375069421     2.82821396191582   0.0629318123576446
8 1    -1.52575749878646     4.59677305366395     2.52517522238941
9 1    -1.59352636230326     2.88935614768074     5.00201399886069
10 1     -1.6726941865599     4.70334287681788     7.59960956483883
11 1      11.180526019233     2.73807002231054     10.0901747520728
12 1    -1.57586554552051     4.70359105194744      12.522941296335
13 1     9.59371841278682     5.58686168319925     15.0158183252341
14 1    -3.15907986257801     7.35285312801685     2.59289988183385
15 1    -3.25687990957664     5.65639343611156     5.01158192309942
16 1     -3.2243154883774     7.45756753550533     7.62061975116051
17 1     9.61305994579645     5.59478442408314     10.0111232349624
18 1    -3.21993406969683     7.33769092601584     12.6037469675514
19 1    -4.73394224644273     8.31900522051924 0.000384034230206648
20 1    -4.77494134161334     10.2901168436794     2.58703586454403
21 1    -4.78723696356906     8.33513510507575     4.99834511453406
22 1    -4.88541072787352     10.2164342541708     7.53829322079577
23 1     8.02578847664839      8.3639989937757     9.93449546670945
24 1    -4.92410274487529     10.1261255945237     12.5517825879472
25 1      -3.202687608936     11.1049518880713   0.0300892112404314
26 1     3.30221003299201     1.78055009390849     2.55490252361921
27 1     3.26839366827458   0.0270155186066096     4.99584683787858
28 1     3.13242474106442     1.81004465253925     7.44627287168607
29 1     3.19266819996771   0.0631277897587263      10.098790382598
30 1      3.1647985825921     1.81643829420391     12.5946992646609
31 1     1.69665831634777     2.84006028174344     14.9523807659337
32 1     1.51477703131483     4.68438498351765     2.46566864526365
33 1     1.55968143389281     2.76390058050019     5.06960685879753
34 1     1.69035816093951     4.63066713967212     7.59842575718434
35 1     1.57170778381331     2.83368292627437     10.0633625620152
36 1      1.6482046232358     4.73573134485571     12.4475210970328
37 1   0.0887821089057463     5.50145024472135  0.00514823599464774
38 1   0.0299766301854106     7.34404680484458     2.51122990933656
39 1   0.0184323556274977     5.59519458544539     5.09644612693519
40 1  -0.0489532923605745     7.49276511940276     7.54226252362016
41 1   0.0364815811295103     5.55010337556324     10.0016892861912
42 1   0.0169467488636969     7.49627419743006      12.508475092379
43 1    -1.64259471331868     8.42121461115134   0.0268655104166502
44 1     -1.5462888304706     10.2977077655817     2.45013775089428
45 1     -1.6547588931886     8.28470580020472     4.97160847029067
46 1    -1.59507367129392     10.2224575554748     7.61418017027295
47 1    -1.59810688619234     8.29776797511046     10.0555953369532
48 1    -1.62320540060012     10.2120199533763     12.6051704239182
49 1  0.00423694775923567     11.1305793743367   0.0663120626159898
50 1     6.50671090844406     1.82175139403526     2.53717346321101
51 1     6.40902848467847   0.0653658519618926     4.99528006959328
52 1     6.38201983054742     1.93211537533893      7.4642782613472
53 1   0.0164716405895168     11.0588535259555      10.106116908171
54 1     6.54060316532758     1.87557823578098     12.5971137183506
55 1     4.93067984350434     2.70950083858004    0.023942340877708
56 1     4.92532967734966     4.65596774526488        2.50852249933
57 1     4.85209633707659     2.77424225231734     5.00007880440559
58 1     4.77372459774957     4.60048556597894     7.61541620134783
59 1     4.89119111273677       2.843971134294     10.0384372926483
60 1     4.91766719205449     4.60495646212322     12.5807246716857
61 1     3.13027583487614     5.58495146360191  0.00427038386981669
62 1     3.17384215964315     7.36564988271333     2.43154627266847
63 1     3.30375929253438     5.52217572201253     5.07015148150877
64 1      3.2341322801775     7.49249428263504     7.51376022861066
65 1     3.13795847674916     5.52123801205671     9.93184533643908
66 1     3.19313848160028     7.36742499398846     12.5721827954848
67 1     1.60388472656656     8.43087736284205   0.0580787983301443
68 1     1.58439133470966     10.1642109381318     2.46078531859808
69 1     1.58979551269353     8.36043575141254     5.06104756020468
70 1     1.65177842783479      10.314027320043     7.59434030603655
71 1     1.54838207638037     8.33985552607448     10.0407439162634
72 1     1.54058542827385     10.2367295750983      12.511402978678
73 1     9.71557225205512  0.00359073469080544   0.0366636658339364
74 1     9.65600410984954     1.93473415274896     2.45617093753032
75 1     3.12254155173499     11.1283346311559     5.09810881137744
76 1      9.6246790516985     1.77914483729956     7.49695613492472
77 1     9.56329059540022   0.0773622825762029      9.9479762910627
78 1     9.74452442263474     1.88816052731462     12.6171335052009
79 1     8.12732881597635      2.8751575562072   0.0892188457128248
80 1     8.06948966582354     4.65955485587746     2.47210212826701
81 1     8.07463615025323     2.85850499108713     4.96474833804617
82 1     7.99752561438192     4.58177175590074     7.47760346766873
83 1     8.13052378736081      2.8367894300179     9.98961150193121
84 1     8.09060015915313     4.56580255143269     12.5681442748963
85 1     6.49427610621947     5.59426612979518    0.072289257004122
86 1     6.52035869885093     7.51238625974085     2.54642304560112
87 1     6.40928613710117     5.52941461571629      5.0235950143204
88 1     6.49983100727778     7.44872858290211     7.60777659459333
89 1     6.42600961830106     5.55913905215294     10.0007308215703
90 1     6.47507979596034     7.47137457687433     12.5788530323902
91 1     4.81268133959119     8.31652272293509   0.0549321200399355
92 1     4.79309997278727      10.184460151182     2.61019793142935
93 1     4.75224760638657     8.29965604916899      5.0362609369957
94 1     4.73661722933205     10.2057689096706      7.5405585165682
95 1      4.8905547010946     8.44722380724913     10.1019874796082
96 1     4.80844653937985     10.2382265441205       12.62458115811
97 2     1.70230000653917     0.96807920630867     1.34417217318459
ITEM: TIMESTEP
2
ITEM: NUMBER OF ATOMS
97
ITEM: BOX BOUNDS xy xz yz pp pp pp
-6.4403077717034334e+00 1.2880619210125166e+01 -6.4403077717034334e+00
0.0000000000000000e+00 1.1154943116692575e+01 0.0000000000000000e+00
0.0000000000000000e+00 1.5046356078130312e+01 0.0000000000000000e+00
ITEM: ATOMS id type x y z
1 1    -6.35171208790515     11.0867454503058   0.0680273465468383
2 1  -0.0826880869887511     1.78039760854522     2.58868054768548
3 1   0.0234188810692609   0.0208189476712243     5.00645811754496
4 1  -0.0192893555270558     1.90455164297089     7.61333126661694
5 1     6.42022824569255     11.0978838248337     9.93783517736729
6 1   -0.070118173424004     1.79477459194898     12.4704737835297
7 1     11.2348855537084      2.8276068734158   0.0609541047010514
8 1    -1.52777126449453     4.59842844026415     2.52494581470098
9 1    -1.59468794521849     2.88750741070476      5.0046038898011
10 1    -1.67218783110498     4.70184919615055      7.5979356597043
11 1     11.1818321020753     2.73928350541597      10.088458785559
12 1      -1.575816524639     4.70221790431697     12.5234077775616
13 1      9.5968668845595      5.5863972159383     15.0178564641567
14 1    -3.15986227885338     7.35452486761413     2.58913177547645
15 1    -3.25618005735234     5.65399944672287     5.01317617096709
16 1    -3.22407942754347     7.45764457963513     7.61713618213943
17 1     9.61287315821362     5.59420702665418     10.0125493308244
18 1    -3.22018820031671     7.33993851375972     12.6009686958088
19 1    -4.73566115035979      8.3201201380796  0.00242819820449636
20 1    -4.77457917847923     10.2872142403262     2.58693914126081
21 1    -4.78837455263116     8.33596189004234     5.00069441839246
22 1    -4.88385161046066     10.2168328946809     7.53659381579307
23 1     8.02724168833955      8.3645181251525     9.93949546670945
24 1    -4.92219268919465     10.1277379206572     12.5510564063354
25 1    -3.20307318408267     11.1062528540369   0.0285806176432421
26 1     3.30102674872739     1.78433732318471      2.5544519128754
27 1      3.2679204187865   0.0251559534119235     4.99730896667209
28 1     3.13420462914801     1.81080213084491      7.4496301620451
29 1     3.19284922684827   0.0619191889886486     10.0975949724857
30 1     3.16668438871392     1.81726030590195     12.5931601743601
31 1     1.69465945508762     2.83747209308266      14.955513851695
32 1     1.51783718624992     4.68225090361638     2.46853751437908
33 1     1.56030910877693     2.76483260356484     5.06784295689822
34 1     1.68748238635307     4.63067901709778     7.59481974044708
35 1     1.57274199102995     2.83199250438867     10.0630650057415
36 1       1.647866753883     4.73393205308964       12.44936207502
37 1   0.0862153952997168     5.50352438154528  0.00322350648690047
38 1   0.0293088347390472     7.34558022303687     2.51127945901385
39 1   0.0186394787074196     5.59492605158831     5.09622523612873
40 1   -0.048033564276962     7.49216381522297     7.54201585836869
41 1   0.0348670104027677     5.55099018686312     10.0020179274456
42 1   0.0165954232595307      7.4948786312861     12.5107715427665
43 1    -1.64102402480391     8.41865616835104   0.0271706260285848
44 1    -1.54699986890566     10.2948864227936     2.45313950408975
45 1    -1.65317645145961     8.28748468037519     4.97360403283841
46 1    -1.59594288479062     10.2227491434762     7.61243619845906
47 1    -1.59921428707015     8.29887588064112     10.0566937138317
48 1    -1.62354737835365      10.212200494026      12.603558772808
49 1  0.00531036100439649      11.131755840898   0.0637042535651614
50 1     6.50689946807202     1.82285662671358       2.536422116584
51 1     6.41027886306795   0.0632620181214627     4.99677664321309
52 1     6.38289811241253     1.92983265162359      7.4662822985265
53 1   0.0147820447315507     11.0617957920734     10.1046998375786
54 1     6.53985573606023     1.87434842352355     12.5959113376396
55 1     4.92969139092196     2.71079553382594   0.0241951304080275
56 1     4.92312950764674     4.65577201169953     2.50799031718543
57 1     4.85186021290805     2.77552468640944     5.00069758228323
58 1     4.77496412915911     4.60137680611806     7.61242700439936
59 1     4.88938746327204     2.84145937893724     10.0395759431271
60 1     4.91552771449054     4.60604738221019     12.5804307015839
61 1     3.13301421704442     5.58395589168058  0.00368508793127378
62 1     3.17497143216801     7.36636755296283     2.43509364746266
63 1     3.30149302419874     5.52267787152147     5.06851774927486
64 1     3.23386303303265     7.49101349837008     7.51542175851815
65 1     3.14114807470605     5.52327440970971     9.93592029594534
66 1     3.19429021652415     7.36929172643393     12.5710323915433
67 1     1.60393550291515     8.42931874697607   0.0551982723362492
68 1     1.58544864159782     10.1650101930326     2.46395105583256
69 1     1.58959354117184     8.36064405347266     5.05993742436117
70 1     1.64834526980059      10.311747337869     7.59239137484592
71 1     1.55053097374978     8.34025976706963     10.0401301227579
72 1     1.54313816227682     10.2364104750408     12.5133870269542
73 1     9.71491413513328  0.00389114312434811   0.0368512441635965
74 1     9.65640360871008     1.93224209309702     2.45951899332632
75 1     3.12385259056015     11.1292697100829      5.0946209757402
76 1      9.6256667836975     1.78247672764662     7.49626609566473
77 1     9.56552627013309   0.0756558006150329     9.95277584335689
78 1     9.74220073971124     1.88766176776759     12.6162289051886
79 1     8.12541821552157     2.87303692500153   0.0866767972934795
80 1     8.06978130753323     4.66053616617982     2.47424200539534
81 1     8.07455422964085     2.85715122346699     4.96549594642752
82 1     7.99872829776089     4.58343713880693     7.47828811514634
83 1     8.12837132878023     2.83556906047664     9.99052845568131
84 1     8.09016864932816     4.56745494882938      12.567015842889
85 1     6.49314245254837     5.59454236544359   0.0704278926348668
86 1     6.51906986537693     7.51103042025033     2.54598066589103
87 1     6.40984351217739     5.53080849843975     5.02414571862913
88 1      6.4974546155447     7.44798717453536     7.60430536007681
89 1      6.4262416087443     5.55993960820993     10.0027426158352
90 1     6.47447925590093     7.46914875334013     12.5782777841826
91 1     4.81354239603938     8.31728433188335   0.0543646990755347
92 1     4.79316587235077     10.1846832441979     2.60876726612154
93 1     4.75393458924889     8.30021453966005      5.0360233554734
94 1     4.73888351716477     10.2060442584013     7.53953469894811
95 1     4.88822463664836     8.44535391339583     10.1013887617271
96 1     4.80782301554776     10.2375710756672      12.622866492986
97 2     1.69924302688827    0.968425160494147     1.34158966676231
ITEM: TIMESTEP
3
ITEM: NUMBER OF ATOMS
97
ITEM: BOX BOUNDS xy xz yz pp pp pp
-6.4403077717034334e+00 1.2880619210125166e+01 -6.4403077717034334e+00
0.0000000000000000e+00 1.1154943116692575e+01 0.0000000000000000e+00
0.0000000000000000e+00 1.5046356078130312e+01 0.0000000000000000e+00
ITEM: ATOMS id type x y z
1 1    -6.35338093176414     11.0877905139294   0.0670166535923409
2 1  -0.0797689342566197     1.78203685062912     2.58595481568079
3 1   0.0218576700898036   0.0201030124099829     5.00915369317408
4 1  -0.0201438495206967     1.90454788257648     7.61116970671813
5 1     6.41983497068433      11.099392240991     9.94084451804286
6 1  -0.0682065924369944     1.79556386454142     12.4733336076711
7 1     11.2374212567015     2.82696614721155   0.0589594764446716
8 1    -1.52981638003234     4.60010809104652     2.52473198245961
9 1    -1.59585263505168     2.88560180548786     5.00719007692569
10 1    -1.67165862429186     4.70033145295581     7.59623926041542
11 1     11.1831852095629     2.74052958905059     10.0867283828235
12 1    -1.57578448888377      4.7008068197818     12.5238725398464
13 1     9.60007653886008     5.58592515709628     15.0198879720818
14 1    -3.16066546022398     7.35625680376224     2.58539136726365
15 1    -3.25543803570384     5.65159704190118     5.01475077000186
16 1    -3.22386207961472     7.45771603298453     7.61364234754892
17 1     9.61270898227508     5.59362180686464     10.0139649922894
18 1    -3.22044869311319     7.34223863225426     12.5981963015995
19 1    -4.73742140580358     8.32125329839118  0.00446004761329857
20 1    -4.77422474685007     10.2843195736982      2.5868036833081
21 1    -4.78953370096388     8.33677972221093     5.00304936589261
22 1    -4.88226706791892     10.2172289192412     7.53494656262839
23 1     8.02869831874554     8.36503204621713     9.94449546670945
24 1    -4.92023717922541     10.1293965669285     12.5503534642215
25 1    -3.20346265291461     11.1075787597254   0.0270851776077317
26 1     3.29977644790746     1.78814621548603     2.55398478850799
27 1     3.26743108675384   0.0232934012556092     4.99879749057922
28 1     3.13602666875911     1.81160440770624      7.4530447101755
29 1     3.19302944797732   0.0606555988700954     10.0963546873303
30 1      3.1686225886804     1.81811916173613     12.5916054697709
31 1     1.69260306997908     2.83485380958867     14.9586955015908
32 1     1.52094713946573     4.68010100036361      2.4714175364171
33 1     1.56096992096195     2.76575330351653     5.06604846060006
34 1     1.68458030761729     4.63071650957593     7.59124159759814
35 1     1.57379533565386     2.83029271220921     10.0627356232881
36 1      1.6475036368167     4.73207062420075     12.4512569707476
37 1   0.0836265101815579     5.50565031615374  0.00133753919984536
38 1   0.0286435804912893     7.34714343744986     2.51132907227176
39 1   0.0188193669669219      5.5946539795836     5.09595339051119
40 1  -0.0470884485537735     7.49153852163853     7.54178059613455
41 1   0.0332387457728189     5.55188944567267      10.002364174292
42 1   0.0162431944545269     7.49344998052476      12.513076522829
43 1    -1.63942513382766     8.41605727017384   0.0274491626196605
44 1    -1.54772707579138      10.292036222179     2.45615476564269
45 1    -1.65157633835908     8.29030358375314     4.97561901819954
46 1    -1.59684110291086     10.2230352190102     7.61064310004562
47 1    -1.60033257167184     8.30002929326039     10.0577771119871
48 1    -1.62387728180649      10.212372178475     12.6019101905191
49 1  0.00639968774855582     11.1329356622381   0.0611061439058252
50 1     6.50705768678981     1.82397113831908     2.53566958447365
51 1     6.41153696847074   0.0611183841866525     4.99829947790786
52 1     6.38380854780481     1.92750675203879     7.46834109135954
53 1   0.0130852457333711     11.0647975529084     10.1032563274854
54 1     6.53905138737407     1.87311054001909     12.5946650068773
55 1      4.9286615964173     2.71214078809874   0.0244242981876196
56 1     4.92087873014745     4.65557475749495     2.50745935482754
57 1     4.85162457129674     2.77680992243331     5.00134842755356
58 1     4.77622727670791     4.60229516555368     7.60942222211612
59 1     4.88753937616063     2.83890926792088     10.0407152710608
60 1      4.9133400833353     4.60715214343915     12.5801161931727
61 1     3.13580394869886      5.5829368598423  0.00312142363116035
62 1     3.17612360439862     7.36710939777929     2.43867579015283
63 1     3.29916866667367     5.52321230238154     5.06684825527914
64 1     3.23357780584842     7.48949344834584     7.51708398878309
65 1     3.14438668184336     5.52532333169293     9.94001314976692
66 1     3.19546255253917     7.37119234398623     12.5698703769334
67 1     1.60401364924426     8.42771882946962   0.0523345468135454
68 1     1.58652051585367     10.1658279987574     2.46711542651237
69 1     1.58941167618297      8.3608489858343     5.05882453736387
70 1     1.64492237160651     10.3094501159726      7.5904295314971
71 1     1.55270690705433     8.34069496520595     10.0395419881979
72 1     1.54573458553133     10.2360750883707     12.5153764525457
73 1     9.71422469217345  0.00419599551459088   0.0370500334570359
74 1     9.65682443476586     1.92970703805776     2.46288073170104
75 1     3.12522325701228      11.130226588247     5.09110532038732
76 1     9.62665379776027      1.7858142925763     7.49562199990251
77 1     9.56780520567031   0.0739024011937684     9.95758385704824
78 1     9.73983219844295     1.88714349651518      12.615275297479
79 1     8.12349585916439     2.87087024612992   0.0841265508467699
80 1     8.07006392405925     4.66150804957577     2.47638751552779
81 1     8.07444306064633     2.85576199760844     4.96629284430043
82 1     7.99994422648396     4.58514354895277     7.47902411425475
83 1     8.12615727623362     2.83430027212875     9.99146599712477
84 1     8.08971210902478     4.56916325526221     12.5658875434907
85 1     6.49200255508109     5.59480549613134   0.0685327808542249
86 1     6.51773452931821     7.50963241380739      2.5455455617893
87 1     6.41041263504646     5.53223354742645     5.02468549949778
88 1     6.49505172812415     7.44725316934644     7.60085079137734
89 1      6.4264689450226     5.56074744546896     10.0047642570446
90 1     6.47386756236462      7.4668996953947     12.5777002614186
91 1     4.81441340805015     8.31806734257591   0.0537795494047285
92 1     4.79326383667233     10.1849211027399     2.60728917618503
93 1     4.75566264719806     8.30080772788258      5.0357959941461
94 1     4.74116313003889     10.2063362306246     7.53851295846305
95 1     4.88586158385069     8.44343472657211      10.100738954597
96 1     4.80720311244437     10.2369017189656       12.62110259526
97 2     1.69616608308016    0.968707626270121     1.33898747300868
ITEM: TIMESTEP
4
ITEM: NUMBER OF ATOMS
97
ITEM: BOX BOUNDS xy xz yz pp pp pp
-6.4403077717034334e+00 1.2880619210125166e+01 -6.4403077717034334e+00
0.0000000000000000e+00 1.1154943116692575e+01 0.0000000000000000e+00
0.0000000000000000e+00 1.5046356078130312e+01 0.0000000000000000e+00
ITEM: ATOMS id type x y z
1 1     -6.3551160440824     11.0888500896569   0.0659463694198002
2 1  -0.0767807204737142     1.78372876981982     2.58324130091054
3 1   0.0202573700265013   0.0193840225146895     5.01182924287152
4 1  -0.0209967064371448     1.90451748820574     7.60896154901639
5 1      6.4194364015556     11.1009306976143     9.94390776130329
6 1  -0.0662500043494803     1.79638999905499     12.4762640323485
7 1     11.2399829444425     2.82628979970517   0.0569473049900166
8 1    -1.53189461671141     4.60181323111065     2.52453495935669
9 1    -1.59702026615719     2.88363523090685      5.0097699778668
10 1    -1.67110425383628     4.69878880841565     7.59451922741736
11 1     11.1845892154052     2.74181042147803     10.0849834701954
12 1    -1.57577127551809     4.69935547910942     12.5243350273381
13 1     9.60335031888289     5.58544443701838     15.0219114074274
14 1    -3.16149101296216     7.35805342874793     2.58168101434038
15 1    -3.25465110112467     5.64918463809739     5.01630432357199
16 1    -3.22366405808488     7.45778056147013     7.61013839822176
17 1     9.61256994639293     5.59302810550197     10.0153691912314
18 1    -3.22071478760728     7.34459454764492     12.5954322256782
19 1    -4.73922619736966     8.32240549611145  0.00647715343382071
20 1    -4.77388065498241     10.2814326361007     2.58662793155908
21 1    -4.79071642935634     8.33758812349046     5.00540898184273
22 1    -4.88065604392714     10.2176229948573     7.53335625731021
23 1     8.03015739844015     8.36554065384466     9.94949546670945
24 1    -4.91823286665828     10.1311058590439     12.5496764251498
25 1    -3.20385547133937     11.1089308289588   0.0256028032189045
26 1     3.29845643787473     1.79197738530473      2.5535017573672
27 1     3.26692396824901   0.0214291902154494     5.00031346507838
28 1     3.13789393697188      1.8124549258748     7.45651886267771
29 1     3.19320865451202   0.0593326795550657     10.0950667744459
30 1     3.17061620992589     1.81901689710435     12.5900351324075