ITEM: TIMESTEP
45
ITEM: NUMBER OF ATOMS
97
ITEM: BOX BOUNDS xy xz yz pp pp pp
-6.4403077717034334e+00 1.2880619210125166e+01 -6.4403077717034334e+00
0.0000000000000000e+00 1.1154943116692575e+01 0.0000000000000000e+00
0.0000000000000000e+00 1.5046356078130312e+01 0.0000000000000000e+00
ITEM: ATOMS id type x y z
1 1     6.43834155214743     11.1487824486235      15.041236903979
2 1 -0.00196824860489276     1.85798655522837     2.54577746776943
3 1     6.43860347473111     11.1489320232935     5.03392161239641
4 1 0.000961282482017757     1.85629583807216     7.54348359034308
5 1     6.44127079510551       11.15047397234     10.0435281453395
6 1 -0.00170935752087471     1.85783639310149     12.5530919006951
7 1     11.2601461786301      2.7924294301346   0.0160986681862466
8 1    -1.60784787456733     4.64862707215102     2.52605468857783
9 1     11.2581789942671     2.79356466877093      5.0457759913134
10 1    -1.60771409426091     4.64524513524371     7.54367132856393
11 1    -1.60614487797065     2.78415602907886     10.0501248845793
12 1    -1.60836987705508     4.64780967739871      12.550647348058
13 1     9.66238776026774     5.57355843069231   0.0137152589271897
14 1    -3.21405166921279     7.43065427850476     2.52605550972713
15 1    -3.21758112910057     5.57393199107173      5.0340162504829
16 1    -3.21691438927604     7.43246407891195     7.54367167033906
17 1     9.66161369781967     5.57311298857338     10.0460378555755
18 1    -3.21502248998485     7.43061536789453     12.5506488123469
19 1     8.05273975193818     8.34782372562681   0.0160999909952618
20 1    -4.82787580959881     10.2167096971801     2.54577796869119
21 1     8.05274081856452     8.34554894964938      5.0457763786826
22 1    -4.82787670264229     10.2200928601155     7.54348313603491
23 1    -4.82788024028406     8.36436997163496     10.0501261464156
24 1    -4.82787896395326     10.2170120821684      12.553092327137
25 1    -3.21347816404669     11.1487836333837     15.0412347474998
26 1      3.2268303646685     1.85798796747692     2.54577648511083
27 1    -3.21373690823497     11.1489331779341     5.03392022858741
28 1     3.22390051672899      1.8562958289971     7.54348276845736
29 1    -3.21640913234043     11.1504759424638     10.0435288422924
30 1     3.22656824479428     1.85783843626778     12.5530912116485
31 1     1.61242999312682     2.79006099703127     15.0412343808987
32 1     1.61242993413788     4.65894703964507     2.52455578645549
33 1     1.61243100134058     2.78975793439281     5.03392042306075
34 1      1.6124304324283     4.64240090191347     7.53688534912211
35 1     1.61242945786791     2.78667743655673     10.0435283081868
36 1     1.61242925967979      4.6612209497077     12.5412337716531
37 1 -0.00139832439479895     5.57611143327133   0.0145973289396196
38 1  0.00278202314614366     7.43320887288036     2.52693784245979
39 1 -0.000428521300447408     5.57615271333062     5.03636169161277
40 1  0.00355353916743894     7.43365547090591     7.54097154336912
41 1  0.00146347874559342     5.57430434657709      10.043337330215
42 1  0.00213036548248808     7.43283560020334     12.5529929422847
43 1    -1.60760214221731     8.35814070373585   0.0145988828804419
44 1    -1.59497538830325     10.2143380940063     2.52455463243477
45 1    -1.60708084279684     8.35895778000947     5.03636127187129
46 1    -1.60930380621791     10.2226112556374     7.53688545680809
47 1    -1.60773800004158     8.36152322463826     10.0433388298174
48 1    -1.59300803997013     10.2132029463099     12.5412351591584
49 1  0.00622772435332407     11.1533711422712   0.0145990958498014
50 1     6.44653568763728     1.85339618472326      2.5260547445284
51 1  0.00577941259157111     11.1525112221082     5.03636120859062
52 1     6.44353826364434     1.85497135137541     7.54367153679133
53 1  0.00322963502756574     11.1517970034791     10.0433389270057
54 1     6.44608609811796     1.85425721090353     12.5506489802016
55 1     4.84533382553464     2.79243118703485   0.0160985426237811
56 1     4.83270960972554     4.64862897033289     2.52605387930104
57 1     4.84730304276764     2.79356748882053     5.04577478096796
58 1     4.83257353889198     4.64524648747482      7.5436715087274
59 1     4.83100357008143     2.78415890867548     10.0501246334254
60 1     4.83322763038086     4.64781244424914     12.5506487999932
61 1     3.22625530395836     5.57611358367357   0.0145983578867769
62 1      3.2220791547622     7.43320957450972     2.52693808883478
63 1     3.22529015749439     5.57615253130767     5.03636054071459
64 1     3.22130636932601     7.43365641040434     7.54097157441809
65 1     3.22339451024658     5.57430506696144     10.0433379124617
66 1     3.22272626061703     7.43283622675686     12.5529935565751
67 1     1.61242857836457     8.36254066606649   0.0182312747116948
68 1     1.61243178279138     10.2212005685706     2.52693891579013
69 1      1.6124297323027     8.36253908761049     5.03617933200795
70 1     1.61243139254954     10.2203100541631      7.5409720171861
71 1     1.61242917661746     8.36254155079956     10.0474915161928
72 1     1.61243065565388     10.2219532783545     12.5529939197282
73 1      3.2186350114379     11.1533711125496   0.0145997637960038
74 1      9.6589442377477     1.85339721915265     2.52605551235938
75 1     3.21908348443419     11.1525103567268     5.03636123326686
76 1     9.66194043584728     1.85497064584992     7.54367113501983
77 1     3.22163136152046     11.1517978602397     10.0433388822875
78 1     9.65939087248123     1.85425727431956     12.5506494577796
79 1     8.05273938854387     2.78556712870255   0.0137164544525187
80 1     8.05273949676183     4.64422724634546     2.52242183489291
81 1     8.05274064861533     2.78481536757727     5.03401591242891
82 1     8.05273849859319     4.64422719721108     7.53951690221716
83 1      8.0527390753087     2.78645892885807     10.0460383577707
84 1     8.05273736741329        4.64422835027     12.5508302564977
85 1     6.44309099117149     5.57356097712907   0.0137154630887912
86 1     6.43891342168134     7.43065764703138     2.52605500789825
87 1     6.44244203763811     5.57393434492665     5.03401636715679
88 1     6.44177458154499     7.43246665398164      7.5436713964587
89 1     6.44386311035023     5.57311514601434     10.0460379087217
90 1     6.43987940685137     7.43061721837562     12.5506493314227
91 1     4.83245971977668     8.35814136137314   0.0145995878730737
92 1     4.81983916148377     10.2143389040778      2.5245574436609
93 1     4.83194092136043     8.35895818180017     5.03636109689266
94 1      4.8341673975166     10.2226119784367      7.5368858096221
95 1     4.83259550605414     8.36152474391134     10.0433391075577
96 1     4.81786940639116       10.21320429957     12.5412362908612
97 2     1.61243092787893    0.925913993891003      1.2703291080415
