(written by ASE)

4 atoms
2 atom types

0.0      3.1923846299999998  xlo xhi
0.0      5.5293723764619713  ylo yhi
0.0              5.04504164  zlo zhi

Masses

     1      178.48999995408445 # Hf
     2      15.998999995884349 # O

Atoms # charge

     1   1   0.0 -1.5961923392155962e-08      1.8431241347029435              1.26126041
     2   1   0.0      1.5961923309619233     0.92156205352804099      3.7837812299999998
     3   1   0.0  1.5961923412651423e-08      3.6862482417590261      3.7837812299999998
     4   1   0.0      1.5961922990380766      4.6078103229339273              1.26126041
