LAMMPS (27 Jun 2024)
OMP_NUM_THREADS environment is not set. Defaulting to 1 thread. (src/comm.cpp:98)
  using 1 OpenMP thread(s) per MPI task
Reading data file ...
  orthogonal box = (0 0 0) to (22.422218 22.19224 20.321894)
  5 by 2 by 2 MPI processor grid
  reading atoms ...
  448 atoms
  read_data CPU = 0.004 seconds
**************** Begin of POD Potentials ****************
species: Hf 
periodic boundary conditions: 1 1 1
number of environment clusters: 8
number of principal compoments: 2
inner cut-off radius: 1
outer cut-off radius: 5
cut-off function type: 1
gaussian_exponents: 
polynomial_degrees: 
bessel polynomial degree: 4
inverse polynomial degree: 10
one-body potential: 1
two-body radial basis functions: 8
three-body radial basis functions: 8
three-body angular degree: 6
four-body radial basis functions: 7
four-body angular degree: 5
five-body radial basis functions: 0
five-body angular degree: 0
six-body radial basis functions: 0
six-body angular degree: 0
seven-body radial basis functions: 0
seven-body angular degree: 0
number of local descriptors per element for one-body potential: 1
number of local descriptors per element for two-body potential: 8
number of local descriptors per element for three-body potential: 56
number of local descriptors per element for four-body potential: 112
number of local descriptors per element for five-body potential: 0
number of local descriptors per element for six-body potential: 0
number of local descriptors per element for seven-body potential: 0
number of local descriptors per element for all potentials: 177
number of global descriptors: 1409
**************** End of POD Potentials ****************

**************** Begin of Model Coefficients ****************
total number of coefficients for POD potential: 1409
total number of elements for PCA projection matrix: 352
total number of elements for PCA centroids: 16
**************** End of Model Coefficients ****************


CITE-CITE-CITE-CITE-CITE-CITE-CITE-CITE-CITE-CITE-CITE-CITE-CITE

Your simulation uses code contributions which should be cited:
- Type Label Framework: https://doi.org/10.1021/acs.jpcb.3c08419
The log file lists these citations in BibTeX format.

CITE-CITE-CITE-CITE-CITE-CITE-CITE-CITE-CITE-CITE-CITE-CITE-CITE

Neighbor list info ...
  update: every = 1 steps, delay = 0 steps, check = no
  max neighbors/atom: 2000, page size: 100000
  master list distance cutoff = 7
  ghost atom cutoff = 7
  binsize = 3.5, bins = 7 7 6
  1 neighbor lists, perpetual/occasional/extra = 1 0 0
  (1) pair pod, perpetual
      attributes: full, newton on
      pair build: full/bin/atomonly
      stencil: full/bin/3d
      bin: standard
Setting up Verlet run ...
  Unit style    : metal
  Current step  : 0
  Time step     : 0.001
Per MPI rank memory allocation (min/avg/max) = 2.586 | 2.586 | 2.586 Mbytes
   Step          Temp          TotEng         PotEng         KinEng         Press          Volume    
         0   300           -3231.7429     -3249.0767      17.333785      27701.818      10112.159    
       100   314.54429     -3235.7658     -3253.94        18.174144      9460.6671      10112.159    
       200   220.05075     -3236.4623     -3249.1767      12.714375      10795.857      10112.159    
       300   359.21321     -3234.7658     -3255.5209      20.755082      8908.6357      10112.159    
       400   345.1452      -3237.3243     -3257.2665      19.942243      9001.8797      10112.159    
       500   320.63966     -3240.3095     -3258.8358      18.52633       8284.0317      10112.159    
       600   279.51949     -3241.2715     -3257.422       16.150436      8171.79        10112.159    
       700   288.43893     -3240.4833     -3257.1491      16.665795      9108.8216      10112.159    
       800   298.80215     -3239.5067     -3256.7713      17.264574      8627.6109      10112.159    
       900   292.40546     -3238.7217     -3255.6166      16.894978      8882.0964      10112.159    
      1000   319.77132     -3238.7356     -3257.2117      18.476158      8121.3727      10112.159    
      1100   288.20876     -3239.8216     -3256.4741      16.652496      8852.1661      10112.159    
      1200   291.16934     -3240.7903     -3257.6139      16.823556      8314.4724      10112.159    
      1300   273.79346     -3241.2013     -3257.0209      15.81959       8096.2837      10112.159    
      1400   297.21324     -3240.1067     -3257.2795      17.172769      8744.9806      10112.159    
      1500   303.06363     -3239.2049     -3256.7157      17.5108        8824.6629      10112.159    
      1600   336.1556      -3238.4757     -3257.8985      19.42283       8475.4256      10112.159    
      1700   303.23056     -3238.9102     -3256.4306      17.520445      8628.0737      10112.159    
      1800   291.44103     -3239.3975     -3256.2368      16.839254      8890.7269      10112.159    
      1900   313.82983     -3239.7184     -3257.8513      18.132863      8783.7259      10112.159    
      2000   293.37491     -3240.7789     -3257.7299      16.950993      8423.5372      10112.159    
      2100   306.98197     -3241.0622     -3258.7994      17.737199      8054.8837      10112.159    
      2200   287.6873      -3239.8626     -3256.485       16.622367      8541.899       10112.159    
      2300   301.74999     -3238.6044     -3256.0393      17.434899      8949.302       10112.159    
      2400   319.82928     -3238.5245     -3257.0041      18.479507      9015.1067      10112.159    
      2500   291.63006     -3239.9504     -3256.8006      16.850176      8726.5171      10112.159    
      2600   306.25027     -3240.2608     -3257.9557      17.694922      8538.6033      10112.159    
      2700   294.77428     -3240.3566     -3257.3884      17.031847      8625.5197      10112.159    
      2800   299.58516     -3239.5933     -3256.9031      17.309817      8901.2009      10112.159    
      2900   306.30626     -3239.0342     -3256.7323      17.698157      8743.8584      10112.159    
      3000   293.4939      -3239.1235     -3256.0814      16.957868      8850.5325      10112.159    
      3100   304.4076      -3239.0974     -3256.6859      17.588454      8686.4468      10112.159    
      3200   296.06515     -3239.9896     -3257.096       17.106433      8772.8968      10112.159    
      3300   286.82498     -3240.6198     -3257.1924      16.572542      8668.5864      10112.159    
      3400   305.53324     -3240.0199     -3257.6734      17.653492      8446.3099      10112.159    
      3500   318.7777      -3238.3873     -3256.806       18.418747      8949.9149      10112.159    
      3600   321.15828     -3238.1773     -3256.7336      18.556295      8541.4886      10112.159    
      3700   295.38043     -3239.4528     -3256.5197      17.06687       8756.7223      10112.159    
      3800   295.89809     -3239.6546     -3256.7514      17.09678       8897.4929      10112.159    
      3900   305.36523     -3240.076      -3257.7198      17.643785      8523.5664      10112.159    
      4000   286.29182     -3240.4904     -3257.0321      16.541737      8945.8542      10112.159    
      4100   308.15343     -3239.8289     -3257.6337      17.804885      8621.6135      10112.159    
      4200   277.27907     -3239.8413     -3255.8623      16.020986      8931.9407      10112.159    
      4300   317.15455     -3239.8154     -3258.1404      18.324963      8574.6935      10112.159    
      4400   308.83407     -3239.8997     -3257.7439      17.844211      8489.1599      10112.159    
      4500   292.31619     -3239.8362     -3256.726       16.88982       8785.6773      10112.159    
      4600   288.65632     -3240.064      -3256.7424      16.678356      8758.8214      10112.159    
      4700   306.55279     -3239.8962     -3257.6086      17.712401      8743.6501      10112.159    
      4800   299.05065     -3239.2448     -3256.5238      17.278933      8875.6518      10112.159    
      4900   321.134       -3238.4197     -3256.9746      18.554893      8436.2801      10112.159    
      5000   280.39547     -3239.5799     -3255.781       16.201049      9212.1059      10112.159    
      5100   279.71739     -3240.7312     -3256.8931      16.161871      8687.237       10112.159    
      5200   309.25657     -3240.8539     -3258.7225      17.868623      8578.3381      10112.159    
      5300   297.88852     -3240.6987     -3257.9104      17.211785      8660.928       10112.159    
      5400   288.50957     -3240.0881     -3256.758       16.669877      8965.298       10112.159    
      5500   299.90305     -3239.2388     -3256.5669      17.328184      8906.6385      10112.159    
      5600   306.90074     -3239.2047     -3256.9372      17.732505      8696.6865      10112.159    
      5700   288.55898     -3240.5841     -3257.2568      16.672732      8610.9217      10112.159    
      5800   287.89205     -3241.5251     -3258.1593      16.634196      8286.0402      10112.159    
      5900   303.24801     -3241.0597     -3258.5812      17.521453      8245.2309      10112.159    
      6000   278.25931     -3240.4023     -3256.4799      16.077624      8857.815       10112.159    
      6100   307.42158     -3239.4382     -3257.2008      17.762599      9009.9056      10112.159    
      6200   314.21972     -3239.1969     -3257.3523      18.155391      8741.3824      10112.159    
      6300   303.68575     -3239.3789     -3256.9257      17.546745      8481.0859      10112.159    
      6400   279.45374     -3241.1549     -3257.3015      16.146637      8833.0979      10112.159    
      6500   286.96313     -3241.5148     -3258.0953      16.580525      8390.4531      10112.159    
      6600   298.52364     -3240.7076     -3257.956       17.248482      8382.5181      10112.159    
      6700   303.93522     -3239.3849     -3256.9461      17.561159      8581.6539      10112.159    
      6800   294.38854     -3239.4065     -3256.416       17.009559      8879.2468      10112.159    
      6900   298.22251     -3239.6906     -3256.9217      17.231083      8801.9997      10112.159    
      7000   298.68961     -3239.9865     -3257.2446      17.258072      8708.5911      10112.159    
      7100   290.97856     -3240.6642     -3257.4767      16.812533      8737.7751      10112.159    
      7200   287.69555     -3241.4389     -3258.0618      16.622843      8545.73        10112.159    
      7300   278.96181     -3241.4471     -3257.5653      16.118214      8482.0495      10112.159    
      7400   314.2738      -3239.6142     -3257.7728      18.158516      8766.833       10112.159    
      7500   292.18567     -3239.4864     -3256.3687      16.882279      8430.6825      10112.159    
      7600   303.35726     -3239.5131     -3257.0409      17.527766      8867.7326      10112.159    
      7700   296.60276     -3240.0799     -3257.2174      17.137495      9034.2136      10112.159    
      7800   306.00163     -3240.5742     -3258.2547      17.680555      8374.498       10112.159    
      7900   280.72819     -3241.291      -3257.5113      16.220274      8646.6803      10112.159    
      8000   290.11216     -3241.1592     -3257.9217      16.762473      8474.1144      10112.159    
      8100   306.63817     -3239.5806     -3257.2979      17.717334      8512.8162      10112.159    
      8200   316.01563     -3238.9328     -3257.1919      18.259157      8998.8621      10112.159    
      8300   288.46785     -3239.5287     -3256.1962      16.667466      8988.4616      10112.159    
      8400   288.53804     -3240.0209     -3256.6925      16.671522      8821.4992      10112.159    
      8500   298.94082     -3241.2076     -3258.4802      17.272587      8310.7286      10112.159    
      8600   280.69238     -3242.3        -3258.5182      16.218205      8491.7973      10112.159    
      8700   285.68286     -3241.2705     -3257.777       16.506552      8384.2312      10112.159    
      8800   295.22499     -3240.2964     -3257.3543      17.057889      9025.577       10112.159    
      8900   300.05009     -3239.7433     -3257.08        17.33668       9066.3988      10112.159    
      9000   302.70231     -3239.2309     -3256.7208      17.489923      8896.4244      10112.159    
      9100   324.8088      -3238.3754     -3257.1426      18.76722       9035.9169      10112.159    
      9200   303.23589     -3238.3481     -3255.8688      17.520753      8998.7462      10112.159    
      9300   301.74825     -3240.1489     -3257.5837      17.434798      8680.2861      10112.159    
      9400   286.03423     -3240.7641     -3257.2909      16.526853      8630.3385      10112.159    
      9500   310.98541     -3240.0723     -3258.0408      17.968515      8722.6124      10112.159    
      9600   299.26408     -3239.5838     -3256.875       17.291265      8658.0401      10112.159    
      9700   307.12898     -3238.1904     -3255.9361      17.745693      9180.5885      10112.159    
      9800   314.46492     -3237.6117     -3255.7812      18.169558      9431.6153      10112.159    
      9900   300.05719     -3238.7222     -3256.0593      17.33709       8960.2658      10112.159    
     10000   316.99941     -3239.3308     -3257.6468      18.315999      8729.4622      10112.159    
     10100   291.62188     -3240.3458     -3257.1955      16.849704      8835.4456      10112.159    
     10200   306.70485     -3240.1793     -3257.9005      17.721187      8957.6835      10112.159    
     10300   295.2512      -3239.781      -3256.8404      17.059403      8611.6094      10112.159    
     10400   310.7792      -3237.9634     -3255.92        17.9566        9512.5814      10112.159    
     10500   325.79898     -3238.0449     -3256.8693      18.824432      9249.9282      10112.159    
     10600   306.40711     -3239.106      -3256.81        17.703984      8776.886       10112.159    
     10700   313.49459     -3239.6664     -3257.7798      18.113493      8678.9744      10112.159    
     10800   282.50694     -3240.546      -3256.8691      16.323049      8936.6924      10112.159    
     10900   274.05151     -3240.7099     -3256.5444      15.8345        8399.5048      10112.159    
     11000   325.35072     -3239.3641     -3258.1626      18.798532      8802.036       10112.159    
     11100   317.01069     -3238.3737     -3256.6903      18.316651      9316.1996      10112.159    
     11200   297.44803     -3238.5967     -3255.783       17.186335      9218.8668      10112.159    
     11300   303.04255     -3240.2293     -3257.7389      17.509582      8905.4376      10112.159    
     11400   288.66956     -3241.2147     -3257.8938      16.679121      8258.7167      10112.159    
     11500   296.96022     -3240.6168     -3257.775       17.158149      8520.1027      10112.159    
     11600   306.2433      -3239.5135     -3257.208       17.694519      8772.9402      10112.159    
     11700   292.39264     -3238.9254     -3255.8197      16.894238      9241.6692      10112.159    
     11800   316.44069     -3238.9387     -3257.2224      18.283717      8909.5971      10112.159    
     11900   297.6381      -3240.1676     -3257.365       17.197316      8803.0091      10112.159    
     12000   299.61125     -3240.207      -3257.5183      17.311324      8664.0671      10112.159    
     12100   291.59384     -3240.11       -3256.9581      16.848084      8845.994       10112.159    
     12200   300.01742     -3239.678      -3257.0128      17.334792      8877.2643      10112.159    
     12300   327.96456     -3238.7827     -3257.7322      18.949558      9008.8644      10112.159    
     12400   296.38186     -3238.9389     -3256.0636      17.124732      9128.3524      10112.159    
     12500   295.02097     -3240.1542     -3257.2003      17.046101      8723.9621      10112.159    
     12600   280.25545     -3241.4465     -3257.6394      16.192959      8554.2272      10112.159    
     12700   289.32789     -3241.305      -3258.0221      16.717159      8534.4481      10112.159    
     12800   296.7285      -3240.2713     -3257.4161      17.144761      8601.8941      10112.159    
     12900   307.21899     -3239.7657     -3257.5166      17.750894      9039.6394      10112.159    
     13000   297.27169     -3239.9102     -3257.0864      17.176146      8730.6753      10112.159    
     13100   296.84315     -3240.06       -3257.2114      17.151385      8905.6103      10112.159    
     13200   299.18452     -3239.9971     -3257.2838      17.286668      8758.2611      10112.159    
     13300   305.41401     -3239.0933     -3256.7399      17.646603      9022.7259      10112.159    
     13400   305.60446     -3238.7953     -3256.4529      17.657607      9172.5511      10112.159    
     13500   292.35543     -3239.8732     -3256.7653      16.892088      8646.424       10112.159    
     13600   299.95604     -3240.8173     -3258.1486      17.331245      8704.6217      10112.159    
     13700   272.19572     -3241.6609     -3257.3882      15.727274      8623.5323      10112.159    
     13800   302.70557     -3240.7175     -3258.2076      17.490111      8625.9519      10112.159    
     13900   306.26354     -3239.1721     -3256.8678      17.695688      8896.5754      10112.159    
     14000   303.31504     -3238.7754     -3256.3007      17.525326      9124.0424      10112.159    
     14100   320.30723     -3239.4381     -3257.9452      18.507123      9060.6916      10112.159    
     14200   288.19552     -3240.6076     -3257.2593      16.651731      8573.023       10112.159    
     14300   289.26436     -3240.3071     -3257.0206      16.713488      9060.9021      10112.159    
     14400   301.61451     -3239.7253     -3257.1524      17.427071      8857.6661      10112.159    
     14500   326.48732     -3238.5754     -3257.4396      18.864204      8773.8765      10112.159    
     14600   310.66106     -3237.8817     -3255.8315      17.949774      9265.8296      10112.159    
     14700   302.86999     -3239.4926     -3256.9922      17.499611      8926.8338      10112.159    
     14800   282.72996     -3240.7021     -3257.038       16.335935      9007.5361      10112.159    
     14900   295.37584     -3240.2964     -3257.363       17.066605      8577.7168      10112.159    
     15000   310.71593     -3239.374      -3257.3269      17.952944      8827.6431      10112.159    
     15100   311.06326     -3238.9269     -3256.8999      17.973013      9195.9096      10112.159    
     15200   303.32317     -3239.4885     -3257.0143      17.525796      8839.1414      10112.159    
     15300   280.22685     -3241.1201     -3257.3114      16.191307      8539.0347      10112.159    
     15400   293.92403     -3240.9906     -3257.9734      16.982721      9055.2297      10112.159    
     15500   286.96285     -3240.0284     -3256.6089      16.580508      8835.3425      10112.159    
     15600   310.91531     -3238.7713     -3256.7358      17.964464      9179.3283      10112.159    
     15700   315.82528     -3239.0163     -3257.2645      18.248159      8910.2432      10112.159    
     15800   284.31235     -3240.1923     -3256.6196      16.427364      8838.1604      10112.159    
     15900   306.95004     -3240.15       -3257.8853      17.735354      8952.9111      10112.159    
     16000   291.57654     -3240.189      -3257.0361      16.847084      8973.6453      10112.159    
     16100   304.02521     -3239.1158     -3256.6821      17.566359      9088.7492      10112.159    
     16200   309.11899     -3238.0651     -3255.9258      17.860674      9767.2041      10112.159    
     16300   309.85448     -3238.9427     -3256.8459      17.90317       8900.7392      10112.159    
     16400   297.68042     -3240.0869     -3257.2866      17.199761      8791.8121      10112.159    
     16500   296.10809     -3240.5055     -3257.6144      17.108914      8828.2006      10112.159    
     16600   293.19672     -3240.2083     -3257.149       16.940697      8876.3716      10112.159    
     16700   295.06939     -3239.5189     -3256.5678      17.048899      8890.9788      10112.159    
     16800   304.969       -3239.3855     -3257.0064      17.620891      9078.8407      10112.159    
     16900   304.72607     -3239.8342     -3257.4411      17.606854      8748.6276      10112.159    
     17000   283.68991     -3241.5982     -3257.9896      16.3914        8707.9322      10112.159    
     17100   288.61183     -3241.5726     -3258.2484      16.675785      8566.3985      10112.159    
     17200   290.29227     -3240.2835     -3257.0564      16.77288       8803.1703      10112.159    
     17300   298.59569     -3239.2299     -3256.4825      17.252645      9264.7194      10112.159    
     17400   308.38635     -3239.2565     -3257.0748      17.818343      8819.3686      10112.159    
     17500   300.83682     -3239.8386     -3257.2207      17.382136      8584.3637      10112.159    
     17600   305.02969     -3240.2777     -3257.9021      17.624397      8689.8197      10112.159    
     17700   275.36439     -3241.6579     -3257.5683      15.910358      8589.6346      10112.159    
     17800   291.5779      -3241.3117     -3258.1588      16.847163      8783.6753      10112.159    
     17900   300.35909     -3239.8433     -3257.1978      17.354533      8736.1867      10112.159    
     18000   311.96689     -3239.3322     -3257.3574      18.025224      8716.0511      10112.159    
     18100   306.28893     -3239.5562     -3257.2533      17.697155      8645.3182      10112.159    
     18200   299.11171     -3239.5745     -3256.857       17.282461      8810.7013      10112.159    
     18300   304.99037     -3239.112      -3256.7341      17.622126      9115.5837      10112.159    
     18400   299.97937     -3239.7913     -3257.1239      17.332593      8703.4342      10112.159    
     18500   294.60768     -3240.74       -3257.7622      17.022221      8340.111       10112.159    
     18600   299.13747     -3240.9607     -3258.2447      17.283949      8406.7398      10112.159    
     18700   294.74612     -3240.1165     -3257.1468      17.03022       8444.1132      10112.159    
     18800   297.44308     -3238.7612     -3255.9472      17.186048      9375.3612      10112.159    
     18900   309.39571     -3238.5784     -3256.455       17.876663      9442.7563      10112.159    
     19000   291.07498     -3239.9912     -3256.8093      16.818104      8982.5883      10112.159    
     19100   306.58477     -3240.4407     -3258.1549      17.714249      8500.0871      10112.159    
     19200   294.0818      -3240.3299     -3257.3217      16.991836      8906.5393      10112.159    
     19300   291.91132     -3240.0041     -3256.8705      16.866427      9292.2724      10112.159    
     19400   301.37725     -3239.3644     -3256.7778      17.413362      9177.4406      10112.159    
     19500   320.50367     -3237.9397     -3256.4581      18.518473      9279.8054      10112.159    
     19600   302.07289     -3238.5426     -3255.9962      17.453555      9486.25        10112.159    
     19700   307.66535     -3239.9386     -3257.7153      17.776684      8630.3394      10112.159    
     19800   297.47292     -3240.3596     -3257.5474      17.187773      8675.9986      10112.159    
     19900   288.36243     -3240.1246     -3256.786       16.661375      8778.1175      10112.159    
     20000   299.53264     -3239.5067     -3256.8135      17.306782      9016.7546      10112.159    
     20100   313.66592     -3238.8078     -3256.9311      18.123392      8968.9192      10112.159    
     20200   328.58342     -3237.934      -3256.9193      18.985315      9212.1217      10112.159    
     20300   287.81057     -3238.9915     -3255.621       16.629489      9452.2807      10112.159    
     20400   303.03721     -3239.9864     -3257.4957      17.509273      8934.9792      10112.159    
     20500   281.76786     -3240.8039     -3257.0842      16.280346      9036.5281      10112.159    
     20600   296.66779     -3240.616      -3257.7572      17.141253      8471.9385      10112.159    
     20700   290.39412     -3240.4863     -3257.2651      16.778765      8696.3217      10112.159    
     20800   290.99782     -3239.8508     -3256.6644      16.813646      8916.962       10112.159    
     20900   306.11357     -3239.7567     -3257.4437      17.687023      8997.252       10112.159    
     21000   289.96248     -3240.0728     -3256.8267      16.753825      9218.2566      10112.159    
     21100   317.61978     -3239.3828     -3257.7347      18.351844      8649.2798      10112.159    
     21200   295.35056     -3239.0294     -3256.0945      17.065144      9238.9694      10112.159    
     21300   321.95997     -3238.3128     -3256.9155      18.602617      9072.2773      10112.159    
     21400   306.95856     -3239.385      -3257.1208      17.735846      8953.5308      10112.159    
     21500   296.51511     -3240.4537     -3257.5861      17.132431      8501.6264      10112.159    
     21600   290.02424     -3240.62       -3257.3774      16.757393      9067.0965      10112.159    
     21700   300.12555     -3239.7366     -3257.0776      17.341039      8747.3283      10112.159    
     21800   322.2184      -3237.9913     -3256.6089      18.617549      9118.0284      10112.159    
     21900   306.41751     -3238.3402     -3256.0448      17.704584      9511.186       10112.159    
     22000   300.12182     -3239.2365     -3256.5773      17.340824      9234.1588      10112.159    
     22100   302.74661     -3240.0489     -3257.5413      17.492483      8777.2977      10112.159    
     22200   304.98901     -3240.1643     -3257.7864      17.622047      8784.3143      10112.159    
     22300   285.16255     -3240.1019     -3256.5784      16.476488      8911.4702      10112.159    
     22400   308.37007     -3239.3452     -3257.1626      17.817402      8958.4318      10112.159    
     22500   281.40376     -3239.6311     -3255.8904      16.259308      9093.3637      10112.159    
     22600   300.1567      -3240.4928     -3257.8357      17.342839      8529.6209      10112.159    
     22700   297.9734      -3241.108      -3258.3247      17.21669       8499.5952      10112.159    
     22800   289.90963     -3241.1449     -3257.8956      16.750771      8423.6151      10112.159    
     22900   296.48195     -3239.479      -3256.6095      17.130515      9062.8212      10112.159    
     23000   313.78665     -3239.1314     -3257.2617      18.130368      8979.9219      10112.159    
     23100   295.35501     -3239.8195     -3256.8849      17.065401      8321.8465      10112.159    
     23200   292.13572     -3240.2895     -3257.1688      16.879393      8656.8004      10112.159    
     23300   303.47659     -3240.4778     -3258.0124      17.53466       8784.0939      10112.159    
     23400   293.99175     -3240.4511     -3257.4378      16.986633      8622.2114      10112.159    
     23500   296.34619     -3239.6719     -3256.7946      17.122671      8877.3881      10112.159    
     23600   306.0144      -3238.9306     -3256.6119      17.681293      9056.7807      10112.159    
     23700   318.7399      -3238.8469     -3257.2635      18.416564      8936.9721      10112.159    
     23800   285.53123     -3240.217      -3256.7148      16.49779       9040.0153      10112.159    
     23900   296.97726     -3241.1304     -3258.2895      17.159134      8504.0518      10112.159    
     24000   281.09239     -3240.897      -3257.1383      16.241317      8709.884       10112.159    
     24100   311.26202     -3239.7127     -3257.6972      17.984497      8640.2278      10112.159    
     24200   292.11799     -3239.7766     -3256.655       16.878369      9019.681       10112.159    
     24300   301.94788     -3239.8371     -3257.2834      17.446333      8933.8103      10112.159    
     24400   294.55988     -3240.375      -3257.3945      17.019459      8509.3506      10112.159    
     24500   298.92304     -3240.9163     -3258.1879      17.27156       8557.7384      10112.159    
     24600   267.20508     -3241.4225     -3256.8614      15.438919      8854.426       10112.159    
     24700   308.28718     -3240.2239     -3258.0365      17.812613      8595.2707      10112.159    
     24800   309.78981     -3239.2405     -3257.14        17.899434      8863.887       10112.159    
     24900   301.82882     -3238.8687     -3256.3081      17.439453      9118.1051      10112.159    
     25000   307.6624      -3239.3371     -3257.1136      17.776514      9026.0324      10112.159    
     25100   306.13332     -3239.5426     -3257.2308      17.688164      9020.4599      10112.159    
     25200   289.86119     -3239.9873     -3256.7353      16.747972      9114.3434      10112.159    
     25300   302.81468     -3239.9502     -3257.4466      17.496416      8689.1248      10112.159    
     25400   299.00652     -3239.861      -3257.1373      17.276383      8919.2766      10112.159    
     25500   301.53449     -3240.0041     -3257.4266      17.422447      9025.4712      10112.159    
     25600   289.81468     -3240.4294     -3257.1747      16.745285      8792.0137      10112.159    
     25700   302.77577     -3240.2091     -3257.7033      17.494167      8733.351       10112.159    
     25800   299.14416     -3239.4916     -3256.7759      17.284335      8766.4062      10112.159    
     25900   307.99101     -3238.4763     -3256.2718      17.7955        9363.8931      10112.159    
     26000   310.34633     -3238.7885     -3256.7201      17.931589      9137.4144      10112.159    
     26100   298.27506     -3240.6429     -3257.877       17.23412       8594.527       10112.159    
     26200   285.69322     -3241.0465     -3257.5537      16.50715       8717.4675      10112.159    
     26300   285.80625     -3240.3086     -3256.8222      16.513681      9021.9487      10112.159    
     26400   315.54674     -3239.1513     -3257.3834      18.232065      9028.3144      10112.159    
     26500   304.09515     -3239.4065     -3256.9769      17.5704        8909.8739      10112.159    
     26600   290.38055     -3239.8473     -3256.6253      16.777981      9432.3885      10112.159    
     26700   295.66129     -3240.1355     -3257.2186      17.083098      8997.4583      10112.159    
     26800   283.31806     -3241.6598     -3258.0297      16.369915      8275.7981      10112.159    
     26900   291.19923     -3242.1225     -3258.9478      16.825283      8556.8234      10112.159    
     27000   280.01102     -3240.9397     -3257.1185      16.178837      8847.7241      10112.159    
     27100   294.52933     -3239.9533     -3256.971       17.017694      8871.681       10112.159    
     27200   306.93015     -3239.6934     -3257.4276      17.734205      9070.2067      10112.159    
     27300   303.64728     -3239.9594     -3257.5039      17.544523      8999.8068      10112.159    
     27400   307.20764     -3239.8831     -3257.6333      17.750238      8636.5296      10112.159    
     27500   307.52085     -3239.0796     -3256.8479      17.768335      9370.7191      10112.159    
     27600   300.73294     -3238.8132     -3256.1893      17.376134      9590.2275      10112.159    
     27700   296.44118     -3239.6722     -3256.8003      17.12816       9050.2928      10112.159    
     27800   314.916       -3240.5938     -3258.7895      18.195622      8721.3553      10112.159    
     27900   285.36064     -3241.0432     -3257.5311      16.487934      8806.9194      10112.159    
     28000   300.53256     -3239.8912     -3257.2558      17.364556      9188.1954      10112.159    
     28100   316.77288     -3238.5747     -3256.8776      18.30291       9373.996       10112.159    
     28200   297.12178     -3239.0081     -3256.1755      17.167484      9460.3373      10112.159    
     28300   308.51795     -3239.7606     -3257.5865      17.825947      8917.3771      10112.159    
     28400   293.44458     -3241.0128     -3257.9678      16.955018      8836.8677      10112.159    
     28500   294.98369     -3240.7095     -3257.7534      17.043947      8748.1934      10112.159    
     28600   292.66851     -3240.0325     -3256.9426      16.910177      9061.5715      10112.159    
     28700   299.34327     -3239.6681     -3256.9639      17.29584       9027.9745      10112.159    
     28800   304.65859     -3239.5619     -3257.1648      17.602955      9007.8924      10112.159    
     28900   299.03036     -3239.964      -3257.2418      17.27776       8995.1428      10112.159    
     29000   285.84448     -3241.7188     -3258.2347      16.51589       8529.7219      10112.159    
     29100   282.33158     -3242.2772     -3258.5901      16.312917      8695.1984      10112.159    
     29200   277.64251     -3241.1341     -3257.1761      16.041985      8759.7439      10112.159    
     29300   298.44186     -3240.0645     -3257.3082      17.243757      8717.923       10112.159    
     29400   320.20667     -3239.4537     -3257.9551      18.501313      8687.0496      10112.159    
     29500   303.17462     -3239.4909     -3257.0081      17.517213      9094.2296      10112.159    
     29600   293.67282     -3239.8889     -3256.8571      16.968205      8996.2976      10112.159    
     29700   278.87351     -3241.2971     -3257.4102      16.113112      8696.2441      10112.159    
     29800   291.72188     -3241.1774     -3258.0329      16.855481      8613.7319      10112.159    
     29900   309.26342     -3239.7442     -3257.6132      17.869019      8963.308       10112.159    
     30000   306.16322     -3239.4625     -3257.1524      17.689892      9088.2143      10112.159    
     30100   289.88493     -3239.8212     -3256.5705      16.749344      8902.0489      10112.159    
     30200   295.21316     -3239.7524     -3256.8096      17.057205      9110.3263      10112.159    
     30300   300.39142     -3239.72       -3257.0764      17.356401      9080.7634      10112.159    
     30400   307.70598     -3240.1055     -3257.8845      17.779031      8578.1279      10112.159    
     30500   291.57934     -3240.509      -3257.3562      16.847246      8728.6762      10112.159    
     30600   290.66661     -3240.4907     -3257.2852      16.794509      8956.7894      10112.159    
     30700   290.5131      -3239.7632     -3256.5488      16.785639      9396.0552      10112.159    
     30800   314.0295      -3238.5895     -3256.7339      18.1444        8981.8819      10112.159    
     30900   319.15786     -3238.2421     -3256.6828      18.440713      9363.6283      10112.159    
     31000   295.17569     -3239.7468     -3256.8018      17.05504       8906.258       10112.159    
     31100   293.02859     -3240.85       -3257.781       16.930982      8562.1586      10112.159    
     31200   295.2393      -3240.9812     -3258.04        17.058715      8549.7912      10112.159    
     31300   299.26445     -3240.18       -3257.4713      17.291286      8643.6432      10112.159    
     31400   309.86177     -3238.6421     -3256.5457      17.903591      9257.2227      10112.159    
     31500   300.68633     -3238.8921     -3256.2655      17.373441      9005.6839      10112.159    
     31600   289.90438     -3239.8279     -3256.5783      16.750468      9019.6515      10112.159    
     31700   298.81637     -3240.359      -3257.6244      17.265396      8408.2492      10112.159    
     31800   316.74717     -3240.4061     -3258.7075      18.301425      8406.5838      10112.159    
     31900   274.73278     -3241.0201     -3256.894       15.873864      8963.82        10112.159    
     32000   298.07104     -3240.5725     -3257.7948      17.222331      8853.8833      10112.159    
     32100   299.4253      -3239.5457     -3256.8463      17.300579      8900.5939      10112.159    
     32200   314.91341     -3238.529      -3256.7245      18.195471      9259.7192      10112.159    
     32300   310.47018     -3239.0999     -3257.0387      17.938745      9124.3118      10112.159    
     32400   290.50616     -3240.3916     -3257.1769      16.785238      8839.5385      10112.159    
     32500   296.72568     -3240.3108     -3257.4554      17.144598      8793.3992      10112.159    
     32600   304.28035     -3240.1831     -3257.7642      17.581101      8590.7435      10112.159    
     32700   300.92672     -3239.7586     -3257.146       17.387331      8786.4491      10112.159    
     32800   311.16522     -3238.5366     -3256.5155      17.978904      9109.2537      10112.159    
     32900   301.5445      -3238.9718     -3256.3948      17.423025      9187.9448      10112.159    
     33000   290.8275      -3240.8972     -3257.701       16.803805      8886.1074      10112.159    
     33100   290.3043      -3241.38       -3258.1536      16.773575      8644.0513      10112.159    
     33200   296.97738     -3240.7013     -3257.8605      17.15914       8911.4748      10112.159    
     33300   298.2576      -3239.8738     -3257.1069      17.233111      8920.3499      10112.159    
     33400   308.56766     -3239.3444     -3257.1733      17.828819      9080.7113      10112.159    
     33500   307.36973     -3239.362      -3257.1216      17.759603      8930.7005      10112.159    
     33600   298.69848     -3239.6883     -3256.9469      17.258585      8978.7681      10112.159    
     33700   282.12742     -3240.0493     -3256.3505      16.301121      8913.5385      10112.159    
     33800   309.96415     -3239.9141     -3257.8236      17.909507      8795.7986      10112.159    
     33900   296.02774     -3240.134      -3257.2383      17.104271      9044.4083      10112.159    
     34000   296.6581      -3240.0472     -3257.1879      17.140693      8617.3902      10112.159    
     34100   313.06086     -3239.2845     -3257.3729      18.088433      9239.9501      10112.159    
     34200   310.59259     -3238.4998     -3256.4456      17.945818      9617.9229      10112.159    
     34300   302.41181     -3239.3042     -3256.7773      17.473138      9109.1632      10112.159    
     34400   298.46408     -3240.7226     -3257.9677      17.245041      8838.7672      10112.159    
     34500   285.72942     -3240.9203     -3257.4296      16.509241      8529.6683      10112.159    
     34600   289.44492     -3240.1749     -3256.8988      16.723921      8923.5592      10112.159    
     34700   298.84254     -3239.6747     -3256.9417      17.266908      8891.8921      10112.159    
     34800   308.58973     -3239.7698     -3257.5999      17.830094      9133.4523      10112.159    
     34900   296.31411     -3240.0459     -3257.1667      17.120817      8966.9379      10112.159    
     35000   317.84366     -3239.5024     -3257.8672      18.364779      8814.7249      10112.159    
     35100   308.03704     -3238.3091     -3256.1073      17.79816       9370.1928      10112.159    
     35200   331.12597     -3237.1169     -3256.2491      19.132222      9644.6177      10112.159    
     35300   295.44561     -3238.7091     -3255.7797      17.070636      9316.1412      10112.159    
     35400   306.17        -3239.7201     -3257.4104      17.690284      8951.7584      10112.159    
     35500   292.55167     -3240.6727     -3257.5761      16.903426      8614.5468      10112.159    
     35600   299.05677     -3240.538      -3257.8172      17.279286      8489.9252      10112.159    
     35700   297.95983     -3239.3699     -3256.5858      17.215906      9053.8995      10112.159    
     35800   299.37037     -3238.2497     -3255.5471      17.297406      9612.9082      10112.159    
     35900   315.30565     -3238.5245     -3256.7427      18.218135      9049.7999      10112.159    
     36000   317.48691     -3239.2106     -3257.5548      18.344167      8935.4881      10112.159    
     36100   302.73668     -3239.7671     -3257.259       17.491909      8951.9532      10112.159    
     36200   281.28602     -3240.2805     -3256.533       16.252505      9014.0304      10112.159    
     36300   298.46086     -3239.9864     -3257.2313      17.244855      8927.5109      10112.159    
     36400   295.87738     -3239.7957     -3256.8913      17.095583      8911.4412      10112.159    
     36500   299.67682     -3240.0067     -3257.3218      17.315112      8885.6593      10112.159    
     36600   304.76343     -3240.1999     -3257.8089      17.609013      8891.5793      10112.159    
     36700   284.23964     -3240.4818     -3256.9049      16.423163      8996.011       10112.159    
     36800   293.34312     -3239.7112     -3256.6604      16.949156      9098.6202      10112.159    
     36900   307.80008     -3238.602      -3256.3865      17.784468      9202.2773      10112.159    
     37000   316.62455     -3238.3814     -3256.6757      18.29434       9075.7627      10112.159    
     37100   304.40863     -3240.1945     -3257.783       17.588513      8667.1057      10112.159    
     37200   282.20963     -3241.1984     -3257.5043      16.30587       8715.3399      10112.159    
     37300   289.85431     -3240.5565     -3257.3041      16.747575      8896.0139      10112.159    
     37400   307.77423     -3239.6233     -3257.4063      17.782975      9130.2752      10112.159    
     37500   312.72287     -3239.004      -3257.0729      18.068904      9037.0329      10112.159    
     37600   303.63705     -3239.3222     -3256.8661      17.543931      9152.6939      10112.159    
     37700   291.88228     -3239.8101     -3256.6748      16.864749      8900.0992      10112.159    
     37800   315.3994      -3239.6371     -3257.8606      18.223552      8898.832       10112.159    
     37900   278.87758     -3240.3363     -3256.4497      16.113347      9069.0369      10112.159    
     38000   314.58574     -3239.9352     -3258.1118      18.176539      8903.8302      10112.159    
     38100   286.18653     -3239.6641     -3256.1997      16.535653      8981.7096      10112.159    
     38200   318.22125     -3238.6207     -3257.0073      18.386596      9097.7949      10112.159    
     38300   313.37588     -3238.8623     -3256.9689      18.106634      9295.8974      10112.159    
     38400   291.14137     -3240.1889     -3257.0109      16.82194       8871.695       10112.159    
     38500   284.49835     -3241.2441     -3257.6822      16.438111      8860.5767      10112.159    
     38600   290.19776     -3240.9865     -3257.7539      16.767419      8610.2206      10112.159    
     38700   301.7285      -3240.3642     -3257.7979      17.433657      8747.6077      10112.159    
     38800   300.40384     -3239.9044     -3257.2615      17.357119      8927.5691      10112.159    
     38900   309.16003     -3239.4645     -3257.3276      17.863046      8923.4489      10112.159    
     39000   292.64523     -3239.8432     -3256.7521      16.908832      8796.3278      10112.159    
     39100   290.5975      -3241.221      -3258.0115      16.790516      8643.0477      10112.159    
     39200   274.32223     -3242.1733     -3258.0235      15.850142      8783.2504      10112.159    
     39300   288.53444     -3241.2506     -3257.9219      16.671313      8415.9872      10112.159    
     39400   310.13008     -3239.9254     -3257.8445      17.919094      8956.836       10112.159    
     39500   286.50109     -3239.9009     -3256.4547      16.553828      9335.3486      10112.159    
     39600   305.09597     -3239.3679     -3256.9961      17.628227      8678.6783      10112.159    
     39700   307.20174     -3239.1878     -3256.9377      17.749897      8909.9647      10112.159    
     39800   303.19601     -3239.9772     -3257.4957      17.518449      8848.323       10112.159    
     39900   288.14122     -3241.284      -3257.9326      16.648594      8859.9815      10112.159    
     40000   287.81067     -3241.4244     -3258.0539      16.629494      8718.403       10112.159    
     40100   298.84097     -3239.8827     -3257.1495      17.266818      8897.9226      10112.159    
     40200   302.85926     -3239.026      -3256.525       17.498991      9305.9534      10112.159    
     40300   309.9549      -3239.2896     -3257.1986      17.908972      8987.7333      10112.159    
     40400   291.96885     -3240.3516     -3257.2213      16.869752      8888.1936      10112.159    
     40500   295.20294     -3240.762      -3257.8186      17.056615      8931.2415      10112.159    
     40600   296.23104     -3240.8607     -3257.9767      17.116018      8630.3387      10112.159    
     40700   290.66964     -3240.4175     -3257.2122      16.794684      8802.7938      10112.159    
     40800   302.04668     -3239.0493     -3256.5013      17.452041      9129.822       10112.159    
     40900   309.91177     -3238.8216     -3256.7281      17.90648       9210.1702      10112.159    
     41000   320.3787      -3239.442      -3257.9532      18.511252      9081.76        10112.159    
     41100   275.25344     -3241.1066     -3257.0105      15.903947      8625.3185      10112.159    
     41200   292.01638     -3241.1482     -3258.0207      16.872497      8683.1257      10112.159    
     41300   300.28592     -3240.4555     -3257.8058      17.350305      8942.1293      10112.159    
     41400   300.10495     -3239.654      -3256.9939      17.33985       9274.1191      10112.159    
     41500   293.28116     -3239.6244     -3256.57        16.945576      9040.1484      10112.159    
     41600   313.41384     -3239.4081     -3257.5169      18.108827      8804.1676      10112.159    
     41700   299.93538     -3239.8706     -3257.2006      17.330052      9118.8348      10112.159    
     41800   299.68234     -3240.0972     -3257.4126      17.315431      8753.68        10112.159    
     41900   284.05812     -3240.3007     -3256.7134      16.412675      8890.9457      10112.159    
     42000   311.37778     -3239.559      -3257.5502      17.991185      9059.8567      10112.159    
     42100   314.14301     -3238.5498     -3256.7008      18.150958      8779.5077      10112.159    
     42200   310.29393     -3238.5938     -3256.5223      17.928561      9342.4922      10112.159    
     42300   294.33171     -3239.7664     -3256.7727      17.006276      9377.4977      10112.159    
     42400   295.80117     -3240.8336     -3257.9248      17.09118       8761.5005      10112.159    
     42500   282.56249     -3241.0496     -3257.3759      16.326259      8552.3736      10112.159    
     42600   310.90302     -3239.9869     -3257.9507      17.963754      8590.0693      10112.159    
     42700   314.08055     -3239.5451     -3257.6925      18.147349      8718.7534      10112.159    
     42800   286.9984      -3239.9315     -3256.5141      16.582562      9150.5766      10112.159    
     42900   282.34561     -3240.3351     -3256.6488      16.313727      9069.0276      10112.159    
     43000   296.7804      -3240.2718     -3257.4196      17.147759      8756.7091      10112.159    
     43100   337.81591     -3238.7311     -3258.2499      19.518762      8493.2244      10112.159    
     43200   309.98404     -3238.5338     -3256.4445      17.910656      8975.2517      10112.159    
     43300   298.07207     -3239.0262     -3256.2486      17.222391      9396.115       10112.159    
     43400   284.89092     -3241.0688     -3257.5296      16.460793      8949.0725      10112.159    
     43500   296.62044     -3241.0789     -3258.2174      17.138517      8419.9078      10112.159    
     43600   311.29374     -3240.1091     -3258.0954      17.986329      8721.2709      10112.159    
     43700   306.09833     -3239.0959     -3256.782       17.686143      9093.7284      10112.159    
     43800   295.87075     -3238.976      -3256.0712      17.0952        9054.7193      10112.159    
     43900   304.86453     -3239.467      -3257.0819      17.614854      9106.474       10112.159    
     44000   299.91952     -3240.4988     -3257.8279      17.329135      8628.236       10112.159    
     44100   298.71216     -3240.6184     -3257.8777      17.259375      8548.5373      10112.159    
     44200   290.06202     -3240.3744     -3257.134       16.759576      8975.0027      10112.159    
     44300   319.2385      -3239.3324     -3257.7777      18.445372      9051.0154      10112.159    
     44400   287.58749     -3239.0802     -3255.6968      16.616599      9139.0621      10112.159    
     44500   313.97469     -3238.8696     -3257.0108      18.141233      9271.3414      10112.159    
     44600   303.88069     -3240.5703     -3258.1283      17.558009      8520.3734      10112.159    
     44700   292.18849     -3241.0693     -3257.9517      16.882442      8381.5043      10112.159    
     44800   292.32054     -3240.5747     -3257.4648      16.890072      8941.5308      10112.159    
     44900   301.39778     -3239.7505     -3257.165       17.414548      8906.4186      10112.159    
     45000   290.28896     -3239.2284     -3256.001       16.772689      8921.0054      10112.159    
     45100   317.73983     -3239.2736     -3257.6324      18.35878       8710.5732      10112.159    
     45200   292.6519      -3239.8829     -3256.7921      16.909218      9058.5151      10112.159    
     45300   290.0225      -3240.0262     -3256.7835      16.757293      8895.6538      10112.159    
     45400   294.99605     -3240.0734     -3257.1181      17.044661      8708.0394      10112.159    
     45500   315.0694      -3239.849      -3258.0535      18.204484      9162.2277      10112.159    
     45600   292.66318     -3239.6224     -3256.5322      16.909869      9254.211       10112.159    
     45700   292.7439      -3239.3058     -3256.2204      16.914533      8783.8178      10112.159    
     45800   313.85526     -3239.2259     -3257.3603      18.134333      9265.4928      10112.159    
     45900   302.57666     -3240.1214     -3257.6041      17.482663      8710.6764      10112.159    
     46000   286.624       -3241.1091     -3257.67        16.56093       8535.2873      10112.159    
     46100   301.77896     -3240.516      -3257.9526      17.436573      9027.36        10112.159    
     46200   294.55354     -3239.3367     -3256.3557      17.019093      9338.4762      10112.159    
     46300   325.51983     -3237.7213     -3256.5296      18.808303      8914.61        10112.159    
     46400   323.5507      -3238.3238     -3257.0183      18.694528      8851.2734      10112.159    
     46500   309.75487     -3239.5439     -3257.4413      17.897415      8848.8324      10112.159    
     46600   285.33217     -3240.568      -3257.0543      16.486289      8940.1474      10112.159    
     46700   281.29131     -3240.6719     -3256.9247      16.252811      8796.3737      10112.159    
     46800   305.08249     -3239.6784     -3257.3058      17.627448      9168.4322      10112.159    
     46900   323.53811     -3237.8271     -3256.5209      18.693801      9041.5277      10112.159    
     47000   320.741       -3238.0267     -3256.5589      18.532185      9309.9155      10112.159    
     47100   311.16692     -3239.0022     -3256.9812      17.979002      9166.4431      10112.159    
     47200   280.31931     -3240.2565     -3256.4532      16.196649      8926.9529      10112.159    
     47300   305.65376     -3240.3474     -3258.0078      17.660456      8762.5224      10112.159    
     47400   303.62763     -3240.2188     -3257.7621      17.543387      8829.8287      10112.159    
     47500   303.62596     -3239.0199     -3256.5632      17.543291      9153.7978      10112.159    
     47600   298.74926     -3238.1358     -3255.3973      17.261518      9214.7919      10112.159    
     47700   314.02026     -3238.5325     -3256.6764      18.143866      9271.4087      10112.159    
     47800   310.03964     -3239.4814     -3257.3953      17.913868      9243.0608      10112.159    
     47900   303.18663     -3239.9814     -3257.4993      17.517907      8755.9351      10112.159    
     48000   297.47829     -3240.0512     -3257.2393      17.188083      8818.1003      10112.159    
     48100   291.38755     -3240.0171     -3256.8533      16.836164      9102.509       10112.159    
     48200   293.43481     -3240.0265     -3256.981       16.954454      8900.1917      10112.159    
     48300   314.88646     -3239.3279     -3257.5218      18.193914      8762.5556      10112.159    
     48400   317.93016     -3238.8241     -3257.1939      18.369777      9289.6222      10112.159    
     48500   294.99093     -3239.3244     -3256.3688      17.044365      9297.9715      10112.159    
     48600   289.87786     -3240.5705     -3257.3194      16.748936      9023.6984      10112.159    
     48700   301.36991     -3240.8664     -3258.2793      17.412938      8701.1483      10112.159    
     48800   288.65481     -3240.5874     -3257.2657      16.678269      8840.0207      10112.159    
     48900   307.92645     -3238.7107     -3256.5025      17.79177       8908.6344      10112.159    
     49000   321.7889      -3238.2308     -3256.8235      18.592732      9196.0708      10112.159    
     49100   297.2738      -3239.3481     -3256.5244      17.176267      9120.4136      10112.159    
     49200   298.54446     -3240.4986     -3257.7483      17.249685      8612.3454      10112.159    
     49300   283.78756     -3240.6506     -3257.0476      16.397042      8789.0437      10112.159    
     49400   310.90794     -3239.9674     -3257.9315      17.964038      8649.0039      10112.159    
     49500   286.84649     -3240.1615     -3256.7353      16.573785      9095.0208      10112.159    
     49600   306.19479     -3239.7194     -3257.4112      17.691716      8873.7365      10112.159    
     49700   300.26469     -3239.0359     -3256.385       17.349079      9380.8691      10112.159    
     49800   329.51935     -3237.6797     -3256.7191      19.039392      9367.9861      10112.159    
     49900   302.42565     -3238.6455     -3256.1194      17.473938      9117.3787      10112.159    
     50000   309.13626     -3239.9581     -3257.8198      17.861672      8894.8876      10112.159    
     50100   283.73304     -3240.6913     -3257.0852      16.393892      8923.2795      10112.159    
     50200   286.41774     -3240.3425     -3256.8915      16.549012      9057.0654      10112.159    
     50300   318.93914     -3239.4739     -3257.902       18.428075      8824.3274      10112.159    
     50400   309.36331     -3239.2418     -3257.1166      17.874791      9161.4499      10112.159    
     50500   299.72786     -3238.576      -3255.8941      17.318062      9568.1458      10112.159    
     50600   303.15939     -3238.5899     -3256.1063      17.516332      9371.7243      10112.159    
     50700   313.33643     -3239.5631     -3257.6674      18.104355      8945.6025      10112.159    
     50800   287.17463     -3240.973      -3257.5658      16.592745      8724.2987      10112.159    
     50900   303.14198     -3240.6962     -3258.2115      17.515327      8590.2454      10112.159    
     51000   297.89375     -3239.9675     -3257.1795      17.212088      9073.8924      10112.159    
     51100   300.49806     -3239.3618     -3256.7244      17.362563      9141.2303      10112.159    
     51200   307.2505      -3239.0447     -3256.7974      17.752714      8900.846       10112.159    
     51300   326.41309     -3238.2251     -3257.085       18.859915      9099.913       10112.159    
     51400   305.04816     -3238.869      -3256.4945      17.625465      8813.9081      10112.159    
     51500   295.01653     -3240.3312     -3257.3771      17.045844      9034.5561      10112.159    
     51600   288.39882     -3240.7678     -3257.4313      16.663477      8795.3793      10112.159    
     51700   310.15327     -3240.0464     -3257.9669      17.920434      8767.5771      10112.159    
     51800   287.58825     -3239.5967     -3256.2133      16.616643      8871.2454      10112.159    
     51900   325.65687     -3237.8387     -3256.6549      18.816221      9218.7817      10112.159    
     52000   314.44994     -3238.0312     -3256.1999      18.168693      9427.6201      10112.159    
     52100   293.40585     -3239.4605     -3256.4133      16.95278       9044.1996      10112.159    
     52200   305.53278     -3239.8948     -3257.5482      17.653466      8884.4698      10112.159    
     52300   286.2917      -3240.6178     -3257.1595      16.541729      8921.8793      10112.159    
     52400   293.06441     -3240.552      -3257.485       16.933052      8690.6116      10112.159    
     52500   317.95959     -3238.8031     -3257.1746      18.371478      9266.6612      10112.159    
     52600   310.42748     -3238.1572     -3256.0935      17.936278      9498.179       10112.159    
     52700   284.94029     -3239.1678     -3255.6314      16.463646      8868.7388      10112.159    
     52800   311.00482     -3239.5598     -3257.5294      17.969636      8872.4744      10112.159    
     52900   301.43407     -3240.1508     -3257.5675      17.416645      8844.6595      10112.159    
     53000   286.39654     -3240.5671     -3257.1149      16.547788      8770.2987      10112.159    
     53100   299.43243     -3240.2733     -3257.5743      17.300992      8913.2768      10112.159    
     53200   303.17439     -3239.3706     -3256.8878      17.517199      9073.7813      10112.159    
     53300   313.7784      -3238.5778     -3256.7077      18.129892      9219.3465      10112.159    
     53400   300.66714     -3238.9802     -3256.3526      17.372332      9220.9081      10112.159    
     53500   307.25247     -3240.2832     -3258.036       17.752828      8769.8472      10112.159    
     53600   289.49497     -3241.1658     -3257.8926      16.726813      8252.8405      10112.159    
     53700   284.66229     -3240.6417     -3257.0893      16.447583      9274.2917      10112.159    
     53800   318.38108     -3239.682      -3258.0778      18.395831      8759.603       10112.159    
     53900   298.09806     -3239.8126     -3257.0365      17.223893      9083.0508      10112.159    
     54000   291.3719      -3239.7305     -3256.5657      16.83526       9032.1897      10112.159    
     54100   315.60518     -3239.2848     -3257.5202      18.235441      9026.6573      10112.159    
     54200   311.53885     -3239.8139     -3257.8144      18.000492      8693.7214      10112.159    
     54300   281.42637     -3241.0975     -3257.3581      16.260614      8853.0253      10112.159    
     54400   284.79386     -3241.0888     -3257.544       16.455186      8748.3974      10112.159    
     54500   290.59972     -3240.1561     -3256.9467      16.790644      8651.2652      10112.159    
     54600   312.76297     -3238.8675     -3256.9388      18.071221      9041.0708      10112.159    
     54700   309.57371     -3238.8789     -3256.7659      17.886947      9625.3515      10112.159    
     54800   298.11061     -3239.6381     -3256.8627      17.224618      8971.0206      10112.159    
     54900   287.945       -3240.138      -3256.7753      16.637256      8863.9568      10112.159    
     55000   308.87603     -3239.9814     -3257.828       17.846636      8981.2922      10112.159    
     55100   294.31789     -3240.2917     -3257.2971      17.005477      9105.4147      10112.159    
     55200   294.69671     -3240.2565     -3257.2838      17.027365      8942.5658      10112.159    
     55300   306.33619     -3239.1486     -3256.8485      17.699886      9280.2153      10112.159    
     55400   309.74484     -3238.2037     -3256.1005      17.896835      9238.9122      10112.159    
     55500   312.68977     -3239.0352     -3257.1022      18.066992      9126.0559      10112.159    
     55600   293.84212     -3240.262      -3257.24        16.977988      8718.9626      10112.159    
     55700   292.04303     -3240.3972     -3257.2713      16.874038      8785.6097      10112.159    
     55800   308.81418     -3240.2113     -3258.0544      17.843063      8953.2737      10112.159    
     55900   302.67996     -3239.9026     -3257.3912      17.488632      8797.7241      10112.159    
     56000   307.57047     -3238.4821     -3256.2533      17.771202      9473.221       10112.159    
     56100   309.35106     -3237.8223     -3255.6964      17.874083      9562.9668      10112.159    
     56200   316.06877     -3239.0527     -3257.3149      18.262228      9121.3968      10112.159    
     56300   295.73811     -3240.3772     -3257.4648      17.087537      8636.4542      10112.159    
     56400   295.87887     -3240.2876     -3257.3833      17.09567       8825.077       10112.159    
     56500   300.88466     -3239.8057     -3257.1906      17.384901      8871.5526      10112.159    
     56600   303.51244     -3239.3837     -3256.9204      17.536732      9072.3457      10112.159    
     56700   296.68236     -3239.1974     -3256.3395      17.142095      9103.0428      10112.159    
     56800   307.92905     -3238.9273     -3256.7192      17.791921      9168.2026      10112.159    
     56900   300.15472     -3239.603      -3256.9457      17.342725      9027.5324      10112.159    
     57000   305.5965      -3240.7309     -3258.388       17.657147      8540.0435      10112.159    
     57100   286.12417     -3241.3284     -3257.8605      16.53205       8434.7059      10112.159    
     57200   285.48386     -3240.3183     -3256.8133      16.495053      9180.3752      10112.159    
     57300   310.95898     -3239.1468     -3257.1138      17.966988      9025.3139      10112.159    
     57400   309.63847     -3239.1864     -3257.0771      17.890689      8678.6918      10112.159    
     57500   313.43648     -3239.5288     -3257.6389      18.110136      8878.7491      10112.159    
     57600   275.18186     -3240.9727     -3256.8725      15.899811      8762.4871      10112.159    
     57700   295.23383     -3240.6823     -3257.7407      17.0584        8765.5011      10112.159    
     57800   294.11333     -3240.3021     -3257.2958      16.993658      8820.2213      10112.159    
     57900   307.35093     -3239.728      -3257.4866      17.758517      8750.085       10112.159    
     58000   304.7468      -3239.351      -3256.959       17.608052      8842.8817      10112.159    
     58100   270.15339     -3239.5458     -3255.1551      15.60927       9444.5808      10112.159    
     58200   319.97888     -3239.2819     -3257.77        18.488151      9035.3712      10112.159    
     58300   307.8871      -3240.2595     -3258.049       17.789497      8595.7118      10112.159    
     58400   289.6677      -3241.0873     -3257.8241      16.736792      8554.8558      10112.159    
     58500   290.68772     -3240.5514     -3257.3471      16.795729      9040.6677      10112.159    
     58600   300.78313     -3239.2293     -3256.6083      17.379034      9099.9116      10112.159    
     58700   310.02501     -3238.8772     -3256.7902      17.913023      8890.6665      10112.159    
     58800   295.31595     -3239.7266     -3256.7898      17.063144      9011.6608      10112.159    
     58900   302.57941     -3239.9007     -3257.3835      17.482822      9194.7317      10112.159    
     59000   297.52419     -3239.8973     -3257.088       17.190735      8679.7934      10112.159    
     59100   309.04957     -3239.5991     -3257.4557      17.856663      8889.5434      10112.159    
     59200   284.28081     -3240.2338     -3256.6593      16.425542      8754.5513      10112.159    
     59300   294.97198     -3241.1465     -3258.1898      17.04327       8500.6248      10112.159    
     59400   285.77639     -3241.12       -3257.632       16.511956      8929.3614      10112.159    
     59500   306.41012     -3239.5735     -3257.2777      17.704158      8807.4758      10112.159    
     59600   314.19985     -3238.6482     -3256.8024      18.154243      8852.927       10112.159    
     59700   303.48299     -3238.7539     -3256.2889      17.53503       8997.3021      10112.159    
     59800   292.05506     -3239.4032     -3256.278       16.874732      9100.7738      10112.159    
     59900   326.94948     -3239.553      -3258.4439      18.890907      8655.4752      10112.159    
     60000   294.96409     -3240.3261     -3257.3689      17.042814      8773.7603      10112.159    
     60100   286.97804     -3240.4385     -3257.0198      16.581386      8957.5962      10112.159    
     60200   290.87711     -3239.749      -3256.5557      16.806671      8910.9913      10112.159    
     60300   323.47838     -3238.1533     -3256.8436      18.690349      9207.7366      10112.159    
     60400   320.08609     -3238.2403     -3256.7346      18.494346      9153.6081      10112.159    
     60500   298.24912     -3239.6216     -3256.8542      17.232621      8835.9035      10112.159    
     60600   283.22709     -3240.537      -3256.9017      16.364659      8627.6002      10112.159    
     60700   288.17111     -3240.3043     -3256.9546      16.65032       8887.9152      10112.159    
     60800   306.23647     -3239.7231     -3257.4172      17.694124      9016.7155      10112.159    
     60900   313.02523     -3239.158      -3257.2444      18.086374      8753.9863      10112.159    
     61000   321.99093     -3237.8712     -3256.4756      18.604406      9442.833       10112.159    
     61100   300.36099     -3238.1954     -3255.55        17.354643      9312.2557      10112.159    
     61200   311.71824     -3239.477      -3257.4878      18.010857      8688.9287      10112.159    
     61300   294.65518     -3240.0737     -3257.0987      17.024966      8954.0981      10112.159    
     61400   309.09052     -3240.2515     -3258.1105      17.859029      8548.4415      10112.159    
     61500   296.71883     -3240.3009     -3257.4451      17.144202      9044.8312      10112.159    
     61600   294.38943     -3239.1884     -3256.198       17.009611      9177.4201      10112.159    
     61700   307.48488     -3237.7326     -3255.4989      17.766256      9460.0658      10112.159    
     61800   311.46953     -3237.5243     -3255.5208      17.996487      9333.9255      10112.159    
     61900   311.16053     -3240.0707     -3258.0494      17.978633      8596.6759      10112.159    
     62000   302.16063     -3240.4194     -3257.878       17.458625      8726.7502      10112.159    
     62100   296.23111     -3239.9786     -3257.0946      17.116022      8866.0859      10112.159    
     62200   291.10898     -3239.6004     -3256.4204      16.820069      9238.993       10112.159    
     62300   315.71063     -3238.9879     -3257.2295      18.241534      8846.298       10112.159    
     62400   329.3513      -3238.7019     -3257.7315      19.029683      8836.7364      10112.159    
     62500   284.16286     -3240.1137     -3256.5324      16.418727      8809.5092      10112.159    
     62600   280.53644     -3240.5929     -3256.8021      16.209195      9054.7067      10112.159    
     62700   288.69465     -3241.0429     -3257.7235      16.68057       8770.3902      10112.159    
     62800   300.19211     -3241.1278     -3258.4727      17.344885      8313.8135      10112.159    
     62900   304.38592     -3239.2658     -3256.853       17.587201      8960.1644      10112.159    
     63000   294.77512     -3238.9904     -3256.0223      17.031896      9595.7427      10112.159    
     63100   316.27761     -3239.0835     -3257.3578      18.274294      9097.3997      10112.159    
     63200   290.08404     -3240.404      -3257.1648      16.760848      8911.5767      10112.159    
     63300   296.37683     -3240.6977     -3257.8221      17.124441      8724.7036      10112.159    
     63400   307.76435     -3240.3481     -3258.1305      17.782404      8791.3048      10112.159    
     63500   290.74961     -3239.6469     -3256.4462      16.799305      8944.8722      10112.159    
     63600   310.87135     -3237.706      -3255.6679      17.961924      9563.3328      10112.159    
     63700   307.24682     -3238.3045     -3256.057       17.752502      9044.4585      10112.159    
     63800   307.48796     -3239.8029     -3257.5693      17.766434      8963.0278      10112.159    
     63900   284.59893     -3240.5689     -3257.0128      16.443923      8783.1828      10112.159    
     64000   316.78929     -3239.9542     -3258.258       18.303859      8917.6619      10112.159    
     64100   284.45458     -3240.1636     -3256.5992      16.435582      9057.4076      10112.159    
     64200   294.20906     -3239.8076     -3256.8068      16.999189      8782.0659      10112.159    
     64300   323.64183     -3238.573      -3257.2728      18.699794      9341.9694      10112.159    
     64400   289.97539     -3239.1165     -3255.8711      16.754571      9262.8617      10112.159    
     64500   309.70152     -3239.9833     -3257.8776      17.894333      8702.7746      10112.159    
     64600   288.70327     -3241.1839     -3257.865       16.681068      8506.8504      10112.159    
     64700   301.62915     -3240.866      -3258.294       17.427917      8550.2146      10112.159    
     64800   280.94564     -3240.5946     -3256.8274      16.232838      8926.3273      10112.159    
     64900   296.02538     -3239.8229     -3256.927       17.104135      9114.4432      10112.159    
     65000   313.89369     -3239.6381     -3257.7747      18.136553      9185.0117      10112.159    
     65100   296.64568     -3239.7238     -3256.8638      17.139975      9035.6372      10112.159    
     65200   320.28133     -3239.3703     -3257.8759      18.505626      9022.5319      10112.159    
     65300   281.79601     -3240.9101     -3257.192       16.281972      8719.2207      10112.159    
     65400   297.79752     -3241.4384     -3258.6449      17.206527      8341.4695      10112.159    
     65500   288.63775     -3240.936      -3257.6132      16.677283      8845.2894      10112.159    
     65600   300.5647      -3239.019      -3256.3854      17.366414      9033.7019      10112.159    
     65700   310.94427     -3238.8141     -3256.7802      17.966138      9223.436       10112.159    
     65800   299.31498     -3239.5393     -3256.8335      17.294206      9025.2233      10112.159    
     65900   284.26288     -3240.6076     -3257.0321      16.424506      8557.947       10112.159    
     66000   292.69887     -3240.9679     -3257.8798      16.911931      8614.2436      10112.159    
     66100   304.91043     -3240.3722     -3257.9897      17.617507      8600.9705      10112.159    
     66200   305.67929     -3238.6586     -3256.3205      17.661931      8995.1781      10112.159    
     66300   307.09554     -3238.4423     -3256.1861      17.743761      9546.822       10112.159    
     66400   306.01671     -3239.6099     -3257.2914      17.681427      8909.6964      10112.159    
     66500   286.44138     -3240.5543     -3257.1046      16.550378      8827.675       10112.159    
     66600   302.3788      -3240.2116     -3257.6828      17.471231      8783.1184      10112.159    
     66700   304.96071     -3239.8282     -3257.4486      17.620412      8467.8956      10112.159    
     66800   319.80874     -3239.0813     -3257.5596      18.47832       8993.9588      10112.159    
     66900   288.79778     -3238.7494     -3255.4359      16.686529      9241.5169      10112.159    
     67000   312.66369     -3238.559      -3256.6245      18.065484      9120.141       10112.159    
     67100   306.2887      -3239.8774     -3257.5746      17.697142      9034.2276      10112.159    
     67200   291.66707     -3240.5459     -3257.3982      16.852315      8489.1655      10112.159    
     67300   305.54059     -3240.1962     -3257.8501      17.653917      8755.6757      10112.159    
     67400   282.23492     -3240.2243     -3256.5316      16.307332      8957.4122      10112.159    
     67500   326.26007     -3238.8215     -3257.6726      18.851073      9133.9584      10112.159    
     67600   297.93705     -3238.671      -3255.8856      17.21459       9045.5327      10112.159    
     67700   320.53602     -3238.5737     -3257.0941      18.520342      9192.679       10112.159    
     67800   282.33167     -3240.3746     -3256.6875      16.312922      9119.5809      10112.159    
     67900   299.91677     -3240.6916     -3258.0206      17.328977      8571.2897      10112.159    
     68000   297.44304     -3240.6719     -3257.8579      17.186046      8759.4425      10112.159    
     68100   310.94357     -3239.6095     -3257.5756      17.966097      9143.426       10112.159    
     68200   319.2803      -3238.4241     -3256.8719      18.447788      9143.6474      10112.159    
     68300   295.05178     -3238.8013     -3255.8492      17.047881      9263.3472      10112.159    
     68400   291.63058     -3239.7367     -3256.5869      16.850206      9300.894       10112.159    
     68500   309.07345     -3240.3482     -3258.2063      17.858043      8546.1344      10112.159    
     68600   290.65997     -3240.4232     -3257.2173      16.794125      9144.1573      10112.159    
     68700   289.09481     -3239.9963     -3256.7         16.703691      8766.4185      10112.159    
     68800   316.77369     -3239.1796     -3257.4826      18.302957      9154.0267      10112.159    
     68900   274.60234     -3239.5547     -3255.421       15.866327      9091.6048      10112.159    
     69000   310.54693     -3239.617      -3257.5602      17.94318       8699.7308      10112.159    
     69100   301.27479     -3240.6723     -3258.0797      17.407442      8566.6107      10112.159    
     69200   273.27905     -3241.3234     -3257.1133      15.789868      8636.2817      10112.159    
     69300   300.84205     -3240.0857     -3257.4681      17.382439      8644.7055      10112.159    
     69400   305.55412     -3238.8911     -3256.5458      17.654698      9193.6154      10112.159    
     69500   310.46767     -3238.6594     -3256.598       17.9386        8971.6071      10112.159    
     69600   303.43218     -3239.3137     -3256.8458      17.532094      8876.0573      10112.159    
     69700   300.67154     -3240.3041     -3257.6767      17.372587      8453.6021      10112.159    
     69800   301.27774     -3240.7025     -3258.1102      17.407612      8751.7612      10112.159    
     69900   289.43646     -3240.5016     -3257.225       16.723432      8723.0126      10112.159    
     70000   299.51126     -3240.0549     -3257.3605      17.305546      9054.6275      10112.159    
     70100   305.72784     -3239.6401     -3257.3048      17.664736      8855.11        10112.159    
     70200   290.87423     -3239.7701     -3256.5766      16.806505      9075.8553      10112.159    
     70300   300.82482     -3240.035      -3257.4164      17.381443      8862.6995      10112.159    
     70400   294.3142      -3240.9803     -3257.9855      17.005264      8688.8885      10112.159    
     70500   298.15432     -3241.3871     -3258.6143      17.227143      8479.3472      10112.159    
     70600   291.15414     -3240.6049     -3257.4276      16.822678      8809.6136      10112.159    
     70700   295.8552      -3239.3701     -3256.4644      17.094302      9301.2598      10112.159    
     70800   312.72499     -3238.9627     -3257.0317      18.069026      9195.7874      10112.159    
     70900   298.37985     -3239.7469     -3256.987       17.240174      8943.5007      10112.159    
     71000   283.25814     -3241.1326     -3257.4991      16.366453      8671.5312      10112.159    
     71100   290.28003     -3241.4179     -3258.19        16.772172      8523.37        10112.159    
     71200   312.46276     -3239.1826     -3257.2365      18.053875      9065.0446      10112.159    
     71300   300.61576     -3238.6899     -3256.0592      17.369364      9567.8861      10112.159    
     71400   308.04934     -3239.0028     -3256.8017      17.79887       8855.5153      10112.159    
     71500   305.51143     -3240.0161     -3257.6683      17.652232      8886.922       10112.159    
     71600   285.97759     -3241.0857     -3257.6093      16.52358       8729.784       10112.159    
     71700   292.10119     -3241.1283     -3258.0057      16.877398      8780.3203      10112.159    
     71800   306.18236     -3239.6519     -3257.3429      17.690998      8893.3821      10112.159    
     71900   310.61587     -3238.2405     -3256.1876      17.947163      9245.7552      10112.159    
     72000   302.36535     -3239.0012     -3256.4717      17.470454      9308.2686      10112.159    
     72100   313.99101     -3240.0272     -3258.1693      18.142176      8857.8891      10112.159    
     72200   283.00896     -3240.8736     -3257.2257      16.352055      9168.9938      10112.159    
     72300   305.27115     -3240.4837     -3258.1221      17.638349      8823.8749      10112.159    
     72400   299.61341     -3239.6253     -3256.9368      17.311449      8716.0851      10112.159    
     72500   318.77816     -3237.9621     -3256.3809      18.418774      9449.3465      10112.159    
     72600   306.98287     -3238.5776     -3256.3149      17.73725       9382.173       10112.159    
     72700   311.47002     -3239.5261     -3257.5226      17.996515      8795.7997      10112.159    
     72800   295.7399      -3240.4081     -3257.4958      17.08764       8624.7409      10112.159    
     72900   297.22221     -3240.4538     -3257.627       17.173287      8709.1805      10112.159    
     73000   304.89797     -3240.1183     -3257.7351      17.616787      8634.2439      10112.159    
     73100   284.1059      -3239.8246     -3256.24        16.415436      9077.1109      10112.159    
     73200   310.67932     -3237.9121     -3255.8629      17.950829      9432.689       10112.159    
     73300   315.59254     -3238.2021     -3256.4368      18.234711      9116.0472      10112.159    
     73400   324.57765     -3239.4133     -3258.1672      18.753865      8834.8732      10112.159    
     73500   279.18131     -3240.4828     -3256.6137      16.130897      9033.8957      10112.159    
     73600   278.06827     -3240.3563     -3256.4229      16.066586      9480.012       10112.159    
     73700   304.87624     -3239.722      -3257.3375      17.615531      8918.5642      10112.159    
     73800   326.36825     -3238.6765     -3257.5338      18.857324      9098.6823      10112.159    
     73900   319.94139     -3237.7127     -3256.1987      18.485985      9469.731       10112.159    
     74000   291.56485     -3239.0029     -3255.8493      16.846408      9361.0727      10112.159    
     74100   304.39721     -3240.5211     -3258.109       17.587853      8763.351       10112.159    
     74200   288.89582     -3240.6183     -3257.3105      16.692194      8822.1471      10112.159    
     74300   311.68857     -3239.5862     -3257.5953      18.009142      8844.8277      10112.159    
     74400   295.19294     -3239.2834     -3256.3395      17.056037      9451.6745      10112.159    
     74500   310.40949     -3239.0187     -3256.9539      17.935238      8943.3622      10112.159    
     74600   300.27072     -3240.2321     -3257.5816      17.349427      8676.5366      10112.159    
     74700   283.43092     -3241.0404     -3257.4168      16.376436      8637.5228      10112.159    
     74800   288.99964     -3240.4319     -3257.1301      16.698193      8717.1085      10112.159    
     74900   308.27644     -3239.2615     -3257.0735      17.811992      9029.5974      10112.159    
     75000   314.70148     -3238.3942     -3256.5774      18.183226      9261.7317      10112.159    
     75100   301.7205      -3238.4913     -3255.9245      17.433195      9276.5881      10112.159    
     75200   298.09436     -3240.3412     -3257.5649      17.223679      8675.9222      10112.159    
     75300   295.40652     -3241.1513     -3258.2197      17.068377      8482.1868      10112.159    
     75400   297.61656     -3240.7799     -3257.976       17.196072      8499.794       10112.159    
[...]
    281800   299.92881     -3240.0009     -3257.3306      17.329672      8639.9101      10112.159    
    281900   297.93649     -3240.9259     -3258.1405      17.214557      8594.7907      10112.159    
    282000   276.6842      -3241.7301     -3257.7167      15.986615      8602.8778      10112.159    
    282100   292.41395     -3241.5965     -3258.492       16.895469      8395.0748      10112.159    
    282200   291.04832     -3239.959      -3256.7756      16.816564      8881.1709      10112.159    
    282300   298.63056     -3239.0342     -3256.2888      17.25466       9359.8734      10112.159    
    282400   314.3968      -3239.0502     -3257.2158      18.165622      8954.4811      10112.159    
    282500   295.90048     -3240.1701     -3257.2671      17.096918      8856.0234      10112.159    
    282600   289.06522     -3241.0243     -3257.7263      16.701981      8654.2625      10112.159    
    282700   283.18753     -3241.062      -3257.4243      16.362373      8598.7214      10112.159    
    282800   305.46109     -3238.9837     -3256.6331      17.649324      9050.9053      10112.159    
    282900   315.62041     -3238.555      -3256.7913      18.236321      9140.2551      10112.159    
    283000   291.72768     -3239.3009     -3256.1567      16.855817      9184.3619      10112.159    
    283100   303.69149     -3240.5052     -3258.0523      17.547077      8929.6074      10112.159    
    283200   283.10005     -3241.2867     -3257.6441      16.357318      8474.8565      10112.159    
    283300   294.40732     -3240.7865     -3257.7971      17.010644      8774.2298      10112.159    
    283400   311.83314     -3239.8348     -3257.8523      18.017496      8937.3185      10112.159    
    283500   290.29573     -3239.3511     -3256.1242      16.773079      9210.7367      10112.159    
    283600   310.30302     -3239.2976     -3257.2267      17.929086      9095.1591      10112.159    
    283700   295.51001     -3239.7562     -3256.8306      17.074357      9202.4811      10112.159    
    283800   303.05257     -3240.0184     -3257.5285      17.510161      8555.1808      10112.159    
    283900   293.18365     -3240.1652     -3257.1052      16.939941      9016.1248      10112.159    
    284000   310.13473     -3239.1739     -3257.0933      17.919363      8914.8326      10112.159    
    284100   315.96859     -3238.069      -3256.3254      18.256439      9639.8487      10112.159    
    284200   316.2365      -3237.889      -3256.1609      18.271919      9373.9535      10112.159    
    284300   318.99099     -3239.2708     -3257.7018      18.431071      8564.258       10112.159    
    284400   276.37892     -3240.7222     -3256.6912      15.968976      9070.7505      10112.159    
    284500   306.86225     -3240.1592     -3257.8895      17.730282      8844.9756      10112.159    
    284600   288.45668     -3239.7921     -3256.4589      16.666821      9383.4811      10112.159    
    284700   330.20322     -3238.61       -3257.6889      19.078906      8739.8422      10112.159    
    284800   317.67729     -3238.6102     -3256.9654      18.355166      9234.1384      10112.159    
    284900   291.42004     -3240.3501     -3257.1881      16.838041      8899.8324      10112.159    
    285000   291.23249     -3241.0435     -3257.8707      16.827205      8820.7418      10112.159    
    285100   281.97252     -3240.8313     -3257.1235      16.292171      8877.0081      10112.159    
    285200   320.17235     -3239.3274     -3257.8267      18.49933       9008.2894      10112.159    
    285300   300.77296     -3239.0812     -3256.4597      17.378446      9217.2415      10112.159    
    285400   289.29531     -3239.4436     -3256.1588      16.715276      9324.261       10112.159    
    285500   288.35236     -3240.2584     -3256.9192      16.660793      9076.6439      10112.159    
    285600   293.94268     -3240.4027     -3257.3865      16.983798      9047.9048      10112.159    
    285700   311.18072     -3240.103      -3258.0828      17.9798        9080.744       10112.159    
    285800   294.86414     -3241.1985     -3258.2355      17.037039      8956.2023      10112.159    
    285900   273.87129     -3242.0962     -3257.9202      15.824087      8612.5233      10112.159    
    286000   282.29081     -3241.1852     -3257.4957      16.310561      8974.6914      10112.159    
    286100   289.02045     -3239.8291     -3256.5285      16.699395      9455.7989      10112.159    
    286200   304.65518     -3239.3333     -3256.9361      17.602758      9255.3432      10112.159    
    286300   320.5381      -3239.389      -3257.9094      18.520462      8917.9625      10112.159    
    286400   296.99261     -3240.4365     -3257.5965      17.160021      9334.9846      10112.159    
    286500   275.20714     -3241.9801     -3257.8814      15.901272      8741.5055      10112.159    
    286600   263.2235      -3241.8489     -3257.0578      15.208866      8968.9131      10112.159    
    286700   308.24734     -3240.7969     -3258.6072      17.810311      8517.1355      10112.159    
    286800   295.23643     -3240.3167     -3257.3752      17.05855       8804.9458      10112.159    
    286900   312.70531     -3239.2789     -3257.3468      18.067889      9296.4895      10112.159    
    287000   288.64175     -3239.2314     -3255.9089      16.677514      9370.5323      10112.159    
    287100   300.84261     -3239.1791     -3256.5616      17.382471      9085.7033      10112.159    
    287200   298.9906      -3240.4563     -3257.7317      17.275463      8910.6347      10112.159    
    287300   296.64405     -3241.1481     -3258.288       17.139881      8548.8199      10112.159    
    287400   306.8219      -3240.7638     -3258.4918      17.72795       8952.9571      10112.159    
    287500   290.96778     -3239.6217     -3256.4336      16.81191       9204.1256      10112.159    
    287600   318.28941     -3238.2609     -3256.6514      18.390535      9360.7058      10112.159    
    287700   298.21014     -3239.2983     -3256.5287      17.230369      9251.221       10112.159    
    287800   293.96762     -3240.0713     -3257.0566      16.985239      8978.3852      10112.159    
    287900   311.38936     -3240.0755     -3258.0673      17.991854      9074.3726      10112.159    
    288000   293.2226      -3240.7491     -3257.6913      16.942192      8722.4836      10112.159    
    288100   269.50723     -3241.9877     -3257.5596      15.571935      8653.1423      10112.159    
    288200   292.60177     -3241.1633     -3258.0696      16.906321      8738.3778      10112.159    
    288300   291.8856      -3239.8013     -3256.6663      16.864941      8799.2467      10112.159    
    288400   307.20156     -3239.4428     -3257.1927      17.749887      9072.9803      10112.159    
    288500   290.90943     -3239.7927     -3256.6012      16.808539      9145.614       10112.159    
    288600   307.63986     -3239.6335     -3257.4087      17.775211      8950.202       10112.159    
    288700   294.94356     -3239.9697     -3257.0114      17.041628      8974.0015      10112.159    
    288800   278.12227     -3240.8531     -3256.9228      16.069706      8945.7833      10112.159    
    288900   301.52214     -3240.825      -3258.2467      17.421733      8827.9372      10112.159    
    289000   301.94049     -3240.1845     -3257.6304      17.445905      8991.982       10112.159    
    289100   302.78069     -3238.7271     -3256.2215      17.494452      9219.6744      10112.159    
    289200   298.96559     -3238.5355     -3255.8096      17.274018      9433.356       10112.159    
    289300   309.08872     -3239.3017     -3257.1607      17.858925      9035.9067      10112.159    
    289400   299.87909     -3240.0716     -3257.3984      17.326799      9028.0275      10112.159    
    289500   302.12719     -3240.1569     -3257.6136      17.456693      9164.0927      10112.159    
    289600   288.93491     -3240.5059     -3257.2003      16.694452      8846.2325      10112.159    
    289700   301.71205     -3240.0657     -3257.4984      17.432707      8735.3574      10112.159    
    289800   314.86545     -3238.3958     -3256.5885      18.1927        9074.7103      10112.159    
    289900   307.6212      -3238.4179     -3256.192       17.774133      9703.5047      10112.159    
    290000   299.69925     -3239.1217     -3256.4381      17.316409      9119.9577      10112.159    
    290100   318.197       -3239.7585     -3258.1437      18.385195      8857.7933      10112.159    
    290200   284.38585     -3240.3868     -3256.8184      16.431611      9147.6432      10112.159    
    290300   313.06957     -3239.8607     -3257.9496      18.088936      8511.2973      10112.159    
    290400   281.35685     -3239.8244     -3256.081       16.256597      9185.7872      10112.159    
    290500   323.77232     -3238.3221     -3257.0295      18.707333      9203.14        10112.159    
    290600   314.87662     -3238.322      -3256.5153      18.193346      9127.7307      10112.159    
    290700   304.61941     -3240.1983     -3257.7989      17.600692      8697.0282      10112.159    
    290800   288.21044     -3240.957      -3257.6096      16.652593      8797.7655      10112.159    
    290900   287.03535     -3240.4214     -3257.0061      16.584697      8844.3954      10112.159    
    291000   303.99325     -3239.4597     -3257.0242      17.564512      9018.3566      10112.159    
    291100   287.09778     -3239.5812     -3256.1695      16.588304      9076.0354      10112.159    
    291200   302.94403     -3239.6958     -3257.1997      17.503889      9082.8448      10112.159    
    291300   300.16412     -3240.4363     -3257.7796      17.343268      8692.3278      10112.159    
    291400   297.48525     -3240.9485     -3258.137       17.188485      8794.5466      10112.159    
    291500   282.53913     -3240.7558     -3257.0807      16.324909      8845.8996      10112.159    
    291600   305.69938     -3239.3562     -3257.0193      17.663091      9005.9543      10112.159    
    291700   300.33422     -3238.9571     -3256.3102      17.353096      9153.9656      10112.159    
    291800   312.9482      -3239.0717     -3257.1536      18.081923      9143.9245      10112.159    
    291900   291.98736     -3240.9775     -3257.8483      16.870821      8563.5843      10112.159    
    292000   281.02693     -3241.4174     -3257.6549      16.237535      8416.7717      10112.159    
    292100   284.08028     -3240.6087     -3257.0227      16.413955      8634.4328      10112.159    
    292200   308.21771     -3239.5629     -3257.3715      17.808599      9305.7046      10112.159    
    292300   297.4084      -3239.4165     -3256.6005      17.184045      9040.0924      10112.159    
    292400   310.28271     -3239.1368     -3257.0647      17.927913      9083.6576      10112.159    
    292500   305.88059     -3238.963      -3256.6366      17.673562      9122.1581      10112.159    
    292600   299.90927     -3239.4316     -3256.7602      17.328543      8948.553       10112.159    
    292700   284.95863     -3240.6744     -3257.1391      16.464706      8931.7854      10112.159    
    292800   284.54716     -3241.0532     -3257.4942      16.440932      8656.6431      10112.159    
    292900   322.23185     -3239.8335     -3258.4518      18.618326      8287.3339      10112.159    
    293000   294.33306     -3239.3677     -3256.3741      17.006354      9063.498       10112.159    
    293100   303.73642     -3239.289      -3256.8387      17.549673      8903.9661      10112.159    
    293200   292.39055     -3239.9673     -3256.8614      16.894117      8725.2916      10112.159    
    293300   287.29266     -3241.801      -3258.4005      16.599564      8420.2872      10112.159    
    293400   286.57999     -3241.9764     -3258.5348      16.558387      8518.6686      10112.159    
    293500   303.30306     -3240.7801     -3258.3047      17.524634      8539.8613      10112.159    
    293600   292.07465     -3239.9865     -3256.8624      16.875864      8990.0031      10112.159    
    293700   294.55212     -3239.3716     -3256.3906      17.019011      9089.7198      10112.159    
    293800   303.31494     -3239.1401     -3256.6655      17.52532       9370.2532      10112.159    
    293900   313.09167     -3239.5408     -3257.631       18.090213      8894.8464      10112.159    
    294000   287.46726     -3241.1417     -3257.7513      16.609653      8653.1248      10112.159    
    294100   284.19745     -3241.5656     -3257.9863      16.420725      8504.1015      10112.159    
    294200   288.68958     -3240.8986     -3257.5788      16.680277      8848.0137      10112.159    
    294300   299.87082     -3239.8987     -3257.2251      17.326321      8968.9505      10112.159    
    294400   311.21199     -3239.081      -3257.0626      17.981606      9347.4109      10112.159    
    294500   295.41785     -3239.0129     -3256.082       17.069032      9394.6978      10112.159    
    294600   304.95724     -3239.4206     -3257.0408      17.620211      8774.7301      10112.159    
    294700   294.07556     -3240.9697     -3257.9612      16.991475      8772.5825      10112.159    
    294800   299.10237     -3241.3094     -3258.5913      17.281921      8764.334       10112.159    
    294900   285.47463     -3240.6967     -3257.1912      16.49452       8761.7962      10112.159    
    295000   302.46195     -3239.1511     -3256.6272      17.476035      9119.9736      10112.159    
    295100   294.07289     -3239.0982     -3256.0896      16.991321      9294.866       10112.159    
    295200   321.16256     -3238.9104     -3257.467       18.556543      8907.356       10112.159    
    295300   284.9827      -3240.1364     -3256.6025      16.466097      8948.4585      10112.159    
    295400   294.25852     -3240.7639     -3257.766       17.002047      8840.5574      10112.159    
    295500   288.44653     -3240.7484     -3257.4146      16.666234      8733.2078      10112.159    
    295600   296.56707     -3240.2696     -3257.4051      17.135433      8730.9819      10112.159    
    295700   308.66935     -3239.7336     -3257.5683      17.834694      8908.2894      10112.159    
    295800   289.35686     -3239.7087     -3256.4275      16.718832      9204.2744      10112.159    
    295900   320.82425     -3238.5418     -3257.0788      18.536996      9312.6899      10112.159    
    296000   316.05765     -3238.0499     -3256.3115      18.261585      9188.0567      10112.159    
    296100   307.32062     -3239.4073     -3257.1641      17.756766      9071.3685      10112.159    
    296200   288.52589     -3240.5713     -3257.2421      16.670819      8863.9104      10112.159    
    296300   291.38248     -3240.4647     -3257.3005      16.835871      8855.6242      10112.159    
    296400   306.53611     -3239.9749     -3257.6864      17.711437      8493.5442      10112.159    
    296500   315.26166     -3238.8667     -3257.0823      18.215593      8880.2045      10112.159    
    296600   308.15135     -3238.1764     -3255.9812      17.804764      9309.0959      10112.159    
    296700   293.28614     -3238.9538     -3255.8996      16.945864      9073.3699      10112.159    
    296800   307.14862     -3239.6967     -3257.4435      17.746827      8995.9852      10112.159    
    296900   302.52789     -3239.9244     -3257.4042      17.479845      8738.7048      10112.159    
    297000   299.70357     -3240.1264     -3257.4431      17.316658      8813.888       10112.159    
    297100   291.1167      -3240.1067     -3256.9272      16.820515      8992.4018      10112.159    
    297200   318.22436     -3238.6303     -3257.0171      18.386776      8989.2101      10112.159    
    297300   308.65835     -3237.9878     -3255.8218      17.834059      9283.6773      10112.159    
    297400   311.56835     -3237.6337     -3255.6359      18.002196      9406.5736      10112.159    
    297500   306.07173     -3239.6341     -3257.3187      17.684606      8920.0834      10112.159    
    297600   296.47416     -3240.3694     -3257.4995      17.130065      8811.0856      10112.159    
    297700   299.33633     -3240.1515     -3257.447       17.295439      8773.0331      10112.159    
    297800   304.32006     -3239.7658     -3257.3492      17.583396      9016.3798      10112.159    
    297900   285.65062     -3239.7914     -3256.2961      16.504689      8992.7148      10112.159    
    298000   304.25423     -3239.056      -3256.6356      17.579592      9159.4336      10112.159    
    298100   323.52821     -3238.5335     -3257.2267      18.693229      9028.3602      10112.159    
    298200   287.70692     -3239.7716     -3256.3951      16.6235        9007.7159      10112.159    
    298300   295.53887     -3240.3599     -3257.436       17.076025      8779.0773      10112.159    
    298400   300.00179     -3240.4668     -3257.8007      17.333889      8511.4534      10112.159    
    298500   299.20625     -3240.8237     -3258.1117      17.287923      8763.0039      10112.159    
    298600   287.52703     -3240.8322     -3257.4453      16.613106      8649.9413      10112.159    
    298700   299.22287     -3239.6498     -3256.9386      17.288883      8826.4741      10112.159    
    298800   301.74695     -3238.804      -3256.2387      17.434723      9380.1214      10112.159    
    298900   308.01049     -3239.0085     -3256.8052      17.796626      8996.9598      10112.159    
    299000   304.74664     -3240.3529     -3257.9609      17.608043      8605.1706      10112.159    
    299100   282.30855     -3241.1731     -3257.4847      16.311586      8718.4266      10112.159    
    299200   283.75252     -3240.8818     -3257.2768      16.395018      9181.6014      10112.159    
    299300   307.36454     -3240.3583     -3258.1176      17.759303      8551.0791      10112.159    
    299400   303.10004     -3239.9485     -3257.4614      17.512904      8696.2902      10112.159    
    299500   300.5986      -3239.0692     -3256.4375      17.368372      9180.8291      10112.159    
    299600   324.30135     -3237.9837     -3256.7216      18.7379        9072.5208      10112.159    
    299700   290.10445     -3238.9913     -3255.7534      16.762027      9292.9789      10112.159    
    299800   290.23152     -3240.8017     -3257.5711      16.76937       8786.2822      10112.159    
    299900   302.69347     -3240.7941     -3258.2836      17.489412      8768.3845      10112.159    
    300000   290.51731     -3240.338      -3257.1239      16.785883      8861.4952      10112.159    
Loop time of 2338.96 on 20 procs for 300000 steps with 448 atoms

Performance: 11.082 ns/day, 2.166 hours/ns, 128.262 timesteps/s, 57.461 katom-step/s
99.9% CPU use with 20 MPI tasks x 1 OpenMP threads

MPI task timing breakdown:
Section |  min time  |  avg time  |  max time  |%varavg| %total
---------------------------------------------------------------
Pair    | 1706.9     | 1990.6     | 2204       | 413.2 | 85.11
Neigh   | 19.712     | 24.047     | 31.708     |  67.3 |  1.03
Comm    | 100.16     | 321.06     | 608.84     |1045.5 | 13.73
Output  | 0.33508    | 0.50725    | 0.5712     |   6.7 |  0.02
Modify  | 2.0302     | 2.4902     | 2.8686     |  16.1 |  0.11
Other   |            | 0.2501     |            |       |  0.01

Nlocal:           22.4 ave          25 max          17 min
Histogram: 1 1 2 0 0 2 1 2 10 1
Nghost:          494.8 ave         522 max         465 min
Histogram: 4 0 4 3 1 0 0 0 1 7
Neighs:              0 ave           0 max           0 min
Histogram: 20 0 0 0 0 0 0 0 0 0
FullNghs:       1283.7 ave        1443 max         979 min
Histogram: 1 1 2 0 2 1 0 2 10 1

Total # of neighbors = 25674
Ave neighs/atom = 57.308036
Neighbor list builds = 300000
Dangerous builds not checked
Total wall time: 0:38:59
