ITEM: TIMESTEP
0
ITEM: NUMBER OF ATOMS
12
ITEM: BOX BOUNDS xy xz yz pp pp pp
-8.8344296827430302e-01 5.1364755065543157e+00 0.0000000000000000e+00
0.0000000000000000e+00 5.1934133375444702e+00 -8.8344296827430302e-01
0.0000000000000000e+00 5.2461598045212767e+00 0.0000000000000000e+00
ITEM: ATOMS id type c_dd[1] c_dd[2] c_dd[3] c_dd[4] c_dd[5] c_dd[6] c_dd[7] c_dd[8] c_dd[9] c_dd[10] c_dd[11] c_dd[12] c_dd[13] c_dd[14] c_dd[15] c_dd[16] c_dd[17] c_dd[18] c_dd[19] c_dd[20] c_dd[21] c_dd[22] c_dd[23] c_dd[24] c_dd[25] c_dd[26] c_dd[27] c_dd[28] c_dd[29] c_dd[30] c_dd[31] c_dd[32] c_dd[33] c_dd[34] c_dd[35] c_dd[36] c_dd[37] c_dd[38] c_dd[39] c_dd[40] c_dd[41] c_dd[42] c_dd[43] c_dd[44] c_dd[45] c_dd[46] c_dd[47] c_dd[48] c_dd[49] c_dd[50] c_dd[51] c_dd[52] c_dd[53] c_dd[54] c_dd[55] c_dd[56] c_dd[57] c_dd[58] c_dd[59] c_dd[60] c_dd[61] c_dd[62] c_dd[63] c_dd[64] c_dd[65] c_dd[66] c_dd[67] c_dd[68] c_dd[69] c_dd[70] c_dd[71] c_dd[72] c_dd[73] c_dd[74] c_dd[75] c_dd[76] c_dd[77] c_dd[78] c_dd[79] c_dd[80] c_dd[81] c_dd[82] c_dd[83] c_dd[84] c_dd[85] c_dd[86] c_dd[87] c_dd[88] c_dd[89] c_dd[90] c_dd[91] c_dd[92] c_dd[93] c_dd[94] c_dd[95] c_dd[96] c_dd[97] c_dd[98] c_dd[99] c_dd[100] c_dd[101] c_dd[102] c_dd[103] c_dd[104] c_dd[105] c_dd[106] c_dd[107] c_dd[108] c_dd[109] c_dd[110] c_dd[111] c_dd[112] c_dd[113] c_dd[114] c_dd[115] c_dd[116] c_dd[117] c_dd[118] c_dd[119] c_dd[120] c_dd[121] c_dd[122] c_dd[123] c_dd[124] c_dd[125] c_dd[126] c_dd[127] c_dd[128] c_dd[129] c_dd[130] c_dd[131] c_dd[132] c_dd[133] c_dd[134] c_dd[135] c_dd[136] c_dd[137] c_dd[138] c_dd[139] c_dd[140] c_dd[141] c_dd[142] c_dd[143] c_dd[144] c_dd[145] c_dd[146] c_dd[147] c_dd[148] c_dd[149] c_dd[150] c_dd[151] c_dd[152] c_dd[153] c_dd[154] c_dd[155] c_dd[156] c_dd[157] c_dd[158] c_dd[159] c_dd[160] c_dd[161] c_dd[162] c_dd[163] c_dd[164] c_dd[165] c_dd[166] c_dd[167] c_dd[168] c_dd[169] c_dd[170] c_dd[171] c_dd[172] c_dd[173] c_dd[174] c_dd[175] c_dd[176] c_dd[177] c_dd[178] c_dd[179] c_dd[180] c_dd[181] c_dd[182] c_dd[183] c_dd[184] c_dd[185] c_dd[186] c_dd[187] c_dd[188] c_dd[189] c_dd[190] c_dd[191] c_dd[192] c_dd[193] c_dd[194] c_dd[195] c_dd[196] c_dd[197] c_dd[198] c_dd[199] c_dd[200] c_dd[201] c_dd[202] c_dd[203] c_dd[204] c_dd[205] c_dd[206] c_dd[207] c_dd[208] c_dd[209] c_dd[210] c_dd[211] c_dd[212] c_dd[213] c_dd[214] c_dd[215] c_dd[216] c_dd[217] c_dd[218] c_dd[219] c_dd[220] c_dd[221] c_dd[222] c_dd[223] c_dd[224] c_dd[225] c_dd[226] c_dd[227] c_dd[228] c_dd[229] c_dd[230] c_dd[231] c_dd[232] c_dd[233] c_dd[234] c_dd[235] c_dd[236] c_dd[237] c_dd[238] c_dd[239] c_dd[240] c_dd[241] c_dd[242] c_dd[243] c_dd[244] c_dd[245] c_dd[246] c_dd[247] c_dd[248] c_dd[249] c_dd[250] c_dd[251] c_dd[252] c_dd[253] c_dd[254] c_dd[255] c_dd[256] c_dd[257] c_dd[258] c_dd[259] c_dd[260] c_dd[261] c_dd[262] c_dd[263] c_dd[264] c_dd[265] c_dd[266] c_dd[267] c_dd[268] c_dd[269] c_dd[270] c_dd[271] c_dd[272] c_dd[273] c_dd[274] c_dd[275] c_dd[276] c_dd[277] c_dd[278] c_dd[279] c_dd[280] c_dd[281] c_dd[282] c_dd[283] c_dd[284] c_dd[285] c_dd[286] c_dd[287] c_dd[288] c_dd[289] c_dd[290] c_dd[291] c_dd[292] c_dd[293] c_dd[294] c_dd[295] c_dd[296] c_dd[297] c_dd[298] c_dd[299] c_dd[300] c_dd[301] c_dd[302] c_dd[303] c_dd[304] c_dd[305] c_dd[306] c_dd[307] c_dd[308] c_dd[309] c_dd[310] c_dd[311] c_dd[312] c_dd[313] c_dd[314] c_dd[315] c_dd[316] c_dd[317] c_dd[318] c_dd[319] c_dd[320] c_dd[321] c_dd[322] c_dd[323] c_dd[324] c_dd[325] c_dd[326] c_dd[327] c_dd[328] c_dd[329] c_dd[330] c_dd[331] c_dd[332] c_dd[333] c_dd[334] c_dd[335] c_dd[336] c_dd[337] c_dd[338] c_dd[339] c_dd[340] c_dd[341] c_dd[342] c_dd[343] c_dd[344] c_dd[345] c_dd[346] c_dd[347] c_dd[348] c_dd[349] c_dd[350] c_dd[351] c_dd[352] c_dd[353] c_dd[354] c_dd[355] c_dd[356] c_dd[357] c_dd[358] c_dd[359] c_dd[360] c_dd[361] c_dd[362] c_dd[363] c_dd[364] c_dd[365] c_dd[366] c_dd[367] c_dd[368] c_dd[369] c_dd[370] c_dd[371] c_dd[372] c_dd[373] c_dd[374] c_dd[375] c_dd[376] c_dd[377] c_dd[378] c_dd[379] c_dd[380] c_dd[381] c_dd[382] c_dd[383] c_dd[384] c_dd[385] c_dd[386] c_dd[387] c_dd[388] c_dd[389] c_dd[390] c_dd[391] c_dd[392] c_dd[393] c_dd[394] c_dd[395] c_dd[396] c_dd[397] c_dd[398] c_dd[399] c_dd[400] c_dd[401] c_dd[402] c_dd[403] c_dd[404] c_dd[405] c_dd[406] c_dd[407] c_dd[408] c_dd[409] c_dd[410] c_dd[411] c_dd[412] c_dd[413] c_dd[414] c_dd[415] c_dd[416] c_dd[417] c_dd[418] c_dd[419] c_dd[420] c_dd[421] c_dd[422] c_dd[423] c_dd[424] c_dd[425] c_dd[426] c_dd[427] c_dd[428] c_dd[429] c_dd[430] c_dd[431] c_dd[432] c_dd[433] c_dd[434] c_dd[435] c_dd[436] c_dd[437] c_dd[438] c_dd[439] c_dd[440] c_dd[441] c_dd[442] c_dd[443] c_dd[444] c_dd[445] c_dd[446] c_dd[447] c_dd[448] c_dd[449] c_dd[450] c_dd[451] c_dd[452] c_dd[453] c_dd[454] c_dd[455] c_dd[456] c_dd[457] c_dd[458] c_dd[459] c_dd[460] c_dd[461] c_dd[462] c_dd[463] c_dd[464] c_dd[465] c_dd[466] c_dd[467] c_dd[468] c_dd[469] c_dd[470] c_dd[471] c_dd[472] c_dd[473] c_dd[474] c_dd[475] c_dd[476] c_dd[477] c_dd[478] c_dd[479] c_dd[480] c_dd[481] c_dd[482] c_dd[483] c_dd[484] c_dd[485] c_dd[486] c_dd[487] c_dd[488] c_dd[489] c_dd[490] c_dd[491] c_dd[492] c_dd[493] c_dd[494] c_dd[495] c_dd[496] c_dd[497] c_dd[498] c_dd[499] c_dd[500] c_dd[501] c_dd[502] c_dd[503] c_dd[504] c_dd[505] c_dd[506] c_dd[507] c_dd[508] c_dd[509] c_dd[510] c_dd[511] c_dd[512] c_dd[513] c_dd[514] c_dd[515] c_dd[516] c_dd[517] c_dd[518] c_dd[519] c_dd[520] c_dd[521] c_dd[522] c_dd[523] c_dd[524] c_dd[525] c_dd[526] c_dd[527] c_dd[528] c_dd[529] c_dd[530] c_dd[531] c_dd[532] c_dd[533] c_dd[534] c_dd[535] c_dd[536] c_dd[537] c_dd[538] c_dd[539] c_dd[540] c_dd[541] c_dd[542] c_dd[543] c_dd[544] c_dd[545] c_dd[546] c_dd[547] c_dd[548] c_dd[549] c_dd[550] c_dd[551] c_dd[552] c_dd[553] c_dd[554] c_dd[555] c_dd[556] c_dd[557] c_dd[558] c_dd[559] c_dd[560] c_dd[561] c_dd[562] c_dd[563] c_dd[564] c_dd[565] c_dd[566] c_dd[567] c_dd[568] c_dd[569] c_dd[570] c_dd[571] c_dd[572] c_dd[573] c_dd[574] c_dd[575] c_dd[576] c_dd[577] c_dd[578] c_dd[579] c_dd[580] c_dd[581] c_dd[582] c_dd[583] c_dd[584] c_dd[585] c_dd[586] c_dd[587] c_dd[588] c_dd[589] c_dd[590] c_dd[591] c_dd[592] c_dd[593] c_dd[594] c_dd[595] c_dd[596] c_dd[597] c_dd[598] c_dd[599] c_dd[600] c_dd[601] c_dd[602] c_dd[603] c_dd[604] c_dd[605] c_dd[606] c_dd[607] c_dd[608] c_dd[609] c_dd[610] c_dd[611] c_dd[612] c_dd[613] c_dd[614] c_dd[615] c_dd[616] c_dd[617] c_dd[618] c_dd[619] c_dd[620] c_dd[621] c_dd[622] c_dd[623] c_dd[624] c_dd[625] c_dd[626] c_dd[627] c_dd[628] c_dd[629] c_dd[630] c_dd[631] c_dd[632] c_dd[633] c_dd[634] c_dd[635] c_dd[636] c_dd[637] c_dd[638] c_dd[639] c_dd[640] c_dd[641] c_dd[642] c_dd[643] c_dd[644] c_dd[645] c_dd[646] c_dd[647] c_dd[648] c_dd[649] c_dd[650] c_dd[651] c_dd[652] c_dd[653] c_dd[654] c_dd[655] c_dd[656] c_dd[657] c_dd[658] c_dd[659] c_dd[660] c_dd[661] c_dd[662] c_dd[663] c_dd[664] c_dd[665] c_dd[666] c_dd[667] c_dd[668] c_dd[669] c_dd[670] c_dd[671] c_dd[672] c_dd[673] c_dd[674] c_dd[675] c_dd[676] c_dd[677] c_dd[678] c_dd[679] c_dd[680] c_dd[681] c_dd[682] c_dd[683] c_dd[684] c_dd[685] c_dd[686] c_dd[687] c_dd[688] c_dd[689] c_dd[690] c_dd[691] c_dd[692] c_dd[693] c_dd[694] c_dd[695] c_dd[696] c_dd[697] c_dd[698] c_dd[699] c_dd[700] c_dd[701] c_dd[702] c_dd[703] c_dd[704] c_dd[705] c_dd[706] c_dd[707] c_dd[708] c_dd[709] c_dd[710] c_dd[711] c_dd[712] c_dd[713] c_dd[714] c_dd[715] c_dd[716] c_dd[717] c_dd[718] c_dd[719] c_dd[720] c_dd[721] c_dd[722] c_dd[723] c_dd[724] c_dd[725] c_dd[726] c_dd[727] c_dd[728] c_dd[729] c_dd[730] c_dd[731] c_dd[732] c_dd[733] c_dd[734] c_dd[735] c_dd[736] c_dd[737] c_dd[738] c_dd[739] c_dd[740] c_dd[741] c_dd[742] c_dd[743] c_dd[744] c_dd[745] c_dd[746] c_dd[747] c_dd[748] c_dd[749] c_dd[750] c_dd[751] c_dd[752] c_dd[753] c_dd[754] c_dd[755] c_dd[756] c_dd[757] c_dd[758] c_dd[759] c_dd[760] c_dd[761] c_dd[762] c_dd[763] c_dd[764] c_dd[765] c_dd[766] c_dd[767] c_dd[768] c_dd[769] c_dd[770] c_dd[771] c_dd[772] c_dd[773] c_dd[774] c_dd[775] c_dd[776] c_dd[777] c_dd[778] c_dd[779] c_dd[780] c_dd[781] c_dd[782] c_dd[783] c_dd[784] c_dd[785] c_dd[786] c_dd[787] c_dd[788] c_dd[789] c_dd[790] c_dd[791] c_dd[792] c_dd[793] c_dd[794] c_dd[795] c_dd[796] c_dd[797] c_dd[798] c_dd[799] c_dd[800] c_dd[801] c_dd[802] c_dd[803] c_dd[804] c_dd[805] c_dd[806] c_dd[807] c_dd[808] c_dd[809] c_dd[810] c_dd[811] c_dd[812] c_dd[813] c_dd[814] c_dd[815] c_dd[816] c_dd[817] c_dd[818] c_dd[819] c_dd[820] c_dd[821] c_dd[822] c_dd[823] c_dd[824] c_dd[825] c_dd[826] c_dd[827] c_dd[828] c_dd[829] c_dd[830] c_dd[831] c_dd[832] c_dd[833] c_dd[834] c_dd[835] c_dd[836] c_dd[837] c_dd[838] c_dd[839] c_dd[840] c_dd[841] c_dd[842] c_dd[843] c_dd[844] c_dd[845] c_dd[846] c_dd[847] c_dd[848] c_dd[849] c_dd[850] c_dd[851] c_dd[852] c_dd[853] c_dd[854] c_dd[855] c_dd[856] c_dd[857] c_dd[858] c_dd[859] c_dd[860] c_dd[861] c_dd[862] c_dd[863] c_dd[864] c_dd[865] c_dd[866] c_dd[867] c_dd[868] c_dd[869] c_dd[870] c_dd[871] c_dd[872] c_dd[873] c_dd[874] c_dd[875] c_dd[876] c_dd[877] c_dd[878] c_dd[879] c_dd[880] c_dd[881] c_dd[882] c_dd[883] c_dd[884] c_dd[885] c_dd[886] c_dd[887] c_dd[888] c_dd[889] c_dd[890] c_dd[891] c_dd[892] c_dd[893] c_dd[894] c_dd[895] c_dd[896] c_dd[897] c_dd[898] c_dd[899] c_dd[900] c_dd[901] c_dd[902] c_dd[903] c_dd[904] c_dd[905] c_dd[906] c_dd[907] c_dd[908] c_dd[909] c_dd[910] c_dd[911] c_dd[912] c_dd[913] c_dd[914] c_dd[915] c_dd[916] c_dd[917] c_dd[918] c_dd[919] c_dd[920] c_dd[921] c_dd[922] c_dd[923] c_dd[924] c_dd[925] c_dd[926] c_dd[927] c_dd[928] c_dd[929] c_dd[930] c_dd[931] c_dd[932] c_dd[933] c_dd[934] c_dd[935] c_dd[936] c_dd[937] c_dd[938] c_dd[939] c_dd[940] c_dd[941] c_dd[942] c_dd[943] c_dd[944] c_dd[945] c_dd[946] c_dd[947] c_dd[948] c_dd[949] c_dd[950] c_dd[951] c_dd[952] c_dd[953] c_dd[954] c_dd[955] c_dd[956] c_dd[957] c_dd[958] c_dd[959] c_dd[960] c_dd[961] c_dd[962] c_dd[963] c_dd[964] c_dd[965] c_dd[966] c_dd[967] c_dd[968] c_dd[969] c_dd[970] c_dd[971] c_dd[972] c_dd[973] c_dd[974] c_dd[975] c_dd[976] c_dd[977] c_dd[978] c_dd[979] c_dd[980] c_dd[981] c_dd[982] c_dd[983] c_dd[984] c_dd[985] c_dd[986] c_dd[987] c_dd[988] c_dd[989] c_dd[990] c_dd[991] c_dd[992] c_dd[993] c_dd[994] c_dd[995] c_dd[996] c_dd[997] c_dd[998] c_dd[999] c_dd[1000] c_dd[1001] c_dd[1002] c_dd[1003] c_dd[1004] c_dd[1005] c_dd[1006] c_dd[1007] c_dd[1008] c_dd[1009] c_dd[1010] c_dd[1011] c_dd[1012] c_dd[1013] c_dd[1014] c_dd[1015] c_dd[1016] c_dd[1017] c_dd[1018] c_dd[1019] c_dd[1020] c_dd[1021] c_dd[1022] c_dd[1023] c_dd[1024] c_dd[1025] c_dd[1026] c_dd[1027] c_dd[1028] c_dd[1029] c_dd[1030] c_dd[1031] c_dd[1032] c_dd[1033] c_dd[1034] c_dd[1035] c_dd[1036] c_dd[1037] c_dd[1038] c_dd[1039] c_dd[1040] c_dd[1041] c_dd[1042] c_dd[1043] c_dd[1044] c_dd[1045] c_dd[1046] c_dd[1047] c_dd[1048] c_dd[1049] c_dd[1050] c_dd[1051] c_dd[1052] c_dd[1053] c_dd[1054] c_dd[1055] c_dd[1056] c_dd[1057] c_dd[1058] c_dd[1059] c_dd[1060] c_dd[1061] c_dd[1062] c_dd[1063] c_dd[1064] c_dd[1065] c_dd[1066] c_dd[1067] c_dd[1068] c_dd[1069] c_dd[1070] c_dd[1071] c_dd[1072] c_dd[1073] c_dd[1074] c_dd[1075] c_dd[1076] c_dd[1077] c_dd[1078] c_dd[1079] c_dd[1080] c_dd[1081] c_dd[1082] c_dd[1083] c_dd[1084] c_dd[1085] c_dd[1086] c_dd[1087] c_dd[1088] c_dd[1089] c_dd[1090] c_dd[1091] c_dd[1092] c_dd[1093] c_dd[1094] c_dd[1095] c_dd[1096] c_dd[1097] c_dd[1098] c_dd[1099] c_dd[1100] c_dd[1101] c_dd[1102] c_dd[1103] c_dd[1104] c_dd[1105] c_dd[1106] c_dd[1107] c_dd[1108] c_dd[1109] c_dd[1110] c_dd[1111] c_dd[1112] c_dd[1113] c_dd[1114] c_dd[1115] c_dd[1116] c_dd[1117] c_dd[1118] c_dd[1119] c_dd[1120] c_dd[1121] c_dd[1122] c_dd[1123] c_dd[1124] c_dd[1125] c_dd[1126] c_dd[1127] c_dd[1128] c_dd[1129] c_dd[1130] c_dd[1131] c_dd[1132] c_dd[1133] c_dd[1134] c_dd[1135] c_dd[1136] c_dd[1137] c_dd[1138] c_dd[1139] c_dd[1140] c_dd[1141] c_dd[1142] c_dd[1143] c_dd[1144] c_dd[1145] c_dd[1146] c_dd[1147] c_dd[1148] c_dd[1149] c_dd[1150] c_dd[1151] c_dd[1152] c_dd[1153] c_dd[1154] c_dd[1155] c_dd[1156] c_dd[1157] c_dd[1158] c_dd[1159] c_dd[1160] c_dd[1161] c_dd[1162] c_dd[1163] c_dd[1164] c_dd[1165] c_dd[1166] c_dd[1167] c_dd[1168] c_dd[1169] c_dd[1170] c_dd[1171] c_dd[1172] c_dd[1173] c_dd[1174] c_dd[1175] c_dd[1176] c_dd[1177] c_dd[1178] c_dd[1179] c_dd[1180] c_dd[1181] c_dd[1182] c_dd[1183] c_dd[1184] c_dd[1185] c_dd[1186] c_dd[1187] c_dd[1188] c_dd[1189] c_dd[1190] c_dd[1191] c_dd[1192] c_dd[1193] c_dd[1194] c_dd[1195] c_dd[1196] c_dd[1197] c_dd[1198] c_dd[1199] c_dd[1200] c_dd[1201] c_dd[1202] c_dd[1203] c_dd[1204] c_dd[1205] c_dd[1206] c_dd[1207] c_dd[1208] c_dd[1209] c_dd[1210] c_dd[1211] c_dd[1212] c_dd[1213] c_dd[1214] c_dd[1215] c_dd[1216] c_dd[1217] c_dd[1218] c_dd[1219] c_dd[1220] c_dd[1221] c_dd[1222] c_dd[1223] c_dd[1224] c_dd[1225] c_dd[1226] c_dd[1227] c_dd[1228] c_dd[1229] c_dd[1230] c_dd[1231] c_dd[1232] c_dd[1233] c_dd[1234] c_dd[1235] c_dd[1236] c_dd[1237] c_dd[1238] c_dd[1239] c_dd[1240] c_dd[1241] c_dd[1242] c_dd[1243] c_dd[1244] c_dd[1245] c_dd[1246] c_dd[1247] c_dd[1248] c_dd[1249] c_dd[1250] c_dd[1251] c_dd[1252] c_dd[1253] c_dd[1254] c_dd[1255] c_dd[1256] c_dd[1257] c_dd[1258] c_dd[1259] c_dd[1260] c_dd[1261] c_dd[1262] c_dd[1263] c_dd[1264] c_dd[1265] c_dd[1266] c_dd[1267] c_dd[1268] c_dd[1269] c_dd[1270] c_dd[1271] c_dd[1272] c_dd[1273] c_dd[1274] c_dd[1275] c_dd[1276] c_dd[1277] c_dd[1278] c_dd[1279] c_dd[1280] c_dd[1281] c_dd[1282] c_dd[1283] c_dd[1284] c_dd[1285] c_dd[1286] c_dd[1287] c_dd[1288] c_dd[1289] c_dd[1290] c_dd[1291] c_dd[1292] c_dd[1293] c_dd[1294] c_dd[1295] c_dd[1296] c_dd[1297] c_dd[1298] c_dd[1299] c_dd[1300] c_dd[1301] c_dd[1302] c_dd[1303] c_dd[1304] c_dd[1305] c_dd[1306] c_dd[1307] c_dd[1308] c_dd[1309] c_dd[1310] c_dd[1311] c_dd[1312] c_dd[1313] c_dd[1314] c_dd[1315] c_dd[1316] c_dd[1317] c_dd[1318] c_dd[1319] c_dd[1320] c_dd[1321] c_dd[1322] c_dd[1323] c_dd[1324] c_dd[1325] c_dd[1326] c_dd[1327] c_dd[1328] c_dd[1329] c_dd[1330] c_dd[1331] c_dd[1332] c_dd[1333] c_dd[1334] c_dd[1335] c_dd[1336] c_dd[1337] c_dd[1338] c_dd[1339] c_dd[1340] c_dd[1341] c_dd[1342] c_dd[1343] c_dd[1344] c_dd[1345] c_dd[1346] c_dd[1347] c_dd[1348] c_dd[1349] c_dd[1350] c_dd[1351] c_dd[1352] c_dd[1353] c_dd[1354] c_dd[1355] c_dd[1356] c_dd[1357] c_dd[1358] c_dd[1359] c_dd[1360] c_dd[1361] c_dd[1362] c_dd[1363] c_dd[1364] c_dd[1365] c_dd[1366] c_dd[1367] c_dd[1368] c_dd[1369] c_dd[1370] c_dd[1371] c_dd[1372] c_dd[1373] c_dd[1374] c_dd[1375] c_dd[1376] c_dd[1377] c_dd[1378] c_dd[1379] c_dd[1380] c_dd[1381] c_dd[1382] c_dd[1383] c_dd[1384] c_dd[1385] c_dd[1386] c_dd[1387] c_dd[1388] c_dd[1389] c_dd[1390] c_dd[1391] c_dd[1392] c_dd[1393] c_dd[1394] c_dd[1395] c_dd[1396] c_dd[1397] c_dd[1398] c_dd[1399] c_dd[1400] c_dd[1401] c_dd[1402] c_dd[1403] c_dd[1404] c_dd[1405] c_dd[1406] c_dd[1407] c_dd[1408] c_dd[1409] c_dd[1410] c_dd[1411] c_dd[1412] c_dd[1413] c_dd[1414] c_dd[1415] c_dd[1416] c_dd[1417] c_dd[1418] c_dd[1419] c_dd[1420] c_dd[1421] c_dd[1422] c_dd[1423] c_dd[1424] c_dd[1425] c_dd[1426] c_dd[1427] c_dd[1428] c_dd[1429] c_dd[1430] c_dd[1431] c_dd[1432] c_dd[1433] c_dd[1434] c_dd[1435] c_dd[1436] c_dd[1437] c_dd[1438] c_dd[1439] c_dd[1440] c_dd[1441] c_dd[1442] c_dd[1443] c_dd[1444] c_dd[1445] c_dd[1446] c_dd[1447] c_dd[1448] c_dd[1449] c_dd[1450] c_dd[1451] c_dd[1452] c_dd[1453] c_dd[1454] c_dd[1455] c_dd[1456] c_dd[1457] c_dd[1458] c_dd[1459] c_dd[1460] c_dd[1461] c_dd[1462] c_dd[1463] c_dd[1464] c_dd[1465] c_dd[1466] c_dd[1467] c_dd[1468] c_dd[1469] c_dd[1470] c_dd[1471] c_dd[1472] c_dd[1473] c_dd[1474] c_dd[1475] c_dd[1476] c_dd[1477] c_dd[1478] c_dd[1479] c_dd[1480] c_dd[1481] c_dd[1482] c_dd[1483] c_dd[1484] c_dd[1485] c_dd[1486] c_dd[1487] c_dd[1488] c_dd[1489] c_dd[1490] c_dd[1491] c_dd[1492] c_dd[1493] c_dd[1494] c_dd[1495] c_dd[1496] c_dd[1497] c_dd[1498] c_dd[1499] c_dd[1500] c_dd[1501] c_dd[1502] c_dd[1503] c_dd[1504] c_dd[1505] c_dd[1506] c_dd[1507] c_dd[1508] c_dd[1509] c_dd[1510] c_dd[1511] c_dd[1512] c_dd[1513] c_dd[1514] c_dd[1515] c_dd[1516] c_dd[1517] c_dd[1518] c_dd[1519] c_dd[1520] c_dd[1521] c_dd[1522] c_dd[1523] c_dd[1524] c_dd[1525] c_dd[1526] c_dd[1527] c_dd[1528] c_dd[1529] c_dd[1530] c_dd[1531] c_dd[1532] c_dd[1533] c_dd[1534] c_dd[1535] c_dd[1536] c_dd[1537] c_dd[1538] c_dd[1539] c_dd[1540] c_dd[1541] c_dd[1542] c_dd[1543] c_dd[1544] c_dd[1545] c_dd[1546] c_dd[1547] c_dd[1548] c_dd[1549] c_dd[1550] c_dd[1551] c_dd[1552] c_dd[1553] c_dd[1554] c_dd[1555] c_dd[1556] c_dd[1557] c_dd[1558] c_dd[1559] c_dd[1560] c_dd[1561] c_dd[1562] c_dd[1563] c_dd[1564] c_dd[1565] c_dd[1566] c_dd[1567] c_dd[1568] c_dd[1569] c_dd[1570] c_dd[1571] c_dd[1572] c_dd[1573] c_dd[1574] c_dd[1575] c_dd[1576] c_dd[1577] c_dd[1578] c_dd[1579] c_dd[1580] c_dd[1581] c_dd[1582] c_dd[1583] c_dd[1584] c_dd[1585] c_dd[1586] c_dd[1587] c_dd[1588] c_dd[1589] c_dd[1590] c_dd[1591] c_dd[1592] c_dd[1593] c_dd[1594] c_dd[1595] c_dd[1596] c_dd[1597] c_dd[1598] c_dd[1599] c_dd[1600] c_dd[1601] c_dd[1602] c_dd[1603] c_dd[1604] c_dd[1605] c_dd[1606] c_dd[1607] c_dd[1608] c_dd[1609] c_dd[1610] c_dd[1611] c_dd[1612] c_dd[1613] c_dd[1614] c_dd[1615] c_dd[1616] c_dd[1617] c_dd[1618] c_dd[1619] c_dd[1620] c_dd[1621] c_dd[1622] c_dd[1623] c_dd[1624] c_dd[1625] c_dd[1626] c_dd[1627] c_dd[1628] c_dd[1629] c_dd[1630] c_dd[1631] c_dd[1632] c_dd[1633] c_dd[1634] c_dd[1635] c_dd[1636] c_dd[1637] c_dd[1638] c_dd[1639] c_dd[1640] c_dd[1641] c_dd[1642] c_dd[1643] c_dd[1644] c_dd[1645] c_dd[1646] c_dd[1647] c_dd[1648] c_dd[1649] c_dd[1650] c_dd[1651] c_dd[1652] c_dd[1653] c_dd[1654] c_dd[1655] c_dd[1656] c_dd[1657] c_dd[1658] c_dd[1659] c_dd[1660] c_dd[1661] c_dd[1662] c_dd[1663] c_dd[1664] c_dd[1665] c_dd[1666] c_dd[1667] c_dd[1668] c_dd[1669] c_dd[1670] c_dd[1671] c_dd[1672] c_dd[1673] c_dd[1674] c_dd[1675] c_dd[1676] c_dd[1677] c_dd[1678] c_dd[1679] c_dd[1680] c_dd[1681] c_dd[1682] c_dd[1683] c_dd[1684] c_dd[1685] c_dd[1686] c_dd[1687] c_dd[1688] c_dd[1689] c_dd[1690] c_dd[1691] c_dd[1692] c_dd[1693] c_dd[1694] c_dd[1695] c_dd[1696] c_dd[1697] c_dd[1698] c_dd[1699] c_dd[1700] c_dd[1701] c_dd[1702] c_dd[1703] c_dd[1704] c_dd[1705] c_dd[1706] c_dd[1707] c_dd[1708] c_dd[1709] c_dd[1710] c_dd[1711] c_dd[1712] c_dd[1713] c_dd[1714] c_dd[1715] c_dd[1716] c_dd[1717] c_dd[1718] c_dd[1719] c_dd[1720] c_dd[1721] c_dd[1722] c_dd[1723] c_dd[1724] c_dd[1725] c_dd[1726] c_dd[1727] c_dd[1728] c_dd[1729] c_dd[1730] c_dd[1731] c_dd[1732] c_dd[1733] c_dd[1734] c_dd[1735] c_dd[1736] c_dd[1737] c_dd[1738] c_dd[1739] c_dd[1740] c_dd[1741] c_dd[1742] c_dd[1743] c_dd[1744] c_dd[1745] c_dd[1746] c_dd[1747] c_dd[1748] c_dd[1749] c_dd[1750] c_dd[1751] c_dd[1752] c_dd[1753] c_dd[1754] c_dd[1755] c_dd[1756] c_dd[1757] c_dd[1758] c_dd[1759] c_dd[1760] c_dd[1761] c_dd[1762] c_dd[1763] c_dd[1764] c_dd[1765] c_dd[1766] c_dd[1767] c_dd[1768] c_dd[1769] c_dd[1770] c_dd[1771] c_dd[1772] c_dd[1773] c_dd[1774] c_dd[1775] c_dd[1776] c_dd[1777] c_dd[1778] c_dd[1779] c_dd[1780] c_dd[1781] c_dd[1782] c_dd[1783] c_dd[1784] c_dd[1785] c_dd[1786] c_dd[1787] c_dd[1788] c_dd[1789] c_dd[1790] c_dd[1791] c_dd[1792] c_dd[1793] c_dd[1794] c_dd[1795] c_dd[1796] c_dd[1797] c_dd[1798] c_dd[1799] c_dd[1800] c_dd[1801] c_dd[1802] c_dd[1803] c_dd[1804] c_dd[1805] c_dd[1806] c_dd[1807] c_dd[1808] c_dd[1809] c_dd[1810] c_dd[1811] c_dd[1812] c_dd[1813] c_dd[1814] c_dd[1815] c_dd[1816] c_dd[1817] c_dd[1818] c_dd[1819] c_dd[1820] c_dd[1821] c_dd[1822] c_dd[1823] c_dd[1824] c_dd[1825] c_dd[1826] c_dd[1827] c_dd[1828] c_dd[1829] c_dd[1830] c_dd[1831] c_dd[1832] c_dd[1833] c_dd[1834] c_dd[1835] c_dd[1836] c_dd[1837] c_dd[1838] c_dd[1839] c_dd[1840] c_dd[1841] c_dd[1842] c_dd[1843] c_dd[1844] c_dd[1845] c_dd[1846] c_dd[1847] c_dd[1848] c_dd[1849] c_dd[1850] c_dd[1851] c_dd[1852] c_dd[1853] c_dd[1854] c_dd[1855] c_dd[1856] c_dd[1857] c_dd[1858] c_dd[1859] c_dd[1860] c_dd[1861] c_dd[1862] c_dd[1863] c_dd[1864] c_dd[1865] c_dd[1866] c_dd[1867] c_dd[1868] c_dd[1869] c_dd[1870] c_dd[1871] c_dd[1872] c_dd[1873] c_dd[1874] c_dd[1875] c_dd[1876] c_dd[1877] c_dd[1878] c_dd[1879] c_dd[1880] c_dd[1881] c_dd[1882] c_dd[1883] c_dd[1884] c_dd[1885] c_dd[1886] c_dd[1887] c_dd[1888] c_dd[1889] c_dd[1890] c_dd[1891] c_dd[1892] c_dd[1893] c_dd[1894] c_dd[1895] c_dd[1896] c_dd[1897] c_dd[1898] c_dd[1899] c_dd[1900] c_dd[1901] c_dd[1902] c_dd[1903] c_dd[1904] c_dd[1905] c_dd[1906] c_dd[1907] c_dd[1908] c_dd[1909] c_dd[1910] c_dd[1911] c_dd[1912] c_dd[1913] c_dd[1914] c_dd[1915] c_dd[1916] c_dd[1917] c_dd[1918] c_dd[1919] c_dd[1920] c_dd[1921] c_dd[1922] c_dd[1923] c_dd[1924] c_dd[1925] c_dd[1926] c_dd[1927] c_dd[1928] c_dd[1929] c_dd[1930] c_dd[1931] c_dd[1932] c_dd[1933] c_dd[1934] c_dd[1935] c_dd[1936] c_dd[1937] c_dd[1938] c_dd[1939] c_dd[1940] c_dd[1941] c_dd[1942] c_dd[1943] c_dd[1944] c_dd[1945] c_dd[1946] c_dd[1947] c_dd[1948] c_dd[1949] c_dd[1950] c_dd[1951] c_dd[1952] c_dd[1953] c_dd[1954] c_dd[1955] c_dd[1956] c_dd[1957] c_dd[1958] c_dd[1959] c_dd[1960] c_dd[1961] c_dd[1962] c_dd[1963] c_dd[1964] c_dd[1965] c_dd[1966] c_dd[1967] c_dd[1968] c_dd[1969] c_dd[1970] c_dd[1971] c_dd[1972] c_dd[1973] c_dd[1974] c_dd[1975] c_dd[1976] c_dd[1977] c_dd[1978] c_dd[1979] c_dd[1980] c_dd[1981] c_dd[1982] c_dd[1983] c_dd[1984] c_dd[1985] c_dd[1986] c_dd[1987] c_dd[1988] c_dd[1989] c_dd[1990] c_dd[1991] c_dd[1992] c_dd[1993] c_dd[1994] c_dd[1995] c_dd[1996] c_dd[1997] c_dd[1998] c_dd[1999] c_dd[2000] c_dd[2001] c_dd[2002] c_dd[2003] c_dd[2004] c_dd[2005] c_dd[2006] c_dd[2007] c_dd[2008] c_dd[2009] c_dd[2010] c_dd[2011] c_dd[2012] c_dd[2013] c_dd[2014] c_dd[2015] c_dd[2016] c_dd[2017] c_dd[2018] c_dd[2019] c_dd[2020] c_dd[2021] c_dd[2022] c_dd[2023] c_dd[2024] c_dd[2025] c_dd[2026] c_dd[2027] c_dd[2028] c_dd[2029] c_dd[2030] c_dd[2031] c_dd[2032] c_dd[2033] c_dd[2034] c_dd[2035] c_dd[2036] c_dd[2037] c_dd[2038] c_dd[2039] c_dd[2040] c_dd[2041] c_dd[2042] c_dd[2043] c_dd[2044] c_dd[2045] c_dd[2046] c_dd[2047] c_dd[2048] c_dd[2049] c_dd[2050] c_dd[2051] c_dd[2052] c_dd[2053] c_dd[2054] c_dd[2055] c_dd[2056] c_dd[2057] c_dd[2058] c_dd[2059] c_dd[2060] c_dd[2061] c_dd[2062] c_dd[2063] c_dd[2064] c_dd[2065] c_dd[2066] c_dd[2067] c_dd[2068] c_dd[2069] c_dd[2070] c_dd[2071] c_dd[2072] c_dd[2073] c_dd[2074] c_dd[2075] c_dd[2076] c_dd[2077] c_dd[2078] c_dd[2079] c_dd[2080] c_dd[2081] c_dd[2082] c_dd[2083] c_dd[2084] c_dd[2085] c_dd[2086] c_dd[2087] c_dd[2088] c_dd[2089] c_dd[2090] c_dd[2091] c_dd[2092] c_dd[2093] c_dd[2094] c_dd[2095] c_dd[2096] c_dd[2097] c_dd[2098] c_dd[2099] c_dd[2100] c_dd[2101] c_dd[2102] c_dd[2103] c_dd[2104] c_dd[2105] c_dd[2106] c_dd[2107] c_dd[2108] c_dd[2109] c_dd[2110] c_dd[2111] c_dd[2112] c_dd[2113] c_dd[2114] c_dd[2115] c_dd[2116] c_dd[2117] c_dd[2118] c_dd[2119] c_dd[2120] c_dd[2121] c_dd[2122] c_dd[2123] c_dd[2124] c_dd[2125] c_dd[2126] c_dd[2127] c_dd[2128] c_dd[2129] c_dd[2130] c_dd[2131] c_dd[2132] c_dd[2133] c_dd[2134] c_dd[2135] c_dd[2136] c_dd[2137] c_dd[2138] c_dd[2139] c_dd[2140] c_dd[2141] c_dd[2142] c_dd[2143] c_dd[2144] c_dd[2145] c_dd[2146] c_dd[2147] c_dd[2148] c_dd[2149] c_dd[2150] c_dd[2151] c_dd[2152] c_dd[2153] c_dd[2154] c_dd[2155] c_dd[2156] c_dd[2157] c_dd[2158] c_dd[2159] c_dd[2160] c_dd[2161] c_dd[2162] c_dd[2163] c_dd[2164] c_dd[2165] c_dd[2166] c_dd[2167] c_dd[2168] c_dd[2169] c_dd[2170] c_dd[2171] c_dd[2172] c_dd[2173] c_dd[2174] c_dd[2175] c_dd[2176] c_dd[2177] c_dd[2178] c_dd[2179] c_dd[2180] c_dd[2181] c_dd[2182] c_dd[2183] c_dd[2184] c_dd[2185] c_dd[2186] c_dd[2187] c_dd[2188] c_dd[2189] c_dd[2190] c_dd[2191] c_dd[2192] c_dd[2193] c_dd[2194] c_dd[2195] c_dd[2196] c_dd[2197] c_dd[2198] c_dd[2199] c_dd[2200] c_dd[2201] c_dd[2202] c_dd[2203] c_dd[2204] c_dd[2205] c_dd[2206] c_dd[2207] c_dd[2208] c_dd[2209] c_dd[2210] c_dd[2211] c_dd[2212] c_dd[2213] c_dd[2214] c_dd[2215] c_dd[2216] c_dd[2217] c_dd[2218] c_dd[2219] c_dd[2220] c_dd[2221] c_dd[2222] c_dd[2223] c_dd[2224] c_dd[2225] c_dd[2226] c_dd[2227] c_dd[2228] c_dd[2229] c_dd[2230] c_dd[2231] c_dd[2232] c_dd[2233] c_dd[2234] c_dd[2235] c_dd[2236] c_dd[2237] c_dd[2238] c_dd[2239] c_dd[2240] c_dd[2241] c_dd[2242] c_dd[2243] c_dd[2244] c_dd[2245] c_dd[2246] c_dd[2247] c_dd[2248] c_dd[2249] c_dd[2250] c_dd[2251] c_dd[2252] c_dd[2253] c_dd[2254] c_dd[2255] c_dd[2256] c_dd[2257] c_dd[2258] c_dd[2259] c_dd[2260] c_dd[2261] c_dd[2262] c_dd[2263] c_dd[2264] c_dd[2265] c_dd[2266] c_dd[2267] c_dd[2268] c_dd[2269] c_dd[2270] c_dd[2271] c_dd[2272] c_dd[2273] c_dd[2274] c_dd[2275] c_dd[2276] c_dd[2277] c_dd[2278] c_dd[2279] c_dd[2280] c_dd[2281] c_dd[2282] c_dd[2283] c_dd[2284] c_dd[2285] c_dd[2286] c_dd[2287] c_dd[2288] c_dd[2289] c_dd[2290] c_dd[2291] c_dd[2292] c_dd[2293] c_dd[2294] c_dd[2295] c_dd[2296] c_dd[2297] c_dd[2298] c_dd[2299] c_dd[2300] c_dd[2301] c_dd[2302] c_dd[2303] c_dd[2304] c_dd[2305] c_dd[2306] c_dd[2307] c_dd[2308] c_dd[2309] c_dd[2310] c_dd[2311] c_dd[2312] c_dd[2313] c_dd[2314] c_dd[2315] c_dd[2316] c_dd[2317] c_dd[2318] c_dd[2319] c_dd[2320] c_dd[2321] c_dd[2322] c_dd[2323] c_dd[2324] c_dd[2325] c_dd[2326] c_dd[2327] c_dd[2328] c_dd[2329] c_dd[2330] c_dd[2331] c_dd[2332] c_dd[2333] c_dd[2334] c_dd[2335] c_dd[2336] c_dd[2337] c_dd[2338] c_dd[2339] c_dd[2340] c_dd[2341] c_dd[2342] c_dd[2343] c_dd[2344] c_dd[2345] c_dd[2346] c_dd[2347] c_dd[2348] c_dd[2349] c_dd[2350] c_dd[2351] c_dd[2352] c_dd[2353] c_dd[2354] c_dd[2355] c_dd[2356] c_dd[2357] c_dd[2358] c_dd[2359] c_dd[2360] c_dd[2361] c_dd[2362] c_dd[2363] c_dd[2364] c_dd[2365] c_dd[2366] c_dd[2367] c_dd[2368] c_dd[2369] c_dd[2370] c_dd[2371] c_dd[2372] c_dd[2373] c_dd[2374] c_dd[2375] c_dd[2376] c_dd[2377] c_dd[2378] c_dd[2379] c_dd[2380] c_dd[2381] c_dd[2382] c_dd[2383] c_dd[2384] c_dd[2385] c_dd[2386] c_dd[2387] c_dd[2388] c_dd[2389] c_dd[2390] c_dd[2391] c_dd[2392] c_dd[2393] c_dd[2394] c_dd[2395] c_dd[2396] c_dd[2397] c_dd[2398] c_dd[2399] c_dd[2400] c_dd[2401] c_dd[2402] c_dd[2403] c_dd[2404] c_dd[2405] c_dd[2406] c_dd[2407] c_dd[2408] c_dd[2409] c_dd[2410] c_dd[2411] c_dd[2412] c_dd[2413] c_dd[2414] c_dd[2415] c_dd[2416] c_dd[2417] c_dd[2418] c_dd[2419] c_dd[2420] c_dd[2421] c_dd[2422] c_dd[2423] c_dd[2424] c_dd[2425] c_dd[2426] c_dd[2427] c_dd[2428] c_dd[2429] c_dd[2430] c_dd[2431] c_dd[2432] c_dd[2433] c_dd[2434] c_dd[2435] c_dd[2436] c_dd[2437] c_dd[2438] c_dd[2439] c_dd[2440] c_dd[2441] c_dd[2442] c_dd[2443] c_dd[2444] c_dd[2445] c_dd[2446] c_dd[2447] c_dd[2448] c_dd[2449] c_dd[2450] c_dd[2451] c_dd[2452] c_dd[2453] c_dd[2454] c_dd[2455] c_dd[2456] c_dd[2457] c_dd[2458] c_dd[2459] c_dd[2460] c_dd[2461] c_dd[2462] c_dd[2463] c_dd[2464] c_dd[2465] c_dd[2466] c_dd[2467] c_dd[2468] c_dd[2469] c_dd[2470] c_dd[2471] c_dd[2472] c_dd[2473] c_dd[2474] c_dd[2475] c_dd[2476] c_dd[2477] c_dd[2478] c_dd[2479] c_dd[2480] c_dd[2481] c_dd[2482] c_dd[2483] c_dd[2484] c_dd[2485] c_dd[2486] c_dd[2487] c_dd[2488] c_dd[2489] c_dd[2490] c_dd[2491] c_dd[2492] c_dd[2493] c_dd[2494] c_dd[2495] c_dd[2496] c_dd[2497] c_dd[2498] c_dd[2499] c_dd[2500] c_dd[2501] c_dd[2502] c_dd[2503] c_dd[2504] c_dd[2505] c_dd[2506] c_dd[2507] c_dd[2508] c_dd[2509] c_dd[2510] c_dd[2511] c_dd[2512] c_dd[2513] c_dd[2514] c_dd[2515] c_dd[2516] c_dd[2517] c_dd[2518] c_dd[2519] c_dd[2520] c_dd[2521] c_dd[2522] c_dd[2523] c_dd[2524] c_dd[2525] c_dd[2526] c_dd[2527] c_dd[2528] c_dd[2529] c_dd[2530] c_dd[2531] c_dd[2532] c_dd[2533] c_dd[2534] c_dd[2535] c_dd[2536] c_dd[2537] c_dd[2538] c_dd[2539] c_dd[2540] c_dd[2541] c_dd[2542] c_dd[2543] c_dd[2544] c_dd[2545] c_dd[2546] c_dd[2547] c_dd[2548] c_dd[2549] c_dd[2550] c_dd[2551] c_dd[2552] c_dd[2553] c_dd[2554] c_dd[2555] c_dd[2556] c_dd[2557] c_dd[2558] c_dd[2559] c_dd[2560] c_dd[2561] c_dd[2562] c_dd[2563] c_dd[2564] c_dd[2565] c_dd[2566] c_dd[2567] c_dd[2568] c_dd[2569] c_dd[2570] c_dd[2571] c_dd[2572] c_dd[2573] c_dd[2574] c_dd[2575] c_dd[2576] c_dd[2577] c_dd[2578] c_dd[2579] c_dd[2580] c_dd[2581] c_dd[2582] c_dd[2583] c_dd[2584] c_dd[2585] c_dd[2586] c_dd[2587] c_dd[2588] c_dd[2589] c_dd[2590] c_dd[2591] c_dd[2592] c_dd[2593] c_dd[2594] c_dd[2595] c_dd[2596] c_dd[2597] c_dd[2598] c_dd[2599] c_dd[2600] c_dd[2601] c_dd[2602] c_dd[2603] c_dd[2604] c_dd[2605] c_dd[2606] c_dd[2607] c_dd[2608] c_dd[2609] c_dd[2610] c_dd[2611] c_dd[2612] c_dd[2613] c_dd[2614] c_dd[2615] c_dd[2616] c_dd[2617] c_dd[2618] c_dd[2619] c_dd[2620] c_dd[2621] c_dd[2622] c_dd[2623] c_dd[2624] c_dd[2625] c_dd[2626] c_dd[2627] c_dd[2628] c_dd[2629] c_dd[2630] c_dd[2631] c_dd[2632] c_dd[2633] c_dd[2634] c_dd[2635] c_dd[2636] c_dd[2637] c_dd[2638] c_dd[2639] c_dd[2640] c_dd[2641] c_dd[2642] c_dd[2643] c_dd[2644] c_dd[2645] c_dd[2646] c_dd[2647] c_dd[2648] c_dd[2649] c_dd[2650] c_dd[2651] c_dd[2652] c_dd[2653] c_dd[2654] c_dd[2655] c_dd[2656] c_dd[2657] c_dd[2658] c_dd[2659] c_dd[2660] c_dd[2661] c_dd[2662] c_dd[2663] c_dd[2664] c_dd[2665] c_dd[2666] c_dd[2667] c_dd[2668] c_dd[2669] c_dd[2670] c_dd[2671] c_dd[2672] c_dd[2673] c_dd[2674] c_dd[2675] c_dd[2676] c_dd[2677] c_dd[2678] c_dd[2679] c_dd[2680] c_dd[2681] c_dd[2682] c_dd[2683] c_dd[2684] c_dd[2685] c_dd[2686] c_dd[2687] c_dd[2688] c_dd[2689] c_dd[2690] c_dd[2691] c_dd[2692] c_dd[2693] c_dd[2694] c_dd[2695] c_dd[2696] c_dd[2697] c_dd[2698] c_dd[2699] c_dd[2700] c_dd[2701] c_dd[2702] c_dd[2703] c_dd[2704] c_dd[2705] c_dd[2706] c_dd[2707] c_dd[2708] c_dd[2709] c_dd[2710] c_dd[2711] c_dd[2712] c_dd[2713] c_dd[2714] c_dd[2715] c_dd[2716] c_dd[2717] c_dd[2718] c_dd[2719] c_dd[2720] c_dd[2721] c_dd[2722] c_dd[2723] c_dd[2724] c_dd[2725] c_dd[2726] c_dd[2727] c_dd[2728] c_dd[2729] c_dd[2730] c_dd[2731] c_dd[2732] c_dd[2733] c_dd[2734] c_dd[2735] c_dd[2736] c_dd[2737] c_dd[2738] c_dd[2739] c_dd[2740] c_dd[2741] c_dd[2742] c_dd[2743] c_dd[2744] c_dd[2745] c_dd[2746] c_dd[2747] c_dd[2748] c_dd[2749] c_dd[2750] c_dd[2751] c_dd[2752] c_dd[2753] c_dd[2754] c_dd[2755] c_dd[2756] c_dd[2757] c_dd[2758] c_dd[2759] c_dd[2760] c_dd[2761] c_dd[2762] c_dd[2763] c_dd[2764] c_dd[2765] c_dd[2766] c_dd[2767] c_dd[2768] c_dd[2769] c_dd[2770] c_dd[2771] c_dd[2772] c_dd[2773] c_dd[2774] c_dd[2775] c_dd[2776] c_dd[2777] c_dd[2778] c_dd[2779] c_dd[2780] c_dd[2781] c_dd[2782] c_dd[2783] c_dd[2784] c_dd[2785] c_dd[2786] c_dd[2787] c_dd[2788] c_dd[2789] c_dd[2790] c_dd[2791] c_dd[2792] c_dd[2793] c_dd[2794] c_dd[2795] c_dd[2796] c_dd[2797] c_dd[2798] c_dd[2799] c_dd[2800] c