ITEM: TIMESTEP
0
ITEM: NUMBER OF ATOMS
12
ITEM: BOX BOUNDS xy xz yz pp pp pp
-8.8344296827430302e-01 5.1364755065543157e+00 0.0000000000000000e+00
0.0000000000000000e+00 5.1934133375444702e+00 -8.8344296827430302e-01
0.0000000000000000e+00 5.2461598045212767e+00 0.0000000000000000e+00
ITEM: ATOMS id type c_ld[1] c_ld[2] c_ld[3] c_ld[4] c_ld[5] c_ld[6] c_ld[7] c_ld[8] c_ld[9] c_ld[10] c_ld[11] c_ld[12] c_ld[13] c_ld[14] c_ld[15] c_ld[16] c_ld[17] c_ld[18] c_ld[19] c_ld[20] c_ld[21] c_ld[22] c_ld[23] c_ld[24] c_ld[25] c_ld[26] c_ld[27] c_ld[28] c_ld[29] c_ld[30] c_ld[31] c_ld[32] c_ld[33] c_ld[34] c_ld[35] c_ld[36] c_ld[37] c_ld[38] c_ld[39] c_ld[40] c_ld[41] c_ld[42] c_ld[43] c_ld[44] c_ld[45] c_ld[46] c_ld[47] c_ld[48] c_ld[49] c_ld[50] c_ld[51] c_ld[52] c_ld[53] c_ld[54] c_ld[55] c_ld[56] c_ld[57] c_ld[58] c_ld[59] c_ld[60] c_ld[61] c_ld[62] c_ld[63] c_ld[64] c_ld[65] c_ld[66] c_ld[67] c_ld[68] c_ld[69] c_ld[70] c_ld[71] c_ld[72] c_ld[73] c_ld[74] c_ld[75] c_ld[76] c_ld[77] c_ld[78] c_ld[79] c_ld[80] c_ld[81] c_ld[82] c_ld[83] c_ld[84] c_ld[85] c_ld[86] c_ld[87] c_ld[88] c_ld[89] c_ld[90] c_ld[91] c_ld[92] c_ld[93] c_ld[94] c_ld[95] c_ld[96] c_ld[97] c_ld[98] c_ld[99] c_ld[100] c_ld[101] c_ld[102] c_ld[103] c_ld[104] c_ld[105] c_ld[106] c_ld[107] c_ld[108] c_ld[109] c_ld[110] c_ld[111] c_ld[112] c_ld[113] c_ld[114] c_ld[115] c_ld[116] c_ld[117] c_ld[118] c_ld[119] c_ld[120] c_ld[121] c_ld[122] c_ld[123] c_ld[124] c_ld[125] c_ld[126] c_ld[127] c_ld[128] c_ld[129] c_ld[130] c_ld[131] c_ld[132] c_ld[133] c_ld[134] c_ld[135] c_ld[136] c_ld[137] c_ld[138] c_ld[139] c_ld[140] c_ld[141] c_ld[142] c_ld[143] c_ld[144] c_ld[145] c_ld[146] c_ld[147] c_ld[148] c_ld[149] c_ld[150] c_ld[151] c_ld[152] c_ld[153] c_ld[154] c_ld[155] c_ld[156] c_ld[157] c_ld[158] c_ld[159] c_ld[160] c_ld[161] c_ld[162] c_ld[163] c_ld[164] c_ld[165] c_ld[166] c_ld[167] c_ld[168] c_ld[169] c_ld[170] c_ld[171] c_ld[172] c_ld[173] c_ld[174] c_ld[175] c_ld[176] c_ld[177] c_ld[178] c_ld[179] c_ld[180] c_ld[181] c_ld[182] c_ld[183] c_ld[184] c_ld[185] c_ld[186] c_ld[187] c_ld[188] c_ld[189] c_ld[190] c_ld[191] c_ld[192] c_ld[193] c_ld[194] c_ld[195] c_ld[196] c_ld[197] c_ld[198] c_ld[199] c_ld[200] c_ld[201] c_ld[202] c_ld[203] c_ld[204] c_ld[205] c_ld[206] c_ld[207] c_ld[208] c_ld[209] c_ld[210] c_ld[211] c_ld[212] c_ld[213] c_ld[214] c_ld[215] c_ld[216] c_ld[217] c_ld[218] c_ld[219] c_ld[220] c_ld[221] c_ld[222] c_ld[223] c_ld[224] c_ld[225] c_ld[226] c_ld[227] c_ld[228] c_ld[229] c_ld[230] c_ld[231] c_ld[232] c_ld[233] c_ld[234] c_ld[235] c_ld[236] c_ld[237] c_ld[238] c_ld[239] c_ld[240] c_ld[241] c_ld[242] c_ld[243] c_ld[244] c_ld[245] c_ld[246] c_ld[247] c_ld[248] c_ld[249] c_ld[250] c_ld[251] c_ld[252] c_ld[253] c_ld[254] c_ld[255] c_ld[256] c_ld[257] c_ld[258] c_ld[259] c_ld[260] c_ld[261] c_ld[262] c_ld[263] c_ld[264] c_ld[265] c_ld[266] c_ld[267] c_ld[268] c_ld[269] c_ld[270] c_ld[271] c_ld[272] c_ld[273] c_ld[274] c_ld[275] c_ld[276] c_ld[277] c_ld[278] c_ld[279] c_ld[280] c_ld[281] c_ld[282] c_ld[283] c_ld[284] c_ld[285] c_ld[286] c_ld[287] c_ld[288] c_ld[289] c_ld[290] c_ld[291] c_ld[292] c_ld[293] c_ld[294] c_ld[295] c_ld[296] c_ld[297] c_ld[298] c_ld[299] c_ld[300] c_ld[301] c_ld[302] c_ld[303] c_ld[304] c_ld[305] c_ld[306] c_ld[307] c_ld[308] c_ld[309] c_ld[310] c_ld[311] c_ld[312] c_ld[313] c_ld[314] c_ld[315] c_ld[316] c_ld[317] c_ld[318] c_ld[319] c_ld[320] c_ld[321] c_ld[322] c_ld[323] c_ld[324] c_ld[325] c_ld[326] c_ld[327] c_ld[328] c_ld[329] c_ld[330] c_ld[331] c_ld[332] c_ld[333] c_ld[334] c_ld[335] c_ld[336] c_ld[337] c_ld[338] c_ld[339] c_ld[340] c_ld[341] c_ld[342] c_ld[343] c_ld[344] c_ld[345] c_ld[346] c_ld[347] c_ld[348] c_ld[349] c_ld[350] c_ld[351] c_ld[352] c_ld[353] c_ld[354] c_ld[355] c_ld[356] c_ld[357] c_ld[358] c_ld[359] c_ld[360] c_ld[361] c_ld[362] c_ld[363] c_ld[364] c_ld[365] c_ld[366] c_ld[367] c_ld[368] c_ld[369] c_ld[370] c_ld[371] c_ld[372] c_ld[373] c_ld[374] c_ld[375] c_ld[376] c_ld[377] c_ld[378] c_ld[379] c_ld[380] c_ld[381] c_ld[382] c_ld[383] c_ld[384] c_ld[385] c_ld[386] c_ld[387] c_ld[388] c_ld[389] c_ld[390] c_ld[391] c_ld[392] c_ld[393] c_ld[394] c_ld[395] c_ld[396] c_ld[397] c_ld[398] c_ld[399] c_ld[400] c_ld[401] c_ld[402] c_ld[403] c_ld[404] c_ld[405] c_ld[406] c_ld[407] c_ld[408] c_ld[409] c_ld[410] c_ld[411] c_ld[412] c_ld[413] c_ld[414] c_ld[415] c_ld[416] c_ld[417] c_ld[418] c_ld[419] c_ld[420] c_ld[421] c_ld[422] c_ld[423] c_ld[424] c_ld[425] c_ld[426] c_ld[427] c_ld[428] c_ld[429] c_ld[430] c_ld[431] c_ld[432] c_ld[433] c_ld[434] c_ld[435] c_ld[436] c_ld[437] c_ld[438] c_ld[439] c_ld[440] c_ld[441] c_ld[442] c_ld[443] c_ld[444] c_ld[445] c_ld[446] c_ld[447] c_ld[448] c_ld[449] c_ld[450] c_ld[451] c_ld[452] c_ld[453] c_ld[454] c_ld[455] c_ld[456] c_ld[457] c_ld[458] c_ld[459] c_ld[460] c_ld[461] c_ld[462] c_ld[463] c_ld[464] c_ld[465] c_ld[466] c_ld[467] c_ld[468] c_ld[469] c_ld[470] c_ld[471] c_ld[472] c_ld[473] c_ld[474] c_ld[475] c_ld[476] c_ld[477] c_ld[478] c_ld[479] c_ld[480] c_ld[481] c_ld[482] c_ld[483] c_ld[484] c_ld[485] c_ld[486] c_ld[487] c_ld[488] c_ld[489] c_ld[490] c_ld[491] c_ld[492] c_ld[493] c_ld[494] c_ld[495] c_ld[496] c_ld[497] c_ld[498] c_ld[499] c_ld[500] c_ld[501] c_ld[502] c_ld[503] c_ld[504] c_ld[505] c_ld[506] c_ld[507] c_ld[508] c_ld[509] c_ld[510] c_ld[511] c_ld[512] c_ld[513] c_ld[514] c_ld[515] c_ld[516] c_ld[517] c_ld[518] c_ld[519] c_ld[520] c_ld[521] c_ld[522] c_ld[523] c_ld[524] c_ld[525] c_ld[526] c_ld[527] c_ld[528] c_ld[529] c_ld[530] c_ld[531] c_ld[532] c_ld[533] c_ld[534] c_ld[535] c_ld[536] c_ld[537] c_ld[538] c_ld[539] c_ld[540] c_ld[541] c_ld[542] c_ld[543] c_ld[544] c_ld[545] c_ld[546] c_ld[547] c_ld[548] c_ld[549] c_ld[550] c_ld[551] c_ld[552] c_ld[553] c_ld[554] c_ld[555] c_ld[556] c_ld[557] c_ld[558] c_ld[559] c_ld[560]
1 1 0.616555 1.86336 -3.19212 5.31759 -7.34002 2.60062 0.654332 -3.15384 2.5106 6.51283 -6.90897 1.49173 -9.26697 7.71751 -17.8606 0.801002 0.38014 0.00154262 0.127039 0.00524007 0.0796988 3.47211 0.0156553 1.16064 0.0502146 0.728396 10.1897 0.0580427 3.40886 0.169053 2.13942 28.2768 0.120708 9.44508 0.36463 5.92992 53.8759 0.405767 18.0363 0.441501 11.3863 6.76323 0.292309 2.31738 0.250166 1.48962 1.54792 -0.00108586 0.516463 0.00875389 0.32737 12.1357 -0.00281199 4.04926 0.0677434 2.55829 22.0543 0.0639025 7.36261 0.122676 4.58086 7.93243 0.0594333 2.61242 -0.231917 1.09133 68.0198 0.242324 22.8008 -0.0383084 13.0311 20.0703 0.0945485 6.73998 0.0684561 4.08183 6.30311 0.00344721 2.10324 0.0450199 1.42178 42.4169 0.00998641 14.1497 0.239353 9.40416 47.7338 0.0927454 15.9235 0.149642 9.98407 2.22527 0.31151 0.872907 0.929519 2.61855 85.8768 1.58161 29.0832 1.68736 19.2044 59.5599 0.347852 19.9321 0.384346 12.0538 0.234377 0.000951108 0.0783263 0.000305584 6.46979 0.0291714 2.16269 0.00934695 -32.5267 -0.18528 -10.8815 -0.0590204 150.364 0.641877 50.2251 0.207146 0.954378 0.0038729 0.318943 -0.000229801 22.6133 0.10196 7.55905 -0.00196976 -70.4 -0.401015 -23.5517 -0.0656455 42.1814 0.180064 14.0895 0.114272 3.88621 -0.00272617 1.29663 0.000730193 79.038 -0.018314 26.3722 0.00642919 -152.372 -0.4415 -50.868 -0.0963643 11.8331 0.0886587 3.89704 0.568125 15.8246 0.00865456 5.28039 0.00296152 276.254 0.0650397 92.1548 0.0219582 -329.791 -0.640775 -110.015 -0.210087 3.31951 0.464691 1.30214 0.108902 0.144506 0.00058641 0.0482924 1.31989 0.0059512 0.441205 3.87349 0.0220643 1.29584 10.7491 0.045886 3.59045 0.588426 -0.00041278 0.196328 4.61327 -0.00106895 1.53929 8.38371 0.0242919 2.79882 3.01543 0.022593 0.993086 2.39606 0.00131042 0.799524 16.1243 0.00379623 5.37888 18.1455 0.0352562 6.05316 0.845913 0.118417 0.331827 2.37967e-06 0.00535614 2.41501e-05 0.0157188 8.95378e-05 0.0436203 0.000186207 -1.67507e-06 0.0187208 -4.33783e-06 0.0340213 9.85771e-05 0.0122367 9.1683e-05 5.31773e-06 0.0654331 1.54052e-05 0.0736351 0.000143071 0.00343274 0.000480542 0.441092 1.29448 3.59225 1.54171 2.80175 1.00773 5.38859 6.06405 0.282695 12.0555 0.0543569 4.02987 35.3796 0.201531 11.8359 42.1366 -0.00976354 14.0595 76.5749 0.221876 25.5638 147.276 0.0346739 49.1295 165.737 0.322022 55.2882 0.000245088 0.159522 0.000908676 -4.40226e-05 0.345266 0.00100041 0.00015634 0.747287 0.00145196 11.8265 25.5971 55.4018 2.39606 -0.00168083 0.799444 18.7852 -0.00435274 6.26794 34.1383 0.098916 11.3967 12.2788 0.0919981 4.04383 9.75671 0.00533601 3.25565 65.658 0.0154582 21.9027 73.8882 0.143563 24.6483 3.44454 0.482194 1.35119 1.1791e-06 -0.0131778 3.05344e-06 -0.023948 -6.93894e-05 -0.00861354 -6.45365e-05 -3.7432e-06 -0.046059 -1.08439e-05 -0.0518325 -0.000100709 -0.00241634 -0.000338258 6.26766 11.3902 4.09681 21.9068 24.6528 1.14927 147.276 -0.0341256 49.1408 267.645 0.775504 89.3507 514.761 0.121192 171.718 579.285 1.12553 193.244 7.9073e-06 -0.0620165 -0.000179693 -2.80817e-05 -0.134227 -0.000260799 89.3036 193.287 39.7292 0.0217281 13.2569 267.358 0.0629454 89.1874 300.871 0.584584 100.368 14.0261 1.96348 5.50203 1.18833e-05 0.14622 3.44252e-05 0.164549 0.000319713 0.00767097 0.00107384 89.2128 100.396 4.68027 1799.19 0.423593 600.188 2024.72 3.93397 675.426 9.97283e-05 0.476689 0.000926193 675.422 0.0890959 0.000361554 0.0297749 0.000116164 2.45942 0.0110892 0.822125 0.00355314 -12.3647 -0.0704321 -4.13649 -0.022436 0.362797 0.00147224 0.121243 -8.73566e-05 8.59619 0.0387591 2.87349 -0.000748783 -26.7618 -0.152442 -8.95294 -0.0249544 1.4773 -0.00103632 0.492901 0.000277575 30.0455 -0.00696188 10.0251 0.00244399 -57.9228 -0.167832 -19.3369 -0.0366319 6.01555 0.00328994 2.00728 0.00112579 105.015 0.0247242 35.0317 0.00834716 -125.367 -0.243584 -41.8211 -0.0798624 1.4672e-06 0.00998042 4.50004e-05 -0.0501762 -0.000285816 5.9744e-06 0.0348836 0.000157286 -0.1086 -0.000618614 -4.20544e-06 0.121925 -2.82515e-05 -0.235052 -0.000681066 1.33507e-05 0.426154 0.000100331 -0.508742 -0.000988471 0.821914 -4.13215 2.87276 -8.94353 10.0409 -19.3572 35.095 -41.8963 0.101286 7.5091 0.0324536 0.354017 26.2459 -0.00683922 -0.0635883 91.567 0.0223228 0.225825 319.972 0.0762411 1.4773 0.00599494 0.493699 -0.000355714 35.0035 0.157826 11.7008 -0.00304903 -108.974 -0.62074 -36.4562 -0.101614 6.01555 -0.0042199 2.00708 0.00113028 122.345 -0.0283487 40.822 0.00995188 -235.86 -0.683407 -78.7397 -0.149164 24.4952 0.0133966 8.17362 0.00458421 427.619 0.100676 142.648 0.0339895 -510.491 -0.991869 -170.295 -0.325198 -4.20544e-06 -0.0245549 -0.000110715 0.0764449 0.000435448 2.96025e-06 -0.0858245 1.98865e-05 0.165456 0.000479409 -9.39768e-06 -0.299974 -7.06243e-05 0.358109 0.000695794 11.6789 -36.359 40.8202 -78.6947 142.675 -170.325 1.23736 91.7347 -0.0239045 -0.222254 320.046 0.078023 0.789305 1118.37 0.266478 24.4952 -0.0171833 8.17281 0.00460248 498.185 -0.115435 166.227 0.0405239 -960.419 -2.78282 -320.627 -0.607395 99.744 0.0545506 33.2828 0.0186668 1741.26 0.409952 580.862 0.138405 -2078.71 -4.03887 -693.436 -1.3242 -9.39768e-06 0.27246 -6.31322e-05 -0.525259 -0.00152194 2.98341e-05 0.952305 0.000224206 -1.13686 -0.00220888 166.236 -320.475 581.028 -693.63 -0.776824 1118.63 0.272706 2.75878 3908.92 0.931397
2 1 0.616555 1.86336 -3.19212 5.31759 -7.34002 2.60062 0.654335 -3.15384 2.5106 6.51283 -6.90897 1.49173 -9.26697 7.71751 -17.8606 0.801 0.38014 0.00154262 0.127039 0.00524006 0.0796988 3.47211 0.0156553 1.16064 0.0502145 0.728396 10.1897 0.0580426 3.40886 0.169053 2.13942 28.2768 0.120708 9.44508 0.36463 5.92992 53.8759 0.40576 18.0363 0.441496 11.3863 6.76324 0.292305 2.31738 0.250163 1.48962 1.54792 -0.00108588 0.516463 0.00875391 0.32737 12.1357 -0.00281212 4.04926 0.0677435 2.55829 22.0543 0.0639026 7.36261 0.122676 4.58086 7.93242 0.0594335 2.61242 -0.231919 1.09133 68.0198 0.242335 22.8008 -0.0382983 13.0311 20.0703 0.0945524 6.73998 0.0684597 4.08183 6.30311 0.00344703 2.10324 0.04502 1.42178 42.4169 0.00998571 14.1497 0.239354 9.40416 47.7338 0.0927449 15.9235 0.149641 9.98407 2.22526 0.311503 0.872906 0.92952 2.61855 85.8768 1.58162 29.0832 1.68736 19.2044 59.5599 0.34785 19.9321 0.384347 12.0538 0.234377 0.000951107 0.0783263 0.000305583 6.46979 0.0291714 2.16269 0.00934693 -32.5267 -0.185279 -10.8815 -0.0590203 150.364 0.641875 50.2251 0.207145 0.954378 0.00387289 0.318943 -0.000229805 22.6133 0.10196 7.55905 -0.00196983 -70.4 -0.401014 -23.5517 -0.0656456 42.1814 0.180064 14.0895 0.114273 3.88621 -0.00272622 1.29663 0.000730154 79.038 -0.0183149 26.3722 0.00642873 -152.372 -0.441501 -50.868 -0.0963637 11.833 0.0886589 3.89703 0.568112 15.8246 0.00865411 5.28039 0.00296137 276.254 0.0650352 92.1549 0.0219566 -329.791 -0.640771 -110.015 -0.210086 3.31949 0.464679 1.30214 0.108901 0.144506 0.000586409 0.0482924 1.31989 0.00595119 0.441205 3.87349 0.0220643 1.29584 10.7491 0.0458858 3.59045 0.588426 -0.000412787 0.196328 4.61327 -0.001069 1.53929 8.38371 0.0242919 2.79882 3.01543 0.022593 0.993084 2.39606 0.00131035 0.799524 16.1243 0.00379596 5.37888 18.1455 0.035256 6.05315 0.84591 0.118415 0.331826 2.37967e-06 0.00535613 2.41501e-05 0.0157187 8.95375e-05 0.0436202 0.000186206 -1.6751e-06 0.0187208 -4.33803e-06 0.0340213 9.85772e-05 0.0122367 9.16831e-05 5.31745e-06 0.065433 1.54041e-05 0.073635 0.00014307 0.00343273 0.00048053 0.441092 1.29448 3.59225 1.54171 2.80175 1.00772 5.38859 6.06404 0.282695 12.0555 0.0543568 4.02987 35.3796 0.20153 11.8359 42.1366 -0.009764 14.0595 76.5749 0.221877 25.5638 147.276 0.0346715 49.1295 165.737 0.32202 55.2882 0.000245087 0.159522 0.000908673 -4.40245e-05 0.345266 0.00100041 0.000156329 0.747286 0.00145195 11.8265 25.5971 55.4018 2.39606 -0.00168086 0.799444 18.7852 -0.00435294 6.26794 34.1383 0.0989162 11.3967 12.2788 0.0919984 4.04382 9.75672 0.00533573 3.25565 65.6581 0.0154571 21.9027 73.8882 0.143562 24.6483 3.44453 0.482183 1.35119 1.17914e-06 -0.013178 3.05364e-06 -0.0239484 -6.93908e-05 -0.00861369 -6.45379e-05 -3.74308e-06 -0.0460599 -1.08433e-05 -0.0518334 -0.00010071 -0.00241638 -0.000338256 6.26766 11.3902 4.0968 21.9068 24.6528 1.14927 147.276 -0.0341272 49.1408 267.645 0.775506 89.3507 514.761 0.121184 171.718 579.285 1.12553 193.244 7.90803e-06 -0.0620194 -0.000179702 -2.8081e-05 -0.134233 -0.00026081 89.3036 193.287 39.7292 0.021727 13.2569 267.358 0.062941 89.1874 300.871 0.584581 100.368 14.0261 1.96344 5.50202 1.1882e-05 0.146212 3.4421e-05 0.16454 0.000319694 0.00767055 0.00107376 89.2129 100.396 4.68026 1799.19 0.423563 600.189 2024.72 3.93395 675.426 9.97144e-05 0.476656 0.000926123 675.422 0.0890959 0.000361553 0.0297749 0.000116164 2.45942 0.0110892 0.822124 0.00355314 -12.3647 -0.070432 -4.13649 -0.022436 0.362797 0.00147224 0.121243 -8.73579e-05 8.59619 0.038759 2.87349 -0.00074881 -26.7618 -0.152441 -8.95294 -0.0249545 1.4773 -0.00103634 0.492901 0.00027756 30.0455 -0.00696221 10.0251 0.00244382 -57.9227 -0.167832 -19.3369 -0.0366316 6.01555 0.00328977 2.00728 0.00112573 105.015 0.0247224 35.0317 0.00834658 -125.367 -0.243582 -41.821 -0.079862 1.46719e-06 0.0099804 4.50003e-05 -0.0501762 -0.000285815 5.97439e-06 0.0348836 0.000157285 -0.1086 -0.000618612 -4.20551e-06 0.121925 -2.82528e-05 -0.235052 -0.000681067 1.335e-05 0.426154 0.000100324 -0.508742 -0.000988464 0.821914 -4.13215 2.87276 -8.94353 10.0409 -19.3572 35.095 -41.8963 0.101286 7.5091 0.0324536 0.354017 26.2459 -0.00683946 -0.0635912 91.567 0.0223213 0.225809 319.972 0.0762358 1.4773 0.00599493 0.493699 -0.00035572 35.0035 0.157826 11.7008 -0.00304914 -108.974 -0.620739 -36.4562 -0.101614 6.01555 -0.00421997 2.00708 0.00113022 122.345 -0.02835 40.822 0.00995118 -235.86 -0.683409 -78.7397 -0.149163 24.4952 0.0133959 8.17362 0.00458397 427.62 0.100669 142.648 0.0339871 -510.491 -0.991863 -170.295 -0.325196 -4.20551e-06 -0.0245554 -0.000110717 0.0764463 0.000435455 2.96036e-06 -0.0858261 1.98878e-05 0.165459 0.000479419 -9.39736e-06 -0.29998 -7.06207e-05 0.358115 0.000695803 11.6789 -36.359 40.8202 -78.6947 142.675 -170.325 1.23736 91.7347 -0.0239053 -0.222264 320.046 0.0780175 0.78925 1118.37 0.26646 24.4952 -0.0171837 8.17281 0.00460224 498.185 -0.115441 166.227 0.040521 -960.419 -2.78283 -320.627 -0.607391 99.744 0.0545478 33.2829 0.0186658 1741.26 0.409924 580.862 0.138395 -2078.71 -4.03885 -693.436 -1.32419 -9.39736e-06 0.272446 -6.31319e-05 -0.525232 -0.00152187 2.9831e-05 0.952256 0.000224178 -1.1368 -0.00220876 166.236 -320.475 581.028 -693.63 -0.77686 1118.63 0.272687 2.75859 3908.93 0.931332
3 1 0.616555 1.86336 -3.19212 5.31759 -7.34002 2.60062 0.654333 -3.15384 2.5106 6.51283 -6.90897 1.49173 -9.26697 7.7175 -17.8606 0.801004 0.38014 0.00154262 0.127039 0.00524007 0.0796988 3.47211 0.0156553 1.16064 0.0502146 0.728396 10.1897 0.0580427 3.40886 0.169053 2.13942 28.2768 0.120708 9.44508 0.36463 5.92992 53.8759 0.405767 18.0363 0.441501 11.3863 6.76323 0.292308 2.31738 0.250166 1.48962 1.54792 -0.00108587 0.516463 0.00875389 0.32737 12.1357 -0.00281203 4.04926 0.0677434 2.55829 22.0543 0.0639027 7.36261 0.122676 4.58086 7.93243 0.0594336 2.61243 -0.231917 1.09133 68.0198 0.242323 22.8008 -0.0383089 13.0311 20.0703 0.0945484 6.73998 0.068456 4.08183 6.30311 0.00344723 2.10324 0.0450199 1.42178 42.4169 0.00998644 14.1497 0.239353 9.40416 47.7338 0.0927461 15.9235 0.149642 9.98407 2.22527 0.311511 0.872908 0.929519 2.61855 85.8768 1.58162 29.0832 1.68736 19.2044 59.5599 0.347853 19.9321 0.384347 12.0538 0.234377 0.000951108 0.0783263 0.000305583 6.46979 0.0291714 2.16269 0.00934694 -32.5267 -0.18528 -10.8815 -0.0590204 150.364 0.641877 50.2251 0.207146 0.954378 0.00387289 0.318943 -0.000229803 22.6133 0.10196 7.55905 -0.00196978 -70.4 -0.401015 -23.5517 -0.0656457 42.1814 0.180065 14.0896 0.114273 3.88621 -0.00272619 1.29663 0.000730197 79.038 -0.0183143 26.3722 0.00642921 -152.372 -0.441502 -50.868 -0.0963651 11.8331 0.0886592 3.89704 0.568126 15.8246 0.00865461 5.28039 0.00296154 276.254 0.06504 92.1548 0.0219582 -329.791 -0.64078 -110.015 -0.210089 3.31951 0.464692 1.30215 0.108902 0.144506 0.00058641 0.0482924 1.31989 0.00595119 0.441205 3.87349 0.0220643 1.29584 10.7491 0.045886 3.59045 0.588426 -0.000412783 0.196328 4.61327 -0.00106896 1.53929 8.38371 0.024292 2.79882 3.01543 0.0225931 0.993086 2.39606 0.00131043 0.799524 16.1243 0.00379624 5.37888 18.1455 0.0352565 6.05315 0.845914 0.118418 0.331827 2.37967e-06 0.00535614 2.41501e-05 0.0157187 8.95377e-05 0.0436202 0.000186207 -1.67509e-06 0.0187208 -4.33789e-06 0.0340213 9.85775e-05 0.0122367 9.16834e-05 5.31776e-06 0.0654331 1.54053e-05 0.073635 0.000143072 0.00343274 0.000480542 0.441092 1.29448 3.59225 1.54171 2.80175 1.00773 5.38859 6.06404 0.282696 12.0555 0.0543569 4.02987 35.3796 0.201531 11.8359 42.1366 -0.00976368 14.0595 76.5749 0.221877 25.5638 147.276 0.034674 49.1295 165.737 0.322025 55.2882 0.000245088 0.159522 0.000908675 -4.40231e-05 0.345266 0.00100042 0.000156341 0.747286 0.00145197 11.8265 25.5971 55.4018 2.39606 -0.00168085 0.799444 18.7852 -0.0043528 6.26794 34.1383 0.0989164 11.3967 12.2788 0.0919986 4.04383 9.75671 0.00533604 3.25565 65.658 0.0154582 21.9027 73.8882 0.143564 24.6483 3.44454 0.482195 1.35119 1.17912e-06 -0.0131779 3.05351e-06 -0.0239481 -6.93902e-05 -0.00861361 -6.45374e-05 -3.74325e-06 -0.0460594 -1.0844e-05 -0.0518329 -0.00010071 -0.00241636 -0.000338261 6.26766 11.3902 4.09681 21.9068 24.6528 1.14927 147.276 -0.0341261 49.1408 267.645 0.775507 89.3507 514.761 0.121193 171.718 579.285 1.12554 193.244 7.90752e-06 -0.0620173 -0.000179696 -2.80822e-05 -0.134229 -0.000260805 89.3036 193.287 39.7292 0.0217283 13.2569 267.358 0.0629456 89.1874 300.871 0.584589 100.368 14.0261 1.96349 5.50203 1.18834e-05 0.146221 3.44256e-05 0.164549 0.000319717 0.00767102 0.00107385 89.2128 100.396 4.68027 1799.19 0.423594 600.188 2024.72 3.934 675.426 9.97291e-05 0.476691 0.000926204 675.421 0.0890959 0.000361554 0.0297749 0.000116164 2.45942 0.0110892 0.822124 0.00355314 -12.3647 -0.0704321 -4.13649 -0.022436 0.362797 0.00147224 0.121243 -8.73572e-05 8.59619 0.0387591 2.87349 -0.000748792 -26.7618 -0.152442 -8.95294 -0.0249545 1.4773 -0.00103633 0.492901 0.000277577 30.0455 -0.00696198 10.0251 0.002444 -57.9227 -0.167832 -19.3369 -0.0366322 6.01555 0.00328996 2.00728 0.0011258 105.015 0.0247243 35.0317 0.00834719 -125.367 -0.243586 -41.821 -0.079863 1.4672e-06 0.00998041 4.50003e-05 -0.0501762 -0.000285815 5.97439e-06 0.0348836 0.000157285 -0.1086 -0.000618613 -4.20547e-06 0.121925 -2.82519e-05 -0.235052 -0.000681068 1.33508e-05 0.426154 0.000100332 -0.508742 -0.000988478 0.821914 -4.13215 2.87276 -8.94353 10.0409 -19.3572 35.095 -41.8963 0.101286 7.5091 0.0324536 0.354017 26.2459 -0.0068393 -0.0635892 91.567 0.0223229 0.225826 319.972 0.0762414 1.4773 0.00599493 0.493699 -0.000355717 35.0035 0.157826 11.7008 -0.00304907 -108.974 -0.62074 -36.4562 -0.101614 6.01555 -0.00421993 2.00708 0.00113029 122.345 -0.0283491 40.822 0.00995192 -235.86 -0.68341 -78.7397 -0.149166 24.4952 0.0133967 8.17362 0.00458423 427.619 0.100677 142.648 0.0339896 -510.491 -0.991876 -170.295 -0.325201 -4.20547e-06 -0.0245551 -0.000110716 0.0764455 0.000435451 2.9603e-06 -0.0858252 1.9887e-05 0.165457 0.000479415 -9.3978e-06 -0.299977 -7.06251e-05 0.358111 0.000695805 11.6789 -36.359 40.8202 -78.6947 142.675 -170.325 1.23736 91.7347 -0.0239048 -0.222257 320.046 0.0780233 0.789308 1118.37 0.266479 24.4952 -0.0171835 8.17281 0.00460251 498.185 -0.115437 166.227 0.040524 -960.419 -2.78283 -320.627 -0.607399 99.744 0.0545509 33.2828 0.0186669 1741.26 0.409954 580.862 0.138405 -2078.71 -4.0389 -693.436 -1.32421 -9.3978e-06 0.272462 -6.31335e-05 -0.525262 -0.00152196 2.98344e-05 0.952311 0.000224208 -1.13687 -0.00220891 166.236 -320.475 581.028 -693.63 -0.776835 1118.63 0.272707 2.7588 3908.92 0.931401
4 1 0.616555 1.86336 -3.19212 5.31759 -7.34002 2.60062 0.654335 -3.15385 2.5106 6.51283 -6.90897 1.49173 -9.26697 7.71751 -17.8606 0.801 0.38014 0.00154262 0.127039 0.00524006 0.0796988 3.47211 0.0156553 1.16064 0.0502145 0.728396 10.1897 0.0580426 3.40886 0.169053 2.13942 28.2768 0.120708 9.44508 0.36463 5.92992 53.876 0.40576 18.0363 0.441496 11.3863 6.76324 0.292305 2.31738 0.250163 1.48962 1.54792 -0.00108588 0.516463 0.00875392 0.32737 12.1357 -0.00281212 4.04926 0.0677435 2.55829 22.0543 0.0639026 7.36261 0.122676 4.58086 7.93242 0.0594336 2.61242 -0.231919 1.09133 68.0198 0.242334 22.8008 -0.0382988 13.0311 20.0703 0.0945521 6.73998 0.0684595 4.08183 6.30311 0.00344703 2.10324 0.04502 1.42178 42.4169 0.00998571 14.1497 0.239354 9.40416 47.7338 0.0927449 15.9235 0.149641 9.98407 2.22526 0.311503 0.872906 0.92952 2.61855 85.8768 1.58162 29.0832 1.68736 19.2044 59.5599 0.34785 19.9321 0.384347 12.0538 0.234377 0.000951107 0.0783263 0.000305583 6.46979 0.0291714 2.16269 0.00934693 -32.5267 -0.185279 -10.8815 -0.0590203 150.364 0.641875 50.2251 0.207145 0.954378 0.00387289 0.318943 -0.000229805 22.6133 0.10196 7.55905 -0.00196983 -70.4 -0.401014 -23.5517 -0.0656456 42.1814 0.180064 14.0895 0.114273 3.88621 -0.00272622 1.29663 0.000730154 79.038 -0.0183149 26.3722 0.00642873 -152.372 -0.441501 -50.868 -0.0963637 11.833 0.0886589 3.89703 0.568112 15.8246 0.00865411 5.28039 0.00296137 276.254 0.0650352 92.1549 0.0219566 -329.791 -0.640771 -110.015 -0.210086 3.31949 0.464679 1.30214 0.108901 0.144506 0.000586409 0.0482924 1.31989 0.00595118 0.441205 3.87349 0.0220643 1.29584 10.7491 0.0458858 3.59045 0.588426 -0.000412787 0.196328 4.61327 -0.001069 1.53929 8.38371 0.0242919 2.79882 3.01543 0.022593 0.993084 2.39606 0.00131035 0.799524 16.1243 0.00379596 5.37888 18.1455 0.035256 6.05315 0.84591 0.118415 0.331826 2.37966e-06 0.00535613 2.415e-05 0.0157187 8.95374e-05 0.0436202 0.000186206 -1.6751e-06 0.0187208 -4.33803e-06 0.0340213 9.85771e-05 0.0122367 9.16831e-05 5.31744e-06 0.065433 1.54041e-05 0.0736349 0.00014307 0.00343272 0.00048053 0.441092 1.29448 3.59225 1.54171 2.80175 1.00772 5.38859 6.06404 0.282695 12.0555 0.0543568 4.02987 35.3796 0.20153 11.8359 42.1366 -0.009764 14.0595 76.5749 0.221877 25.5638 147.276 0.0346715 49.1295 165.737 0.32202 55.2882 0.000245087 0.159522 0.000908671 -4.40245e-05 0.345265 0.00100041 0.000156329 0.747285 0.00145194 11.8265 25.5971 55.4018 2.39606 -0.00168086 0.799444 18.7852 -0.00435295 6.26794 34.1383 0.0989162 11.3967 12.2788 0.0919985 4.04382 9.75672 0.00533573 3.25565 65.6581 0.0154571 21.9027 73.8882 0.143562 24.6483 3.44453 0.482183 1.35119 1.17914e-06 -0.013178 3.05364e-06 -0.0239484 -6.93908e-05 -0.00861369 -6.4538e-05 -3.74308e-06 -0.0460599 -1.08433e-05 -0.0518334 -0.00010071 -0.00241638 -0.000338256 6.26766 11.3902 4.0968 21.9068 24.6528 1.14927 147.276 -0.0341272 49.1408 267.645 0.775505 89.3507 514.761 0.121184 171.718 579.285 1.12553 193.244 7.90804e-06 -0.0620194 -0.000179702 -2.8081e-05 -0.134233 -0.00026081 89.3036 193.287 39.7292 0.021727 13.2569 267.358 0.062941 89.1874 300.871 0.584581 100.368 14.0261 1.96344 5.50202 1.1882e-05 0.146212 3.4421e-05 0.16454 0.000319694 0.00767055 0.00107376 89.2129 100.396 4.68026 1799.19 0.423563 600.189 2024.72 3.93395 675.426 9.97144e-05 0.476656 0.000926123 675.422 0.0890959 0.000361553 0.0297749 0.000116164 2.45942 0.0110892 0.822124 0.00355314 -12.3647 -0.0704319 -4.13649 -0.0224359 0.362797 0.00147224 0.121243 -8.73579e-05 8.59619 0.038759 2.87349 -0.00074881 -26.7618 -0.152441 -8.95294 -0.0249545 1.4773 -0.00103634 0.492901 0.00027756 30.0455 -0.00696221 10.0251 0.00244382 -57.9227 -0.167832 -19.3369 -0.0366316 6.01555 0.00328977 2.00728 0.00112573 105.015 0.0247224 35.0317 0.00834658 -125.367 -0.243582 -41.821 -0.079862 1.46719e-06 0.0099804 4.50002e-05 -0.0501761 -0.000285814 5.97438e-06 0.0348835 0.000157285 -0.1086 -0.000618611 -4.20551e-06 0.121925 -2.82528e-05 -0.235052 -0.000681066 1.335e-05 0.426154 0.000100324 -0.508741 -0.000988464 0.821914 -4.13215 2.87276 -8.94353 10.0409 -19.3572 35.095 -41.8963 0.101286 7.5091 0.0324536 0.354016 26.2459 -0.00683946 -0.0635913 91.567 0.0223213 0.225809 319.972 0.0762358 1.4773 0.00599493 0.493699 -0.00035572 35.0035 0.157826 11.7008 -0.00304914 -108.974 -0.620738 -36.4562 -0.101614 6.01555 -0.00421997 2.00708 0.00113022 122.345 -0.02835 40.822 0.00995118 -235.86 -0.683409 -78.7397 -0.149163 24.4952 0.0133959 8.17362 0.00458397 427.62 0.100669 142.648 0.0339871 -510.491 -0.991863 -170.295 -0.325196 -4.20551e-06 -0.0245554 -0.000110717 0.0764463 0.000435455 2.96036e-06 -0.0858261 1.98878e-05 0.165459 0.000479419 -9.39736e-06 -0.29998 -7.06207e-05 0.358115 0.000695803 11.6789 -36.359 40.8202 -78.6947 142.675 -170.325 1.23736 91.7347 -0.0239053 -0.222265 320.046 0.0780175 0.78925 1118.37 0.26646 24.4952 -0.0171837 8.17281 0.00460224 498.185 -0.115441 166.227 0.040521 -960.419 -2.78283 -320.627 -0.607391 99.744 0.0545478 33.2829 0.0186658 1741.26 0.409924 580.862 0.138395 -2078.71 -4.03885 -693.436 -1.32419 -9.39736e-06 0.272446 -6.31319e-05 -0.525232 -0.00152187 2.9831e-05 0.952256 0.000224178 -1.1368 -0.00220876 166.236 -320.475 581.028 -693.63 -0.776861 1118.63 0.272687 2.75859 3908.93 0.931332