ITEM: TIMESTEP
0
ITEM: NUMBER OF ATOMS
12
ITEM: BOX BOUNDS xy xz yz pp pp pp
-8.8344296827430302e-01 5.1364755065543157e+00 0.0000000000000000e+00
0.0000000000000000e+00 5.1934133375444702e+00 -8.8344296827430302e-01
0.0000000000000000e+00 5.2461598045212767e+00 0.0000000000000000e+00
ITEM: ATOMS id type x y z fx fy fz
   1 1    0.79296805999999986    2.37891959000000019    3.71379300999999984   -0.02746378868026378   -0.13394934659545488    0.08657660722828064
   2 1    3.01834093999999942    4.97562677999999980    4.15544258999999983    0.02746406274624429   -0.13395092253488361   -0.08652751636541850
   3 1    3.46006344999999982    2.81449477000000003    1.53236422000000005    0.02745734695881662    0.13395043848863539   -0.08657510305372776
   4 1    1.23469005999999992    0.21778759000000000    1.09071465000000001   -0.02746261612019874    0.13395036752584755    0.08652643153718376
   5 2    1.43661056000000009    3.85624494000000029    5.13377423000000022    0.09241905860511784    0.28929482830562214    0.27397806493641080
   6 2    2.37469844000000130    1.25953775999999995    2.73546187999999990   -0.09240998240311563    0.28930056117127434   -0.27396630756291218
   7 2    2.81642043999999991    1.33716941999999994    0.11238300000000000   -0.09241824026227247   -0.28929473367162378   -0.27397790785541454
   8 2    1.87833256000000004    3.93387661000000044    2.51069536000000060    0.09241063937722754   -0.28930102483050857    0.27396588530562915
   9 2    0.04523848000000025    1.71776788000000002    1.81649659000000008   -0.28422330256274186    0.18503621409597582   -0.01150920040065329
  10 2    4.64951502999999988    4.31447506000000036    0.80658229000000026    0.28421014150064283    0.18502385240845623    0.01148476431584359
  11 2    4.20779251999999993    3.47564649000000037    3.42966065000000020    0.28422541598839063   -0.18503778824998007    0.01150954295384406
  12 2   -0.39648402999999999    0.87893931000000014    4.43957494999999991   -0.28420873514784484   -0.18502244611335428   -0.01148526103906378
