ITEM: TIMESTEP
0
ITEM: NUMBER OF ATOMS
12
ITEM: BOX BOUNDS xy xz yz pp pp pp
-8.8344296827430302e-01 5.1364755065543157e+00 0.0000000000000000e+00
0.0000000000000000e+00 5.1934133375444702e+00 -8.8344296827430302e-01
0.0000000000000000e+00 5.2461598045212767e+00 0.0000000000000000e+00
ITEM: ATOMS id type c_ld[1] c_ld[2] c_ld[3] c_ld[4] c_ld[5] c_ld[6] c_ld[7] c_ld[8] c_ld[9] c_ld[10] c_ld[11] c_ld[12] c_ld[13] c_ld[14] c_ld[15] c_ld[16] c_ld[17] c_ld[18] c_ld[19] c_ld[20] c_ld[21] c_ld[22] c_ld[23] c_ld[24] c_ld[25] c_ld[26] c_ld[27] c_ld[28] c_ld[29] c_ld[30] c_ld[31] c_ld[32] c_ld[33] c_ld[34] c_ld[35] c_ld[36] c_ld[37] c_ld[38] c_ld[39] c_ld[40] c_ld[41] c_ld[42] c_ld[43] c_ld[44] c_ld[45] c_ld[46] c_ld[47] c_ld[48] c_ld[49] c_ld[50] c_ld[51] c_ld[52] c_ld[53] c_ld[54] c_ld[55] c_ld[56] c_ld[57] c_ld[58] c_ld[59] c_ld[60] c_ld[61] c_ld[62] c_ld[63] c_ld[64] c_ld[65] c_ld[66] c_ld[67] c_ld[68] c_ld[69] c_ld[70] c_ld[71] c_ld[72] c_ld[73] c_ld[74] c_ld[75] c_ld[76] c_ld[77] c_ld[78] c_ld[79] c_ld[80] c_ld[81] c_ld[82] c_ld[83] c_ld[84] c_ld[85] c_ld[86] c_ld[87] c_ld[88] c_ld[89] c_ld[90] c_ld[91] c_ld[92] c_ld[93] c_ld[94] c_ld[95] c_ld[96] c_ld[97] c_ld[98] c_ld[99] c_ld[100] c_ld[101] c_ld[102] c_ld[103] c_ld[104] c_ld[105] c_ld[106] c_ld[107] c_ld[108] c_ld[109] c_ld[110] c_ld[111] c_ld[112] c_ld[113] c_ld[114] c_ld[115] c_ld[116] c_ld[117] c_ld[118] c_ld[119] c_ld[120] c_ld[121] c_ld[122] c_ld[123] c_ld[124] c_ld[125] c_ld[126] c_ld[127] c_ld[128] c_ld[129] c_ld[130] c_ld[131] c_ld[132] c_ld[133] c_ld[134] c_ld[135] c_ld[136] c_ld[137] c_ld[138] c_ld[139] c_ld[140] c_ld[141] c_ld[142] c_ld[143] c_ld[144] c_ld[145] c_ld[146] c_ld[147] c_ld[148] c_ld[149] c_ld[150] c_ld[151] c_ld[152] c_ld[153] c_ld[154] c_ld[155] c_ld[156] c_ld[157] c_ld[158] c_ld[159] c_ld[160] c_ld[161] c_ld[162] c_ld[163] c_ld[164] c_ld[165] c_ld[166] c_ld[167] c_ld[168] c_ld[169] c_ld[170] c_ld[171] c_ld[172] c_ld[173] c_ld[174] c_ld[175] c_ld[176] c_ld[177] c_ld[178] c_ld[179] c_ld[180] c_ld[181] c_ld[182] c_ld[183] c_ld[184] c_ld[185] c_ld[186] c_ld[187] c_ld[188] c_ld[189] c_ld[190] c_ld[191] c_ld[192] c_ld[193] c_ld[194] c_ld[195] c_ld[196] c_ld[197] c_ld[198] c_ld[199] c_ld[200] c_ld[201] c_ld[202] c_ld[203] c_ld[204] c_ld[205] c_ld[206] c_ld[207] c_ld[208] c_ld[209] c_ld[210] c_ld[211] c_ld[212] c_ld[213] c_ld[214] c_ld[215] c_ld[216] c_ld[217] c_ld[218] c_ld[219] c_ld[220] c_ld[221] c_ld[222] c_ld[223] c_ld[224] c_ld[225] c_ld[226] c_ld[227] c_ld[228] c_ld[229] c_ld[230] c_ld[231] c_ld[232] c_ld[233] c_ld[234] c_ld[235] c_ld[236] c_ld[237] c_ld[238] c_ld[239] c_ld[240] c_ld[241] c_ld[242] c_ld[243] c_ld[244] c_ld[245] c_ld[246] c_ld[247] c_ld[248] c_ld[249] c_ld[250] c_ld[251] c_ld[252] c_ld[253] c_ld[254] c_ld[255] c_ld[256] c_ld[257] c_ld[258] c_ld[259] c_ld[260] c_ld[261] c_ld[262] c_ld[263] c_ld[264] c_ld[265] c_ld[266] c_ld[267] c_ld[268] c_ld[269] c_ld[270] c_ld[271] c_ld[272] c_ld[273] c_ld[274] c_ld[275] c_ld[276] c_ld[277] c_ld[278] c_ld[279] c_ld[280] c_ld[281] c_ld[282] c_ld[283] c_ld[284] c_ld[285] c_ld[286] c_ld[287] c_ld[288] c_ld[289] c_ld[290] c_ld[291] c_ld[292] c_ld[293] c_ld[294] c_ld[295] c_ld[296] c_ld[297] c_ld[298] c_ld[299] c_ld[300] c_ld[301] c_ld[302] c_ld[303] c_ld[304] c_ld[305] c_ld[306] c_ld[307] c_ld[308] c_ld[309] c_ld[310] c_ld[311] c_ld[312] c_ld[313] c_ld[314] c_ld[315] c_ld[316] c_ld[317] c_ld[318] c_ld[319] c_ld[320] c_ld[321] c_ld[322] c_ld[323] c_ld[324] c_ld[325] c_ld[326] c_ld[327] c_ld[328] c_ld[329] c_ld[330] c_ld[331] c_ld[332] c_ld[333] c_ld[334] c_ld[335] c_ld[336] c_ld[337] c_ld[338] c_ld[339] c_ld[340] c_ld[341] c_ld[342] c_ld[343] c_ld[344] c_ld[345] c_ld[346] c_ld[347] c_ld[348] c_ld[349] c_ld[350] c_ld[351] c_ld[352] c_ld[353] c_ld[354] c_ld[355] c_ld[356] c_ld[357] c_ld[358] c_ld[359] c_ld[360] c_ld[361] c_ld[362] c_ld[363] c_ld[364] c_ld[365] c_ld[366] c_ld[367] c_ld[368] c_ld[369] c_ld[370] c_ld[371] c_ld[372] c_ld[373] c_ld[374] c_ld[375] c_ld[376] c_ld[377] c_ld[378] c_ld[379] c_ld[380] c_ld[381] c_ld[382] c_ld[383] c_ld[384] c_ld[385] c_ld[386] c_ld[387] c_ld[388] c_ld[389] c_ld[390] c_ld[391] c_ld[392] c_ld[393] c_ld[394] c_ld[395] c_ld[396] c_ld[397] c_ld[398] c_ld[399] c_ld[400] c_ld[401] c_ld[402] c_ld[403] c_ld[404] c_ld[405] c_ld[406] c_ld[407] c_ld[408] c_ld[409] c_ld[410] c_ld[411] c_ld[412] c_ld[413] c_ld[414] c_ld[415] c_ld[416] c_ld[417] c_ld[418] c_ld[419] c_ld[420] c_ld[421] c_ld[422] c_ld[423] c_ld[424] c_ld[425] c_ld[426] c_ld[427] c_ld[428] c_ld[429] c_ld[430] c_ld[431] c_ld[432] c_ld[433] c_ld[434] c_ld[435] c_ld[436] c_ld[437] c_ld[438] c_ld[439] c_ld[440] c_ld[441] c_ld[442] c_ld[443] c_ld[444] c_ld[445] c_ld[446] c_ld[447] c_ld[448] c_ld[449] c_ld[450] c_ld[451] c_ld[452] c_ld[453] c_ld[454] c_ld[455] c_ld[456] c_ld[457] c_ld[458] c_ld[459] c_ld[460] c_ld[461] c_ld[462] c_ld[463] c_ld[464] c_ld[465] c_ld[466] c_ld[467] c_ld[468] c_ld[469] c_ld[470] c_ld[471] c_ld[472] c_ld[473] c_ld[474] c_ld[475] c_ld[476] c_ld[477] c_ld[478] c_ld[479] c_ld[480] c_ld[481] c_ld[482] c_ld[483] c_ld[484] c_ld[485] c_ld[486] c_ld[487] c_ld[488] c_ld[489] c_ld[490] c_ld[491] c_ld[492] c_ld[493] c_ld[494] c_ld[495] c_ld[496] c_ld[497] c_ld[498] c_ld[499] c_ld[500] c_ld[501] c_ld[502] c_ld[503] c_ld[504] c_ld[505] c_ld[506] c_ld[507] c_ld[508] c_ld[509] c_ld[510] c_ld[511] c_ld[512] c_ld[513] c_ld[514] c_ld[515] c_ld[516] c_ld[517] c_ld[518] c_ld[519] c_ld[520] c_ld[521] c_ld[522] c_ld[523] c_ld[524] c_ld[525] c_ld[526] c_ld[527] c_ld[528] c_ld[529] c_ld[530] c_ld[531] c_ld[532] c_ld[533] c_ld[534] c_ld[535] c_ld[536] c_ld[537] c_ld[538] c_ld[539] c_ld[540] c_ld[541] c_ld[542] c_ld[543] c_ld[544] c_ld[545] c_ld[546] c_ld[547] c_ld[548] c_ld[549] c_ld[550] c_ld[551] c_ld[552] c_ld[553] c_ld[554] c_ld[555] c_ld[556] c_ld[557] c_ld[558] c_ld[559] c_ld[560]
1 1 0.618421 1.86925 -3.20371 5.33243 -7.33045 2.58548 0.708725 -3.12296 2.52277 6.53772 -6.89174 1.55051 -9.34655 7.66618 -16.958 0.168954 0.382445 0.00207665 0.127739 0.00505688 0.0802389 3.49409 0.020909 1.16732 0.0486054 0.733546 10.2638 0.0791085 3.43121 0.164806 2.15654 28.4349 0.13972 9.49589 0.351213 5.96865 53.7355 0.454522 17.9981 0.473653 11.3434 6.68473 0.373913 2.28903 0.280561 1.46317 1.56014 -0.00212461 0.519997 0.00649649 0.32819 12.2206 -0.0108125 4.07353 0.0484355 2.56358 22.0791 0.0622686 7.36557 0.078375 4.57564 8.268 0.0487728 2.73858 -0.250682 1.20029 68.5144 0.430321 22.8448 0.11051 13.0387 19.8208 0.169324 6.6149 0.13695 3.98121 6.36438 0.00335969 2.12575 0.0563692 1.41663 42.7418 0.0106054 14.2658 0.296816 9.36252 47.4961 0.0513177 15.8623 0.128877 9.90532 2.40409 0.257615 0.980186 1.07271 2.55325 87.358 1.85101 29.6381 2.15242 19.57 58.7704 0.329938 19.7296 0.546487 11.9286 0.236512 0.00128425 0.0789964 0.000410099 6.53132 0.0390841 2.18201 0.0124526 -32.8821 -0.253441 -10.9926 -0.0806009 151.627 0.745046 50.6362 0.237666 0.964822 0.00523892 0.322256 -0.00042627 22.8434 0.136697 7.63162 -0.00657715 -70.7352 -0.545195 -23.647 -0.0634732 44.0886 0.216637 14.7235 0.0911357 3.93587 -0.00535991 1.31183 0.000698615 79.8951 -0.0706895 26.6316 0.00673164 -152.164 -0.429139 -50.7616 -0.0524123 12.8196 0.0756229 4.2462 0.481528 16.0559 0.00847573 5.36279 0.00289771 279.434 0.0693354 93.2659 0.0234024 -327.331 -0.353668 -109.319 -0.118815 3.72756 0.399435 1.51979 0.102481 0.146264 0.000794206 0.048853 1.3363 0.00799654 0.446436 3.92533 0.0302547 1.31225 10.8748 0.0534351 3.63165 0.596666 -0.000812547 0.19887 4.67372 -0.00413521 1.5579 8.44406 0.0238143 2.81693 3.16206 0.0186529 1.04736 2.43403 0.0012849 0.812983 16.3464 0.00405599 5.45589 18.1646 0.0196262 6.06646 0.919431 0.0985236 0.374867 4.31249e-06 0.00725601 4.34208e-05 0.0213143 0.000164281 0.0590493 0.00029015 -4.41208e-06 0.025378 -2.24539e-05 0.0458507 0.00012931 0.0171698 0.000101284 6.97691e-06 0.08876 2.20238e-05 0.0986329 0.000106569 0.00499246 0.000534977 0.446331 1.31108 3.63223 1.56105 2.82036 1.05614 5.45979 6.06709 0.307095 12.2087 0.0730579 4.07872 35.8625 0.276412 11.9889 42.7 -0.03778 14.2333 77.1465 0.217572 25.736 149.344 0.0370563 49.846 165.956 0.179309 55.4243 0.000437187 0.214605 0.00165408 -0.00022608 0.461653 0.00130197 0.000221749 0.993096 0.001073 11.9811 25.7734 55.4432 2.43403 -0.00331468 0.811266 19.0658 -0.016869 6.35526 34.4465 0.0971475 11.4913 12.8992 0.0760923 4.27256 9.9293 0.00524157 3.31646 66.6831 0.0165459 22.2566 74.1004 0.0800626 24.7473 3.7507 0.401915 1.52922 4.51397e-06 -0.0259641 2.29725e-05 -0.0469096 -0.000132297 -0.0175663 -0.000103623 -7.13803e-06 -0.0908098 -2.25324e-05 -0.100911 -0.00010903 -0.00510775 -0.000547332 6.35469 11.4811 4.29933 22.2256 24.6978 1.25012 149.344 -0.132136 49.7811 269.821 0.760961 90.0119 522.332 0.129605 174.337 580.432 0.627135 193.847 0.000116911 -0.238732 -0.000673282 -0.000114672 -0.513554 -0.000554875 89.94 193.477 40.5053 0.0213823 13.5291 272.025 0.067497 90.793 302.283 0.326605 100.954 15.3005 1.63956 6.23828 1.12875e-05 0.143599 3.5631e-05 0.159572 0.000172412 0.00807698 0.000865507 90.8586 100.965 5.11049 1826.86 0.453296 609.747 2030.07 2.19341 677.984 0.000112475 0.503716 0.000544247 677.57 0.0904529 0.000491154 0.0302118 0.00015684 2.49787 0.0149475 0.8345 0.00476243 -12.5756 -0.0969272 -4.20406 -0.0308254 0.368991 0.0020036 0.123245 -0.000163025 8.73634 0.0522792 2.91868 -0.0025154 -27.0523 -0.208507 -9.04367 -0.024275 1.50525 -0.00204987 0.501704 0.000267182 30.5555 -0.0270348 10.1851 0.00257448 -58.1943 -0.164122 -19.4135 -0.0200448 6.14049 0.0032415 2.05097 0.00110821 106.868 0.026517 35.6691 0.00895014 -125.186 -0.135259 -41.8084 -0.0454401 2.66694e-06 0.0135633 8.11642e-05 -0.0682848 -0.000526309 1.08794e-05 0.0474378 0.000283873 -0.146893 -0.00113218 -1.11307e-05 0.165914 -0.000146798 -0.315991 -0.000891173 1.76012e-05 0.580288 0.000143986 -0.679752 -0.000734447 0.834303 -4.20032 2.91799 -9.03563 10.2057 -19.4372 35.6946 -41.8128 0.136563 7.62415 0.0435104 0.477633 26.6656 -0.0229812 -0.246995 93.0532 0.0235209 0.242264 325.879 0.0817702 1.50525 0.00817344 0.502763 -0.000665039 35.6388 0.213266 11.9064 -0.0102613 -110.357 -0.850579 -36.8925 -0.0990269 6.14049 -0.00836219 2.04664 0.00108993 124.647 -0.110285 41.5489 0.0105023 -237.396 -0.669515 -79.195 -0.0817703 25.0494 0.0132233 8.36668 0.00452082 435.956 0.108173 145.508 0.036511 -510.68 -0.551771 -170.552 -0.185367 -1.11307e-05 -0.0485333 -0.000290429 0.150285 0.00115833 1.13877e-05 -0.169746 0.000150188 0.323289 0.000911753 -1.80076e-05 -0.593689 -0.000147311 0.69545 0.000751408 11.8785 -36.7821 41.5452 -79.1246 145.305 -170.211 1.67053 93.2632 -0.0803769 -0.86387 325.455 0.0822649 0.847322 1139.77 0.285992 25.0494 -0.0341125 8.34901 0.00444625 508.483 -0.449895 169.494 0.0428427 -968.428 -2.7312 -323.066 -0.333572 102.186 0.0539428 34.1308 0.0184421 1778.43 0.441277 593.58 0.148942 -2083.26 -2.25088 -695.747 -0.756182 -1.80076e-05 0.268423 -0.000237495 -0.511223 -0.00144177 2.84758e-05 0.938812 0.000232945 -1.09973 -0.00118822 169.837 -323.462 594.008 -695.824 -3.0214 1138.28 0.287723 2.96352 3986.36 1.00026
2 1 0.617517 1.86662 -3.19138 5.35982 -7.56412 2.7284 0.686592 -3.62216 2.5265 6.51394 -6.74157 1.72579 -9.34126 7.41433 -16.9743 0.879578 0.381328 0.00182776 0.127567 0.00486795 0.0801691 3.48427 0.0180178 1.16602 0.0465246 0.733125 10.1849 0.0650262 3.41272 0.155585 2.14663 28.7277 0.125087 9.60209 0.339596 6.03777 57.216 0.182477 19.1766 0.298005 12.0756 7.44415 0.186806 2.57231 0.169614 1.64191 1.56016 -0.0057268 0.520337 0.00518811 0.328087 12.1591 -0.028543 4.0559 0.0414922 2.55113 21.5149 0.136393 7.18043 0.104812 4.46597 9.24991 0.210123 3.03262 -0.135878 1.40343 70.6585 0.440234 23.6583 0.139506 13.5303 20.2292 0.2191 6.75557 0.144886 4.05536 6.38318 0.0184476 2.13878 0.0583347 1.44261 42.4314 0.0495517 14.1896 0.273522 9.38833 45.4488 0.314449 15.1949 0.346381 9.49851 2.97834 0.526929 1.28917 1.03054 2.84768 87.2591 3.30539 29.4256 2.95468 19.3497 54.9722 0.58454 18.46 0.557233 11.2124 0.235477 0.00112867 0.0787748 0.000370707 6.50382 0.0336325 2.17652 0.0110183 -32.504 -0.207524 -10.8913 -0.0679356 153.975 0.670444 51.4655 0.217864 0.963423 0.00461783 0.322297 -0.00117355 22.6964 0.117367 7.59539 -0.0178515 -68.6624 -0.438379 -23.0071 -0.13926 49.5779 0.215873 16.5711 0.380886 3.94173 -0.0144687 1.31463 0.0038215 79.2034 -0.185927 26.4199 0.0316519 -145.044 -0.919505 -48.4074 -0.315469 15.9634 0.362628 5.23366 0.981875 16.1271 0.0466078 5.40361 0.0163571 276.396 0.322777 92.43 0.111402 -306.396 -2.11988 -102.437 -0.654472 5.13997 0.909368 2.22482 0.116697 0.145411 0.000696976 0.0486448 1.32865 0.0068707 0.444636 3.8838 0.0247963 1.30136 10.9547 0.0476991 3.66154 0.594931 -0.00218379 0.198419 4.63659 -0.0108842 1.54663 8.20424 0.0520105 2.7381 3.52725 0.0801259 1.15642 2.43409 0.00703458 0.815575 16.1803 0.0188954 5.41088 17.3309 0.119908 5.79423 1.13572 0.200933 0.491595 3.34071e-06 0.00636842 3.29323e-05 0.0186156 0.000118852 0.0525074 0.000228629 -1.04672e-05 0.0222238 -5.21697e-05 0.0393242 0.000249294 0.0169066 0.000384055 3.37178e-05 0.0775544 9.05686e-05 0.0830695 0.000574738 0.00544369 0.000963101 0.444478 1.29926 3.6647 1.55109 2.74459 1.17998 5.41284 5.79776 0.379937 12.1402 0.0627791 4.06274 35.4871 0.226569 11.8908 42.3655 -0.0994515 14.1319 74.9639 0.475232 25.0186 147.843 0.172652 49.4404 158.356 1.09563 52.9432 0.000324642 0.18351 0.00117163 -0.000514282 0.387652 0.00245751 0.000892814 0.818888 0.00566569 11.8758 25.0869 52.9942 2.43409 -0.00893469 0.811807 18.97 -0.0445315 6.32783 33.5666 0.212795 11.2026 14.4313 0.327825 4.73136 9.95876 0.0287811 3.33683 66.1996 0.0773083 22.1379 70.9072 0.49059 23.7064 4.64667 0.822092 2.0113 3.27962e-05 -0.0696324 0.00016346 -0.123212 -0.000781096 -0.0529723 -0.00120333 -0.000105646 -0.242996 -0.000283772 -0.260276 -0.00180079 -0.0170563 -0.00301762 6.32681 11.195 4.81307 22.0786 23.6487 1.54974 147.843 -0.347055 49.3159 261.601 1.65841 87.3073 515.926 0.602502 172.532 552.614 3.82341 184.756 0.000814701 -0.6141 -0.00389307 -0.00141435 -1.29724 -0.00897531 87.2624 184.336 40.745 0.117754 13.6522 270.847 0.316298 90.5747 290.108 2.00719 96.9918 19.0113 3.36349 8.22898 0.000340314 0.782757 0.000914109 0.83842 0.00580083 0.0549431 0.00972058 90.7513 97.2048 6.37 1800.42 2.10255 602.083 1928.46 13.3425 644.74 0.00245537 2.25206 0.0155815 644.899 0.0897938 0.000430395 0.030039 0.000141361 2.48009 0.012825 0.829967 0.00420157 -12.3947 -0.0791345 -4.15315 -0.0259057 0.36738 0.00176091 0.122901 -0.000447506 8.65475 0.0447553 2.89633 -0.00680727 -26.1829 -0.167166 -8.77323 -0.0531038 1.50309 -0.00551733 0.501305 0.00145724 30.2024 -0.0708992 10.0746 0.0120697 -55.3095 -0.350633 -18.4591 -0.120297 6.14971 0.0177728 2.06055 0.00623741 105.397 0.123084 35.2461 0.0424806 -116.837 -0.80837 -39.0622 -0.249568 2.06295e-06 0.0118874 6.14721e-05 -0.0594096 -0.000379304 8.44029e-06 0.0414835 0.000214519 -0.125498 -0.000801252 -2.64454e-05 0.144765 -0.00033983 -0.265107 -0.00168063 8.51879e-05 0.505185 0.000589959 -0.560019 -0.00387464 0.829672 -4.14643 2.8953 -8.75905 10.1037 -18.5029 35.2589 -39.086 0.117185 7.58359 0.0383906 0.408939 26.4644 -0.0621995 -0.647821 92.0541 0.110284 1.12464 322.052 0.388154 1.50309 0.00720453 0.502834 -0.00183092 35.4098 0.183111 11.85 -0.0278511 -107.124 -0.683939 -35.8946 -0.217268 6.14971 -0.0225735 2.05103 0.00596214 123.57 -0.290075 41.2191 0.0493818 -226.292 -1.43457 -75.5231 -0.492181 25.1608 0.0727154 8.43048 0.0255196 431.22 0.503582 144.205 0.173804 -478.026 -3.30735 -159.818 -1.02108 -2.64454e-05 -0.129977 -0.000672137 0.393216 0.00251051 8.28595e-05 -0.453581 0.00106477 0.83064 0.00526582 -0.000266913 -1.58286 -0.00184848 1.75467 0.0121401 11.8098 -35.7276 41.2125 -75.472 143.819 -159.429 1.42707 92.3527 -0.217057 -2.2607 321.241 0.384857 3.92466 1123.86 1.35454 25.1608 -0.0923566 8.39153 0.0243933 505.57 -1.18681 168.643 0.20204 -925.846 -5.86937 -308.993 -2.0137 102.942 0.297506 34.4923 0.10441 1764.28 2.06034 589.998 0.711098 -1955.78 -13.5316 -653.877 -4.17761 -0.000266913 1.46111 -0.00342991 -2.67572 -0.0169626 0.000859801 5.09883 0.00595445 -5.65227 -0.0391067 169.398 -310.218 591.149 -655.313 -7.88915 1121.03 1.34303 13.6959 3921.94 4.72693
3 1 0.617554 1.86676 -3.19638 5.3415 -7.41997 2.63842 0.760357 -3.3775 2.53056 6.5484 -6.8545 1.47603 -9.39318 7.72376 -17.8838 1.50143 0.381373 0.00196383 0.127372 0.00501608 0.0799772 3.48478 0.0196848 1.16412 0.0481217 0.731236 10.2168 0.0728051 3.41494 0.162354 2.14523 28.5316 0.137449 9.52868 0.348793 5.98795 55.056 0.343452 18.4414 0.404738 11.6406 6.96126 0.294874 2.3805 0.23877 1.52717 1.56276 -0.000743511 0.520932 0.00762733 0.331173 12.2243 -0.00140641 4.07592 0.0566802 2.58129 21.9096 0.0609737 7.32175 0.085006 4.5526 7.8842 -0.0346132 2.62648 -0.315859 1.048 69.6971 0.351827 23.3981 0.0773981 13.4466 20.3785 0.176919 6.88672 0.134246 4.1952 6.40373 0.0022024 2.13632 0.0462028 1.45053 42.8816 0.00845479 14.3029 0.238291 9.53083 46.9841 0.0514057 15.7311 0.104825 9.83517 2.17865 0.207356 0.83497 1.03855 2.81345 88.2317 1.69232 30.2783 1.78324 19.8983 59.6564 0.252861 20.1327 0.363723 12.2897 0.235519 0.00121277 0.0786591 0.000384695 6.50523 0.0367468 2.17313 0.011622 -32.6569 -0.232713 -10.9154 -0.0732712 152.402 0.734186 50.8974 0.233159 0.965088 0.00496958 0.322322 -0.000151845 22.8197 0.128904 7.62315 -0.0009676 -70.0313 -0.499043 -23.4077 -0.0614662 42.1134 0.202879 14.0646 -0.053474 3.95465 -0.0018815 1.31825 0.000472197 80.0494 -0.00920977 26.6908 0.00551122 -150.179 -0.417944 -50.1869 -0.0519408 11.6373 -0.0510901 3.87675 0.381721 16.205 0.00557331 5.40609 0.0018743 280.806 0.0553653 93.6608 0.018791 -322.053 -0.35236 -107.829 -0.113868 3.21575 0.306063 1.23244 0.140219 0.145446 0.000748951 0.0485763 1.329 0.00750727 0.443965 3.89643 0.0277659 1.30237 10.8812 0.0524195 3.63398 0.595994 -0.000283555 0.19867 4.66201 -0.000536369 1.55445 8.35573 0.0232537 2.79232 3.00682 -0.0132006 1.00167 2.44221 0.000839938 0.814735 16.3539 0.00322443 5.45473 17.9185 0.0196048 5.99941 0.83088 0.0790799 0.318435 3.85662e-06 0.0068435 3.86576e-05 0.0200641 0.000142977 0.0560312 0.000269927 -1.46013e-06 0.0240064 -2.76196e-06 0.0430266 0.000119742 0.0154832 -6.79744e-05 4.32514e-06 0.084212 1.66037e-05 0.0922688 0.000100952 0.0042785 0.000407211 0.443863 1.30134 3.63413 1.55703 2.79067 1.00423 5.46191 5.98446 0.277499 12.1437 0.0685973 4.05671 35.6034 0.25371 11.9003 42.5989 -0.00490104 14.2037 76.35 0.21248 25.5147 149.433 0.0294631 49.8423 163.729 0.179137 54.8193 0.000387493 0.201117 0.00143316 -2.7685e-05 0.431286 0.00120026 0.000166431 0.924875 0.00101191 11.8937 25.5054 54.6953 2.44221 -0.00116193 0.814091 19.1036 -0.00219789 6.36968 34.2394 0.0952871 11.4421 12.3211 -0.0540921 4.10455 10.0075 0.00344182 3.33855 67.0135 0.0132128 22.3519 73.4249 0.0803347 24.5839 3.40471 0.324047 1.30486 5.52809e-07 -0.00908888 1.04568e-06 -0.01629 -4.53346e-05 -0.00586199 2.57353e-05 -1.63751e-06 -0.0318829 -6.28623e-06 -0.0349332 -3.82207e-05 -0.00161985 -0.000154171 6.36802 11.4134 4.10713 22.3384 24.4756 1.13493 149.433 -0.0171924 49.8252 267.829 0.745359 89.5031 524.196 0.103354 174.842 574.347 0.628397 192.301 1.978e-06 -0.0308139 -8.57543e-05 -1.18909e-05 -0.0660792 -7.22977e-05 89.3018 191.504 41.0078 0.0141036 13.6804 274.602 0.0541422 91.5917 300.874 0.329188 100.738 13.9515 1.32785 5.34693 4.85058e-06 0.0944425 1.86208e-05 0.103478 0.000113216 0.00479827 0.000456681 91.6087 100.373 4.6543 1838.83 0.362554 613.329 2014.75 2.20436 674.573 7.14834e-05 0.397241 0.000434624 672.008 0.0898205 0.000462518 0.0299985 0.000146713 2.48092 0.0140142 0.828775 0.00443231 -12.4545 -0.0887505 -4.16285 -0.0279437 0.368059 0.00189527 0.122925 -5.79095e-05 8.70283 0.0491606 2.90726 -0.000369017 -26.7081 -0.190322 -8.92706 -0.0234415 1.5082 -0.000717553 0.502746 0.000180083 30.5287 -0.00351236 10.1792 0.00210183 -57.2743 -0.159393 -19.14 -0.0198088 6.18017 0.00212551 2.06174 0.000714806 107.092 0.0211149 35.7197 0.00716639 -122.822 -0.134381 -41.1229 -0.0434261 2.38167e-06 0.0127751 7.21643e-05 -0.0641325 -0.000457008 9.7594e-06 0.044814 0.000253146 -0.137529 -0.000980034 -3.69494e-06 0.157203 -1.80864e-05 -0.294926 -0.00082077 1.0945e-05 0.551454 0.000108728 -0.632456 -0.000691975 0.828584 -4.15957 2.90659 -8.92002 10.1961 -19.1286 35.7668 -41.0205 0.128054 7.57289 0.0405 0.449203 26.565 -0.00337187 -0.032094 93.0115 0.0192054 0.192936 326.387 0.0654825 1.5082 0.00776626 0.503712 -0.000237297 35.6617 0.201446 11.9131 -0.00151212 -109.442 -0.779883 -36.5805 -0.0960567 6.18017 -0.00294033 2.06011 0.00073793 125.098 -0.0143926 41.7112 0.00861271 -234.694 -0.653145 -78.43 -0.0811709 25.3245 0.00870974 8.4484 0.00292907 438.831 0.0865226 146.369 0.0293658 -503.291 -0.550654 -168.51 -0.177948 -3.69494e-06 -0.0169667 -9.58417e-05 0.052069 0.000371044 1.39892e-06 -0.0595176 6.84756e-06 0.11166 0.000310746 -4.14382e-06 -0.208782 -4.11647e-05 0.23945 0.000261984 11.8875 -36.4816 41.7003 -78.2332 146.281 -167.768 1.57576 93.1874 -0.0118282 -0.112583 326.275 0.0673706 0.676801 1144.94 0.229706 25.3245 -0.0120486 8.44173 0.00302383 512.615 -0.0589769 170.921 0.0352924 -961.707 -2.6764 -321.384 -0.332615 103.773 0.03569 34.6191 0.0120025 1798.21 0.354545 599.779 0.120333 -2062.34 -2.25642 -690.506 -0.729179 -4.14382e-06 0.176301 -2.02836e-05 -0.330755 -0.000920481 1.22747e-05 0.618447 0.000121937 -0.70929 -0.000776039 171.011 -320.831 599.891 -688.008 -0.394929 1144.54 0.23633 2.37415 4016.32 0.805788
4 1 0.619046 1.871 -3.20439 5.34346 -7.40498 2.63529 0.571087 -3.14877 2.44465 6.40011 -7.12857 2.17821 -8.88264 7.22772 -17.7734 0.748094 0.383217 0.00199379 0.128252 0.00500002 0.0805218 3.50063 0.0198875 1.17201 0.0479674 0.736192 10.2681 0.0746506 3.44227 0.162774 2.16325 28.5525 0.13084 9.54729 0.343205 5.99726 54.8338 0.282614 18.3641 0.345454 11.5355 6.94478 0.282978 2.39959 0.227373 1.52615 1.51335 -0.000351377 0.505037 0.00785349 0.319309 11.9746 -0.00139429 3.9969 0.0576611 2.51931 22.8427 0.0181855 7.63687 0.0754077 4.7517 11.6392 -0.012902 3.8601 -0.30434 1.91313 65.7758 0.235564 22.1689 -0.0259995 12.7386 19.0472 0.0741015 6.44114 0.0953166 3.89551 5.97633 0.000298264 2.00026 0.0554297 1.32684 40.9614 0.00296548 13.6959 0.286926 8.9563 50.8165 0.0841278 16.9928 0.128066 10.6177 4.7446 0.0529995 1.77202 1.19886 2.55734 78.9013 2.94409 27.3047 2.58276 18.2713 52.24 0.620789 17.6755 0.732311 10.7122 0.237229 0.00123425 0.0793941 0.000401724 6.54968 0.0372094 2.19284 0.0120797 -32.9031 -0.23921 -11.0304 -0.0775276 152.569 0.69914 51.0156 0.22574 0.936834 0.00487414 0.313533 -7.6584e-05 22.4044 0.127282 7.50102 -0.00117686 -73.1971 -0.532152 -24.5385 -0.012095 62.1935 0.284998 20.796 -0.0148439 3.69962 -0.000858995 1.23464 6.3304e-05 76.6387 -0.00892363 25.5806 0.00194793 -162.836 -0.129636 -54.44 -0.0897347 25.3526 -0.0281033 8.4081 0.0947734 14.6101 0.000729153 4.88995 0.000250158 262.158 0.0189794 87.6555 0.00612088 -362.249 -0.599711 -121.135 -0.199173 10.3347 0.115444 3.85983 0.0462662 0.146856 0.000764057 0.0491486 1.3415 0.00762122 0.449136 3.93493 0.0286074 1.31914 10.9418 0.0501403 3.65869 0.579943 -0.000134654 0.193539 4.58887 -0.000534318 1.53168 8.75373 0.00696898 2.92658 4.46034 -0.00494428 1.47926 2.29023 0.0001143 0.766536 15.6971 0.00113642 5.24852 19.4738 0.0322392 6.51195 1.81821 0.0203103 0.679068 3.97522e-06 0.00697955 3.96515e-05 0.0204725 0.000148838 0.0569279 0.000260869 -7.00574e-07 0.0238749 -2.77994e-06 0.0455437 3.62581e-05 0.0232061 -2.5724e-05 5.94678e-07 0.0816687 5.91256e-06 0.101318 0.000167734 0.00945976 0.00010567 0.448965 1.31691 3.66193 1.53577 2.92964 1.49275 5.2534 6.51734 0.608507 12.2544 0.0696187 4.10279 35.945 0.261324 12.0501 41.9187 -0.00488091 13.9917 79.9641 0.0636606 26.7339 143.391 0.0103811 47.9445 177.89 0.294501 59.4857 0.000395511 0.204207 0.00148461 -2.7729e-05 0.454284 0.000361662 5.89758e-05 1.01061 0.00167309 12.0344 26.772 59.5577 2.29023 -0.000531757 0.764299 18.1218 -0.00211006 6.04871 34.5691 0.027521 11.5573 17.6142 -0.0195253 5.84168 9.04429 0.000451379 3.0271 61.989 0.00448781 20.7268 76.9033 0.127315 25.7161 7.18025 0.0802069 2.68169 1.23466e-07 -0.0042076 4.89923e-07 -0.00802641 -6.38995e-06 -0.00408974 4.53348e-06 -1.04803e-07 -0.0143929 -1.042e-06 -0.0178558 -2.95606e-05 -0.00166714 -1.86228e-05 6.04761 11.5364 5.87822 20.687 25.6642 2.3962 143.391 -0.0166961 47.8612 273.532 0.217763 91.4484 490.496 0.0355104 164.003 608.507 1.0074 203.482 1.94406e-06 -0.0318495 -2.53559e-05 -4.13475e-06 -0.0708532 -0.000117299 91.3 203.108 35.7165 0.00178253 11.9542 244.799 0.0177227 81.8514 303.696 0.502776 101.555 28.3553 0.316742 10.5902 8.89617e-08 0.0122173 8.84497e-07 0.0151568 2.50923e-05 0.00141515 1.58079e-05 81.9337 101.646 9.49046 1677.84 0.12147 561.005 2081.52 3.44599 696.05 8.79407e-06 0.150695 0.000249479 695.98 0.0909103 0.000472986 0.0304252 0.000153948 2.50995 0.0142593 0.840333 0.00462915 -12.609 -0.0916694 -4.22703 -0.0297099 0.359011 0.00186785 0.120151 -2.93483e-05 8.58577 0.0487766 2.87452 -0.000450994 -28.0504 -0.20393 -9.40357 -0.00463503 1.41776 -0.000329182 0.473136 2.42592e-05 29.3693 -0.00341969 9.80292 0.000746483 -62.4016 -0.0496789 -20.8623 -0.0343879 5.59883 0.000279424 1.87391 9.58647e-05 100.463 0.00727324 33.5911 0.00234563 -138.82 -0.22982 -46.4209 -0.0763267 2.46084e-06 0.0130587 7.41879e-05 -0.0656021 -0.000476935 9.71803e-06 0.0446699 0.000253774 -0.14594 -0.001061 -1.71266e-06 0.152802 -1.77919e-05 -0.324662 -0.000258468 1.45378e-06 0.522688 3.7841e-05 -0.72225 -0.0011957 0.840012 -4.2199 2.87342 -9.3877 9.8291 -20.8841 33.6223 -46.4593 0.130256 7.67631 0.0422866 0.445567 26.2583 -0.00411977 -0.0312384 89.5482 0.00681901 0.0664399 306.85 0.021427 1.41776 0.00737628 0.474485 -0.000115898 33.9058 0.192622 11.3517 -0.00178101 -110.773 -0.805333 -37.1353 -0.018304 5.59883 -0.00129996 1.86845 9.58012e-05 115.981 -0.0135046 38.7124 0.00294791 -246.428 -0.196185 -82.3868 -0.1358 22.1101 0.00110347 7.40022 0.000378576 396.737 0.0287225 132.654 0.00926304 -548.21 -0.907574 -183.319 -0.301419 -1.71266e-06 -0.00787241 -4.47239e-05 0.0257198 0.000186986 3.01831e-07 -0.0269291 3.13556e-06 0.0572168 4.55512e-05 -2.56208e-07 -0.0921161 -6.66892e-06 0.127286 0.000210725 11.3151 -36.9672 38.7054 -82.2382 132.399 -182.949 1.52415 89.8216 -0.0140925 -0.106857 306.317 0.0233257 0.227271 1049.64 0.073295 22.1101 -0.00513364 7.37862 0.000378325 458.018 -0.0533306 152.878 0.0116415 -973.162 -0.774749 -325.351 -0.536284 87.3145 0.00435766 29.224 0.00149502 1566.74 0.113427 523.858 0.0365804 -2164.92 -3.58407 -723.94 -1.19033 -2.56208e-07 0.0228586 -2.6616e-06 -0.0485682 -3.86659e-05 2.1748e-07 0.0781923 5.66088e-06 -0.108046 -0.000178873 153.298 -325.715 524.384 -724.594 -0.365525 1047.82 0.0797902 0.777423 3590.49 0.25072