ITEM: TIMESTEP
0
ITEM: NUMBER OF ATOMS
12
ITEM: BOX BOUNDS xy xz yz pp pp pp
-8.8344296827430302e-01 5.1364755065543157e+00 0.0000000000000000e+00
0.0000000000000000e+00 5.1934133375444702e+00 -8.8344296827430302e-01
0.0000000000000000e+00 5.2461598045212767e+00 0.0000000000000000e+00
ITEM: ATOMS id type c_ld[1] c_ld[2] c_ld[3] c_ld[4] c_ld[5] c_ld[6] c_ld[7] c_ld[8] c_ld[9] c_ld[10] c_ld[11] c_ld[12] c_ld[13] c_ld[14] c_ld[15] c_ld[16] c_ld[17] c_ld[18] c_ld[19] c_ld[20] c_ld[21] c_ld[22] c_ld[23] c_ld[24] c_ld[25] c_ld[26] c_ld[27] c_ld[28] c_ld[29] c_ld[30] c_ld[31] c_ld[32] c_ld[33] c_ld[34] c_ld[35] c_ld[36] c_ld[37] c_ld[38] c_ld[39] c_ld[40] c_ld[41] c_ld[42] c_ld[43] c_ld[44] c_ld[45] c_ld[46] c_ld[47] c_ld[48] c_ld[49] c_ld[50] c_ld[51] c_ld[52] c_ld[53] c_ld[54] c_ld[55] c_ld[56] c_ld[57] c_ld[58] c_ld[59] c_ld[60] c_ld[61] c_ld[62] c_ld[63] c_ld[64] c_ld[65] c_ld[66] c_ld[67] c_ld[68] c_ld[69] c_ld[70] c_ld[71] c_ld[72] c_ld[73] c_ld[74] c_ld[75] c_ld[76] c_ld[77] c_ld[78] c_ld[79] c_ld[80] c_ld[81] c_ld[82] c_ld[83] c_ld[84] c_ld[85] c_ld[86] c_ld[87] c_ld[88] c_ld[89] c_ld[90] c_ld[91] c_ld[92] c_ld[93] c_ld[94] c_ld[95] c_ld[96] c_ld[97] c_ld[98] c_ld[99] c_ld[100] c_ld[101] c_ld[102] c_ld[103] c_ld[104] c_ld[105] c_ld[106] c_ld[107] c_ld[108] c_ld[109] c_ld[110] c_ld[111] c_ld[112] c_ld[113] c_ld[114] c_ld[115] c_ld[116] c_ld[117] c_ld[118] c_ld[119] c_ld[120] c_ld[121] c_ld[122] c_ld[123] c_ld[124] c_ld[125] c_ld[126] c_ld[127] c_ld[128] c_ld[129] c_ld[130] c_ld[131] c_ld[132] c_ld[133] c_ld[134] c_ld[135] c_ld[136] c_ld[137] c_ld[138] c_ld[139] c_ld[140] c_ld[141] c_ld[142] c_ld[143] c_ld[144] c_ld[145] c_ld[146] c_ld[147] c_ld[148] c_ld[149] c_ld[150] c_ld[151] c_ld[152] c_ld[153] c_ld[154] c_ld[155] c_ld[156] c_ld[157] c_ld[158] c_ld[159] c_ld[160] c_ld[161] c_ld[162] c_ld[163] c_ld[164] c_ld[165] c_ld[166] c_ld[167] c_ld[168] c_ld[169] c_ld[170] c_ld[171] c_ld[172] c_ld[173] c_ld[174] c_ld[175] c_ld[176] c_ld[177] c_ld[178] c_ld[179] c_ld[180] c_ld[181] c_ld[182] c_ld[183] c_ld[184] c_ld[185] c_ld[186] c_ld[187] c_ld[188] c_ld[189] c_ld[190] c_ld[191] c_ld[192] c_ld[193] c_ld[194] c_ld[195] c_ld[196] c_ld[197] c_ld[198] c_ld[199] c_ld[200] c_ld[201] c_ld[202] c_ld[203] c_ld[204] c_ld[205] c_ld[206] c_ld[207] c_ld[208] c_ld[209] c_ld[210] c_ld[211] c_ld[212] c_ld[213] c_ld[214] c_ld[215] c_ld[216] c_ld[217] c_ld[218] c_ld[219] c_ld[220] c_ld[221] c_ld[222] c_ld[223] c_ld[224] c_ld[225] c_ld[226] c_ld[227] c_ld[228] c_ld[229] c_ld[230] c_ld[231] c_ld[232] c_ld[233] c_ld[234] c_ld[235] c_ld[236] c_ld[237] c_ld[238] c_ld[239] c_ld[240] c_ld[241] c_ld[242] c_ld[243] c_ld[244] c_ld[245] c_ld[246] c_ld[247] c_ld[248] c_ld[249] c_ld[250] c_ld[251] c_ld[252] c_ld[253] c_ld[254] c_ld[255] c_ld[256] c_ld[257] c_ld[258] c_ld[259] c_ld[260] c_ld[261] c_ld[262] c_ld[263] c_ld[264] c_ld[265] c_ld[266] c_ld[267] c_ld[268] c_ld[269] c_ld[270] c_ld[271] c_ld[272] c_ld[273] c_ld[274] c_ld[275] c_ld[276] c_ld[277] c_ld[278] c_ld[279] c_ld[280] c_ld[281] c_ld[282] c_ld[283] c_ld[284] c_ld[285] c_ld[286] c_ld[287] c_ld[288] c_ld[289] c_ld[290] c_ld[291] c_ld[292] c_ld[293] c_ld[294] c_ld[295] c_ld[296] c_ld[297] c_ld[298] c_ld[299] c_ld[300] c_ld[301] c_ld[302] c_ld[303] c_ld[304] c_ld[305] c_ld[306] c_ld[307] c_ld[308] c_ld[309] c_ld[310] c_ld[311] c_ld[312] c_ld[313] c_ld[314] c_ld[315] c_ld[316] c_ld[317] c_ld[318] c_ld[319] c_ld[320] c_ld[321] c_ld[322] c_ld[323] c_ld[324] c_ld[325] c_ld[326] c_ld[327] c_ld[328] c_ld[329] c_ld[330] c_ld[331] c_ld[332] c_ld[333] c_ld[334] c_ld[335] c_ld[336] c_ld[337] c_ld[338] c_ld[339] c_ld[340] c_ld[341] c_ld[342] c_ld[343] c_ld[344] c_ld[345] c_ld[346] c_ld[347] c_ld[348] c_ld[349] c_ld[350] c_ld[351] c_ld[352] c_ld[353] c_ld[354] c_ld[355] c_ld[356] c_ld[357] c_ld[358] c_ld[359] c_ld[360] c_ld[361] c_ld[362] c_ld[363] c_ld[364] c_ld[365] c_ld[366] c_ld[367] c_ld[368] c_ld[369] c_ld[370] c_ld[371] c_ld[372] c_ld[373] c_ld[374] c_ld[375] c_ld[376] c_ld[377] c_ld[378] c_ld[379] c_ld[380] c_ld[381] c_ld[382] c_ld[383] c_ld[384] c_ld[385] c_ld[386] c_ld[387] c_ld[388] c_ld[389] c_ld[390] c_ld[391] c_ld[392] c_ld[393] c_ld[394] c_ld[395] c_ld[396] c_ld[397] c_ld[398] c_ld[399] c_ld[400] c_ld[401] c_ld[402] c_ld[403] c_ld[404] c_ld[405] c_ld[406] c_ld[407] c_ld[408] c_ld[409] c_ld[410] c_ld[411] c_ld[412] c_ld[413] c_ld[414] c_ld[415] c_ld[416] c_ld[417] c_ld[418] c_ld[419] c_ld[420] c_ld[421] c_ld[422] c_ld[423] c_ld[424] c_ld[425] c_ld[426] c_ld[427] c_ld[428] c_ld[429] c_ld[430] c_ld[431] c_ld[432] c_ld[433] c_ld[434] c_ld[435] c_ld[436] c_ld[437] c_ld[438] c_ld[439] c_ld[440] c_ld[441] c_ld[442] c_ld[443] c_ld[444] c_ld[445] c_ld[446] c_ld[447] c_ld[448] c_ld[449] c_ld[450] c_ld[451] c_ld[452] c_ld[453] c_ld[454] c_ld[455] c_ld[456] c_ld[457] c_ld[458] c_ld[459] c_ld[460] c_ld[461] c_ld[462] c_ld[463] c_ld[464] c_ld[465] c_ld[466] c_ld[467] c_ld[468] c_ld[469] c_ld[470] c_ld[471] c_ld[472] c_ld[473] c_ld[474] c_ld[475] c_ld[476] c_ld[477] c_ld[478] c_ld[479] c_ld[480] c_ld[481] c_ld[482] c_ld[483] c_ld[484] c_ld[485] c_ld[486] c_ld[487] c_ld[488] c_ld[489] c_ld[490] c_ld[491] c_ld[492] c_ld[493] c_ld[494] c_ld[495] c_ld[496] c_ld[497] c_ld[498] c_ld[499] c_ld[500] c_ld[501] c_ld[502] c_ld[503] c_ld[504] c_ld[505] c_ld[506] c_ld[507] c_ld[508] c_ld[509] c_ld[510] c_ld[511] c_ld[512] c_ld[513] c_ld[514] c_ld[515] c_ld[516] c_ld[517] c_ld[518] c_ld[519] c_ld[520] c_ld[521] c_ld[522] c_ld[523] c_ld[524] c_ld[525] c_ld[526] c_ld[527] c_ld[528] c_ld[529] c_ld[530] c_ld[531] c_ld[532] c_ld[533] c_ld[534] c_ld[535] c_ld[536] c_ld[537] c_ld[538] c_ld[539] c_ld[540] c_ld[541] c_ld[542] c_ld[543] c_ld[544] c_ld[545] c_ld[546] c_ld[547] c_ld[548] c_ld[549] c_ld[550] c_ld[551] c_ld[552] c_ld[553] c_ld[554] c_ld[555] c_ld[556] c_ld[557] c_ld[558] c_ld[559] c_ld[560]
1 1    0.616554587307108     1.86335989867964    -3.19212495325258     5.31759126699088    -7.34002037911135     2.60062066338703    0.654331718631171    -3.15383882476955     2.51059890746877     6.51282659786216    -6.90896734840881     1.49173339216322     -9.2669729565135     7.71750565685312    -17.8606020789094     0.80100196279279    0.380139559129438   0.0015426183963974    0.127038732864372  0.00524006920416687   0.0796987742609041     3.47211011200739   0.0156552932864917     1.16064068567916   0.0502146314449768     0.72839592673398     10.1896617171778   0.0580427412458147     3.40886292852108    0.169053136002861     2.13942059414424     28.2767768827777    0.120708213522936     9.44508026052736    0.364630481577729     5.92991605067549     53.8758991657699    0.405767262445166     18.0362736757122    0.441501126442934     11.3862822840197      6.7632278348356    0.292308523604122     2.31737569165812    0.250165864916009     1.48961749672023     1.54792127328808 -0.00108586418651677    0.516463112588558  0.00875389331250593    0.327370059298082     12.1357399095105 -0.00281199174154478     4.04926423721821   0.0677433596142863     2.55828955220863     22.0542870740631   0.0639024786043498     7.36260945477538    0.122676189274839     4.58086411207356     7.93242845884582   0.0594333458247766     2.61242394091292   -0.231917284913422     1.09133184513842     68.0197703534829     0.24232353499922     22.8008030294484  -0.0383083838730826     13.0311193688378     20.0703046810185   0.0945484518649997       6.739976614521   0.0684561255169382     4.08183142896443     6.30310687418338   0.0034472094120439     2.10323722843184   0.0450198568573475      1.4217755777578     42.4169102938208   0.0099864066463272      14.149744807259    0.239353047670843     9.40416396316143      47.733829821379   0.0927453581550845     15.9235085221378    0.149641629497036     9.98406739548244     2.22526851329478    0.311510487013469    0.872907115882143    0.929518919708317     2.61855285003485     85.8767877767526     1.58160875463207     29.0831733523128     1.68735573259709      19.204439775207     59.5598935635599    0.347851520902009     19.9321321622935    0.384345946620469     12.0538024075944    0.234376788998157  0.00095110844876315   0.0783263135132111 0.000305583502292505     6.46979074651465   0.0291714457121172     2.16269131047059  0.00934694606501908    -32.5266734326059   -0.185279682685948    -10.8815164163498   -0.059020448009032     150.364341810508    0.641876942083634     50.2250763094082    0.207146028087086    0.954377961836027  0.00387289606063653     0.31894330393551 -0.000229801304455813     22.6132510881879    0.101960210513596     7.55905152825221 -0.00196975767001245    -70.4000400953127   -0.401015404079475    -23.5517226683534  -0.0656454821761815     42.1814122987885    0.180064472820531     14.0895416162903    0.114272356928483     3.88620945756473 -0.00272616944032846     1.29663172621275 0.000730192509019737     79.0379696673973  -0.0183140146073016     26.3721558259268  0.00642918789234491    -152.372349287136   -0.441500138159845    -50.8680283221291  -0.0963643148016324     11.8330684130061   0.0886587065748037     3.89704002714644    0.568124803266642     15.8245732319837  0.00865456018369348     5.28038508784861  0.00296152344444946      276.25398156073   0.0650397348232673     92.1548343336782   0.0219581524259563    -329.791471650411    -0.64077465120996     -110.01500045156   -0.210087098147838     3.31950734781123    0.464690595487019     1.30214469301828    0.108902077172193    0.144506084415124 0.000586410277111468    0.048292447903425     1.31988640722736    0.005951196287969    0.441205438561765     3.87349351284609   0.0220643420678481     1.29584365078069     10.7491214978206   0.0458859670719109     3.59044864617903    0.588426110394811 -0.00041277993313693    0.196328059926032     4.61327481891085 -0.00106894930090645     1.53928552193473     8.38370696524841   0.0242918600439359     2.79881911218055     3.01542985717146    0.022592965879418    0.993085685157829      2.3960602682978  0.00131042066612122      0.7995236727607      16.124345578726  0.00379622821982211     5.37887775282548     18.1455170238587   0.0352561795603757     6.05315550939932      0.8459125915885    0.118417459197497    0.331826526192387 2.37967151690368e-06  0.00535614093310003 2.41501434247387e-05   0.0157187596179848 8.95378004231277e-05   0.0436202762101975 0.000186206710776746 -1.67507407010986e-06    0.018720815638305 -4.33783019102453e-06   0.0340213489598791  9.8577139070461e-05   0.0122367100687218 9.16829726287488e-05 5.31772865525318e-06   0.0654331061375862 1.54052146065296e-05    0.073635084012962 0.000143070695670499  0.00343274014553242  0.00048054180793769    0.441092468994993     1.29448171286687     3.59224590467665     1.54170902047581     2.80174868411608     1.00772565994906     5.38859053574875     6.06404525527158    0.282695292211955      12.055548629904   0.0543569021264692     4.02987226115381     35.3796274861477    0.201530788808222     11.8359474445652     42.1366252565031  -0.0097635449606989     14.0594913042353     76.5749131629684    0.221876442144499     25.5637907386869     147.276183151286   0.0346739034993305      49.129472027608      165.73711320765    0.322022095892016     55.2881749583506 0.000245088207886071    0.159522142672555 0.000908676137355176 -4.4022555433076e-05     0.34526633236894  0.00100041204428486 0.000156340124926422    0.747287105541172  0.00145195578287856     11.8265359622639     25.5971028718056     55.4018249739777      2.3960602682978 -0.00168083227421096    0.799444238844407     18.7851699730225 -0.00435274183704757     6.26794225395472     34.1383001291447   0.0989160060475096     11.3967398019588     12.2787747602832   0.0919981403448591     4.04382659298621      9.7567132183568  0.00533600878238166     3.25564564866111     65.6580377909576   0.0154581712915554     21.9026909987537     73.8882106360257    0.143562512886978     24.6483375868012     3.44454047050714     0.48219370970048     1.35119149427852 1.17910103155972e-06  -0.0131777653446197 3.05344112492438e-06  -0.0239479604928848 -6.93894129461173e-05 -0.00861353997556706 -6.45365417159907e-05 -3.74320124396199e-06  -0.0460590037907544 -1.08438813292397e-05  -0.0518324562883215 -0.000100708862886277 -0.00241633938397021 -0.000338258081572322     6.26766200723097     11.3902257481922     4.09680669224157     21.9067695167364     24.6527623253219     1.14926910272154     147.276183151286  -0.0341256004030789     49.1408176077627     267.645091820509    0.775503859915448     89.3507133984569     514.760591090848    0.121192433690434     171.717622766841     579.285343597092      1.1255335443845     193.243557871538 7.90729755451603e-06  -0.0620164731179232 -0.000179693242099673  -2.808169301718e-05   -0.134227135250022 -0.00026079918119871     89.3036359263476      193.28689000117     39.7291562673777   0.0217281293418035     13.2569290325671     267.358318854602   0.0629453883808555     89.1873537625745     300.871430878234    0.584583904535913     100.367576027004     14.0261052630522     1.96348389207481     5.50202684264032 1.18832527304841e-05    0.146219972394681 3.44252349837169e-05     0.16454850743316  0.00031971267155559  0.00767096656335472  0.00107384188278321     89.2128248450176     100.395567935954     4.68026758041876     1799.19427887405    0.423592514874877     600.188456169961     2024.72157751395     3.93397153703251     675.426032546412 9.97283177058081e-05    0.476689435382871 0.000926192861095933     675.421510645641   0.0890958892399327 0.000361553946397108   0.0297749302871462 0.000116164377838702      2.4594234020398   0.0110892205121726    0.822124521295356  0.00355314395636299     -12.364675298618  -0.0704321368918785    -4.13649485317097  -0.0224360070857754    0.362796817655199  0.00147224100104451    0.121242966945331 -8.73565665632025e-05     8.59619129914705   0.0387591094733831      2.8734945153865 -0.000748782812270363     -26.761840204527   -0.152441818910885    -8.95294147188666   -0.024954444653293     1.47730194988331 -0.00103632484915861    0.492901012755758 0.000277575058458381     30.0454589438503 -0.00696188143870971     10.0250996889607  0.00244398865095632    -57.9227576815288    -0.16783166787567    -19.3369498601579  -0.0366318881445029     6.01554629181778  0.00328994069268843     2.00728325932843  0.00112579221652451     105.015066758248   0.0247241761216124     35.0316980952508  0.00834716238250005    -125.366784637836   -0.243583793412274    -41.8210537692808  -0.0798624168687022 1.46719739003103e-06  0.00998041822641515 4.50004088050199e-05  -0.0501762448107483 -0.000285815846990016 5.97440071047292e-06   0.0348836171309922 0.000157285696438824   -0.108600396958144 -0.000618613739571734 -4.20543913034707e-06    0.121925426022827 -2.82515358451141e-05   -0.235052389112626 -0.00068106623513737  1.3350683752094e-05    0.426154474033609 0.000100331491435181   -0.508742391142894 -0.000988470764901609    0.821914018334863    -4.13214737717149     2.87275876418728    -8.94353188730954     10.0408835147189    -19.3571901770054     35.0949557662128    -41.8962906679447    0.101286471638917     7.50910236823544   0.0324536259487405    0.354017077946659     26.2458592484295 -0.00683921552425436  -0.0635882753094629     91.5670289186353   0.0223228482930063    0.225825120962146      319.97173216033   0.0762411230791627     1.47730194988331   0.0059949382014929    0.493699125134563 -0.000355714327796504      35.003532417611    0.157826378882926     11.7008166664624 -0.00304902980063464    -108.973719703869   -0.620740274890836    -36.4562125409254   -0.101614038355765     6.01554629181778 -0.00421989567127228     2.00708383262497  0.00113028051830725     122.344554645663  -0.0283486528099508     40.8220210254204  0.00995187670852687    -235.860400922441   -0.683407456017252    -78.7397031700443   -0.149164372867277     24.4951935464927   0.0133965778192912     8.17362040863403  0.00458420514100472     427.619414888387    0.100676389141951     142.648428501439   0.0339894912622401    -510.491234716654   -0.991868713991648    -170.294559579767     -0.3251982884664 -4.20543913034707e-06  -0.0245549194973746 -0.000110714941046424   0.0764448822688445 0.000435448265531451 2.96024976162913e-06  -0.0858245006368252 1.98865325734137e-05    0.165455677106325  0.00047940918836998 -9.39767695352671e-06    -0.29997430495946 -7.06243187451333e-05     0.35810874808384 0.000695794245376667     11.6789100427521    -36.3590238339845      40.820195827104    -78.6946977852654     142.674991181837    -170.325129953732     1.23736259591194     91.7346833094567  -0.0239044667680345   -0.222254117973188      320.04562395653   0.0780229520908719    0.789305305598704     1118.36710087755    0.266478426734793     24.4951935464927  -0.0171833373395229     8.17280834677586  0.00460248142307951     498.184769932069   -0.115435191365177     166.226516673435   0.0405238583996558     -960.41920222722    -2.78282255578823    -320.626618993367    -0.60739457505214     99.7439763195345   0.0545506177868721      33.282831545554   0.0186667987807646     1741.25837019596      0.4099523996596     580.861769777837    0.138404581500412    -2078.71089200675    -4.03887110884395    -693.436305609512    -1.32420143251288 -9.39767695352671e-06    0.272460432946292 -6.31322435265995e-05   -0.525259396597857  -0.0015219434316833 2.98340813223285e-05     0.95230532535075 0.000224205586039606     -1.1368602650851 -0.00220888440865012     166.235600264136    -320.475197604325     581.027658521049    -693.629700794466   -0.776823914717635       1118.625367923    0.272706286091713     2.75878459753242     3908.92334107355    0.931396981669835
2 1    0.616554562888175     1.86335985521853    -3.19212485559909      5.3175919579309    -7.34002352273385     2.60062217692352    0.654334598385564    -3.15384422636694     2.51059921683937     6.51282717949334    -6.90896681568391     1.49173141993094    -9.26697428375947     7.71750714884355    -17.8606016063367    0.801000420296386    0.380139529018229  0.00154261638989351    0.127038726419731  0.00524005833410335   0.0796987682150402     3.47210995004002   0.0156552670974994     1.16064066809814   0.0502145285049927    0.728395898749899     10.1896610937335   0.0580426137628915     3.40886285439076    0.169052753056667     2.13942049043337     28.2767842310514    0.120707850104363     9.44508298386768    0.364629979516733     5.92991773039322     53.8759453142863     0.40576016942449     18.0362880439937     0.44149627352555     11.3862903934356     6.76323570710641    0.292305349749072     2.31737815373722    0.250163392613607      1.4896186621903     1.54792140272579 -0.00108588409376361    0.516463156071041  0.00875391464875648    0.327370092070967      12.135740710244  -0.0028121226034739     4.04926452339053   0.0677434643886067      2.5582897631174     22.0542846988539   0.0639026181376891     7.36260889511708    0.122675848102502     4.58086370744093     7.93241900201761   0.0594335290037293     2.61242062210296   -0.231919182385445     1.09132929087843     68.0198092273642    0.242334623196092     22.8008157100637  -0.0382983023413783     13.0311272955372     20.0703202418483   0.0945523540598366     6.73998136289841     0.06845968719749     4.08183391627889     6.30310842759445  0.00344703005887244     2.10323775411567   0.0450199925815277     1.42177570082974     42.4169178699472  0.00998570769531725     14.1497473540731     0.23935369222227      9.4041643985189     47.7338224602215   0.0927448633884397     15.9235064318671    0.149640875790524      9.9840656804186     2.22526262920918    0.311503229607781    0.872906070466021    0.929520269469945     2.61854827501156     85.8768123758594     1.58162293631308     29.0831797645033     1.68736210108176     19.2044433430347     59.5599165924513    0.347849868494088     19.9321376324703    0.384347116707132     12.0538038794838    0.234376761150351 0.000951107173974925   0.0783263064375875 0.000305583197916785      6.4697902938094   0.0291713962322039     2.16269122726809  0.00934693327194757    -32.5266704474379   -0.185279270076464    -10.8815158468292  -0.0590203349417227     150.364400423186    0.641875092974087     50.2250973170048     0.20714546109405    0.954378003842851  0.00387289150035021    0.318943327057646 -0.000229804884052684     22.6132520528099    0.101960049054822     7.55905208881487 -0.00196982893006076    -70.4000303596705   -0.401014492383376    -23.5517203402033  -0.0656455839504793     42.1813674920671    0.180063692632992     14.0895270508905    0.114272655529258     3.88621026141227 -0.00272621975538125     1.29663199515834 0.000730153717913804      79.037981940961  -0.0183148685239724      26.372160044896  0.00642873480166727    -152.372321128027   -0.441501068148615    -50.8680205332231  -0.0963636601395721     11.8330386613669   0.0886588626122397     3.89702992406652    0.568111715387907     15.8245790819722   0.0086541109662269     5.28038705830981   0.0029613689931836     276.254055573729    0.065035188484538     92.1548591505714   0.0219566142735272    -329.791395363417   -0.640771183475867    -110.014977527099   -0.210085891490835     3.31949418158946    0.464679155015889     1.30214141196261    0.108900941623831    0.144506061522201 0.000586409467909917    0.048292441628272     1.31988624110772  0.00595118586109799    0.441205396930229     3.87349296902724   0.0220642918588125     1.29584351995584     10.7491234397419   0.0458858252874753     3.59044939702554    0.588426112989418 -0.000412787467971685    0.196328060904113      4.6132747578795 -0.00106899896202608      1.5392855087919     8.38370539825626   0.0242919111618928     2.79881867773523     3.01542602340222   0.0225930337233689    0.993084344883728     2.39606066901658  0.00131035238309145    0.799523809262889     16.1243471814866   0.0037959622202116     5.37887829490428     18.1455127882683   0.0352559886873414     6.05315423532871    0.845910287809442    0.118414690990759    0.331826102504106 2.37966532636807e-06  0.00535613371644406 2.41500716127631e-05   0.0157187382106535 8.95374873028948e-05   0.0436202308083021 0.000186205907959798 -1.6751026005644e-06   0.0187207925231203 -4.33802641850884e-06   0.0340213010438296 9.85772260963052e-05    0.012236679564015 9.16831359503638e-05  5.3174450652722e-06   0.0654330327149472 1.54041163554821e-05   0.0736349768794044 0.000143069746341441  0.00343272660363559 0.000480529987497724    0.441092426042359     1.29448156799659     3.59224665595829     1.54170904398948     2.80174824024056     1.00772440744399      5.3885912248484     6.06404401249207    0.282694530364155     12.0555475051669   0.0543568086597619     4.02987201212465     35.3796236710879    0.201530336772466      11.835946635052      42.136626071144 -0.00976399887225419     14.0594916420083     76.5749013439062    0.221876916269478     25.5637876029892     147.276202586274   0.0346714750471022     49.1294785786298     165.737079917579    0.322020362986104     55.2881651216122 0.000245087387894047    0.159521866055397 0.000908672621495061 -4.40245304682993e-05    0.345265717604853  0.00100041255517503 0.000156328921127747    0.747285740199383  0.00145194560826712     11.8265350595245     25.5970997273044     55.4018155911094     2.39606066901658 -0.00168086322961619    0.799444373001675     18.7851727833174 -0.00435294476500623     6.26794322105445     34.1382993071639   0.0989162303055423      11.396739888651     12.2787611486118   0.0919984315843966      4.0438217938754     9.75671643877476  0.00533573160396779     3.25564673461658     65.6580550085533   0.0154570906629452     21.9026967725324     73.8882054200899    0.143561759031845     24.6483364123289     3.44453165043875    0.482182516128091     1.35118998904362 1.17914426508882e-06  -0.0131780078032935 3.05363920482543e-06  -0.0239483969538197 -6.93908365855666e-05 -0.00861368761935914 -6.45379237813878e-05 -3.74307511165462e-06  -0.0460598564214531 -1.08433211513179e-05  -0.0518333985440907 -0.000100710171931786 -0.00241637729350484 -0.000338256402187084     6.26766294847244     11.3902254804594     4.09680215305991      21.906775273919     24.6527605991407     1.14926616056831     147.276202586274  -0.0341271907611756     49.1408243230573     267.645080655194    0.775505604424731     89.3507125020771     514.760716997395    0.121183959398659     171.717665004493      579.28529248607     1.12552761428911     193.243545255043 7.90803353696884e-06  -0.0620193525050958 -0.000179701996886157 -2.80810343216849e-05   -0.134233361090599 -0.00026080992669073     89.3036326198238     193.286873853997     39.7291758500122   0.0217270042142503     13.2569356132013     267.358432498646   0.0629409983298489     89.1873917957906     300.871458630319     0.58458093003977     100.367587587556     14.0260716317794      1.9634386317637     5.50202160925273 1.18820162267701e-05    0.146212390902431 3.44210345848724e-05    0.164539920845264 0.000319694331905969  0.00767054717176955  0.00107376099589387     89.2128630772967     100.395577546593     4.68025637457545     1799.19492158584    0.423562943185571     600.188671398222     2024.72162691385     3.93395125320692     675.426064522084 9.97143581763181e-05    0.476655998267941 0.000926123096039089     675.421528056315   0.0890958715965121 0.000361553433160686   0.0297749252389219 0.000116164252931971     2.45942303513541   0.0110892008245141    0.822124424545546  0.00355313881176296    -12.3646731844202  -0.0704319744637082    -4.13649430901805  -0.0224359623272446    0.362796804886178  0.00147223915088183    0.121242966131201 -8.7357920389876e-05     8.59619098492565   0.0387590450263755     2.87349450086634 -0.000748809841719779    -26.7618343837941     -0.1524414602641    -8.95293987769392  -0.0249544813650618     1.47730213843907 -0.00103634389381082    0.492901075949459 0.000277560290438662     30.0454612295882 -0.00696220549473365     10.0251004986601  0.00244381621968889    -57.9227423890226   -0.167832008107059     -19.336945367589  -0.0366316363799296     6.01554803913264  0.00328976966677298     2.00728384937984    0.001125733414318     105.015086575173    0.024722445920124     35.0317047542394  0.00834657700877354    -125.366745707714   -0.243582455894969    -41.8210417421026  -0.0798619518447009 1.46719351511901e-06  0.00998040454640429 4.50002739438754e-05  -0.0501761749408824 -0.000285814838727459 5.97438590471948e-06   0.0348835732454575 0.000157285242786314   -0.108600240681828 -0.000618611528535419 -4.20551127710258e-06    0.121925286366233 -2.82528163638245e-05   -0.235052039938211 -0.000681066783881542 1.33499734164587e-05    0.426154033902585 0.000100324347676062   -0.508741611733457 -0.000988464129801331     0.82191391912828     -4.1321467883168     2.87275874099733    -8.94353019680291     10.0408845645654    -19.3571856177228      35.094963388372    -41.8962788511544    0.101286295114395      7.5091017290618   0.0324535800158893    0.354016500829816     26.2458599704449 -0.00683946262794066  -0.0635912372357594     91.5670392959312   0.0223212740710375    0.225809325039893     319.971803401236   0.0762357788883045     1.47730213843907  0.00599493164382689    0.493699202209103 -0.000355719898476069     35.0035368377774     0.15782614215493     11.7008185125956  -0.0030491403605495    -108.973713746279   -0.620738915563446    -36.4562119856131    -0.10161420439138     6.01554803913264 -0.00421997390788851     2.00708441676464  0.00113022056723859     122.344583874668  -0.0283499769763658     40.8220309696044  0.00995117619194891    -235.860377057081   -0.683408952713539    -78.7396976976711   -0.149163371975038     24.4952046501117   0.0133958835861866     8.17362414223403  0.00458396644591742     427.619565212375    0.100669360185522      142.64847884435   0.0339871131653873    -510.491159317837    -0.99186342915223    -170.294538334594   -0.325196447849392 -4.20551127710258e-06  -0.0245553707124136 -0.000110716795467989   0.0764462731680415 0.000435455258647796 2.96035866847262e-06  -0.0858260873928651 1.98878244095535e-05    0.165458679842766 0.000479418987282225 -9.39736144389103e-06     -0.2999798847852 -7.06206767102781e-05    0.358115230485241 0.000695803235878529     11.6789115242242    -36.3590218670525     40.8202056027147    -78.6946898676511     142.675041419033    -170.325104894463     1.23736071813308     91.7346961650857  -0.0239053331387548   -0.222264495549139     320.045696273915    0.078017458647956      0.7892501844902     1118.36747584039    0.266459777698369     24.4952046501117   -0.017183658715618     8.17281205617116  0.00460223805282192     498.184970072129   -0.115440602143735     166.226584232853   0.0405210125071587    -960.419261434197    -2.78282910343948    -320.626648918006   -0.607390598339584     99.7440377747141   0.0545477997645623     33.2828521681932   0.0186658298581524     1741.25926584391    0.409923844627085     580.862069355746     0.13839492046891    -2078.71092346329    -4.03885024672641    -693.436332012674    -1.32419415317458 -9.39736144389103e-06     0.27244629954311 -6.31319023264296e-05   -0.525231971068474 -0.00152186745293256 2.98309806334017e-05    0.952256033448059 0.000224178249590637    -1.13680085297518 -0.00220875753030058     166.235667627342    -320.475218478705     581.027959410236    -693.629713710829   -0.776860273980218     1118.62574667745    0.272687116089992     2.75859224860518     3908.92509190634    0.931331904342312