ITEM: TIMESTEP
0
ITEM: NUMBER OF ATOMS
12
ITEM: BOX BOUNDS xy xz yz pp pp pp
-8.8344296827430302e-01 5.1364755065543157e+00 0.0000000000000000e+00
0.0000000000000000e+00 5.1934133375444702e+00 -8.8344296827430302e-01
0.0000000000000000e+00 5.2461598045212767e+00 0.0000000000000000e+00
ITEM: ATOMS id type x y z fx fy fz
   1 1    0.776203818919444898938309052    2.350166829158174763847455324    3.682797980824850103687140290    1.002479746440375407701139920   -0.224797650377175362024217975    1.069091695625484783604974837
   2 1    3.046909974681736965607115053    4.944150105556711416454618302    4.138358285486625653959436022   -0.132689712471251969327923348    0.550828048693201011154485514    0.879038895189901414717326134
   3 1    3.476827233049027299216504616    2.843247525261339170299379475    1.563359341695714110898052240   -1.002476055977560953635929764    0.224798209533163512174880339   -1.069093006495137165856590400
   4 1    1.206121357063365318040837337    0.249264269623342554771383561    1.107798839749943642374319097    0.132687735921504845748586376   -0.550828369801481088074979198   -0.879036562088478246046463482
   5 2    1.992388292737735655535402657    3.756099553796239387537525545    0.094680110732730346501107022    1.540859694847492855629411679    0.170902916157166517852061816    0.345678372874102746159508115
   6 2    2.415659899710223434965428169    1.232091591716474976436757061    2.535088502166750856758881127   -0.237849313193081585149357693    0.191113821793200078236196759    0.331183348170679014987882738
   7 2    2.260642995344876116092791563    1.437314984791091987403888197    5.151477127466908001451884047   -1.540859889364641022169166718   -0.170903154077742258643013429   -0.345678445012325474827719063
   8 2    1.837371541104662719945395111    3.961322345404707068183824958    2.711068754608851882892395224    0.237849917975138325232364878   -0.191113739035989604886367488   -0.331183144374140869814482357
   9 2   -0.040098562735613685337199286    1.710173262166000629491691143    1.839590910655265032502825306    0.259497261477654728167863141   -0.141251591926008224220367993   -0.154520731768230445979384058
  10 2    4.637992808257605403809975542    4.332359369278528937741157279    0.806657226745606470430516310   -0.576574183748385871162156491    0.094487308494567587291435018    0.096101451482444658069859145
  11 2    4.293129979308621280154056876    3.483241329365950100793725142    3.406566397691777936529433646   -0.259497873935459977268180864    0.141251086164503353304056077    0.154520312068868376220720506
  12 2   -0.384961544867351956877854491    0.861055037948540880066161662    4.439500168075511510323849507    0.576572672028212718231543477   -0.094486885617409921422904517   -0.096102185673166529156219440
