(written by ASE)

12 atoms
2 atom types

0.0      5.1364755065543157  xlo xhi
0.0      5.1934133375444702  ylo yhi
0.0      5.2461598045212767  zlo zhi
                      0    -0.88344296827430302                       0  xy xz yz

Masses

     1      178.48999995408445 # Hf
     2      15.998999995884349 # O

Atoms # atomic

     1   1     0.77620381891944479      2.3501668291581748      3.6827979808248501
     2   1       3.046909974681737      4.9441501055567114      4.1383582854866257
     3   1      3.4768272330490273      2.8432475252613392      1.5633593416957139
     4   1      1.2061213570633651     0.24926426962334255      1.1077988397499436
     5   2      1.9923882927377357      3.7560995537962394    0.094680110732730333
     6   2      2.4156598997102234       1.232091591716475      2.5350885021667509
     7   2      2.2606429953448761      1.4373149847910918       5.151477127466908
     8   2      1.8373715411046625      3.9613223454047071      2.7110687546088519
     9   2   -0.040098562735613671      1.7101732621660004      1.8395909106552648
    10   2      4.6379928082576054      4.3323593692785289     0.80665722674560647
    11   2      4.2931299793086213      3.4832413293659501      3.4065663976917779
    12   2    -0.38496154486735179     0.86105503794854088      4.4395001680755115
