LAMMPS (27 Jun 2024)
OMP_NUM_THREADS environment is not set. Defaulting to 1 thread. (src/comm.cpp:98)
  using 1 OpenMP thread(s) per MPI task
Reading data file ...
  orthogonal box = (0 0 0) to (22.422218 22.19224 20.321894)
  5 by 2 by 2 MPI processor grid
  reading atoms ...
  448 atoms
  read_data CPU = 0.004 seconds
**************** Begin of POD Potentials ****************
species: Hf 
periodic boundary conditions: 1 1 1
number of environment clusters: 8
number of principal compoments: 2
inner cut-off radius: 1
outer cut-off radius: 5
cut-off function type: 1
gaussian_exponents: 
polynomial_degrees: 
bessel polynomial degree: 4
inverse polynomial degree: 10
one-body potential: 1
two-body radial basis functions: 8
three-body radial basis functions: 8
three-body angular degree: 6
four-body radial basis functions: 7
four-body angular degree: 5
five-body radial basis functions: 0
five-body angular degree: 0
six-body radial basis functions: 0
six-body angular degree: 0
seven-body radial basis functions: 0
seven-body angular degree: 0
number of local descriptors per element for one-body potential: 1
number of local descriptors per element for two-body potential: 8
number of local descriptors per element for three-body potential: 56
number of local descriptors per element for four-body potential: 112
number of local descriptors per element for five-body potential: 0
number of local descriptors per element for six-body potential: 0
number of local descriptors per element for seven-body potential: 0
number of local descriptors per element for all potentials: 177
number of global descriptors: 1409
**************** End of POD Potentials ****************

**************** Begin of Model Coefficients ****************
total number of coefficients for POD potential: 1409
total number of elements for PCA projection matrix: 352
total number of elements for PCA centroids: 16
**************** End of Model Coefficients ****************


CITE-CITE-CITE-CITE-CITE-CITE-CITE-CITE-CITE-CITE-CITE-CITE-CITE

Your simulation uses code contributions which should be cited:
- Type Label Framework: https://doi.org/10.1021/acs.jpcb.3c08419
The log file lists these citations in BibTeX format.

CITE-CITE-CITE-CITE-CITE-CITE-CITE-CITE-CITE-CITE-CITE-CITE-CITE

Neighbor list info ...
  update: every = 1 steps, delay = 0 steps, check = no
  max neighbors/atom: 2000, page size: 100000
  master list distance cutoff = 7
  ghost atom cutoff = 7
  binsize = 3.5, bins = 7 7 6
  1 neighbor lists, perpetual/occasional/extra = 1 0 0
  (1) pair pod, perpetual
      attributes: full, newton on
      pair build: full/bin/atomonly
      stencil: full/bin/3d
      bin: standard
Setting up Verlet run ...
  Unit style    : metal
  Current step  : 0
  Time step     : 0.001
Per MPI rank memory allocation (min/avg/max) = 2.586 | 2.586 | 2.586 Mbytes
   Step          Temp          TotEng         PotEng         KinEng         Press          Volume    
         0   300           -3263.9145     -3281.2483      17.333785      1830.9177      10112.159    
       100   89.959082     -3263.0473     -3268.2451      5.1977714      3981.1934      10112.159    
       200   165.77831     -3259.7801     -3269.3587      9.5785521      4654.4809      10112.159    
       300   202.64954     -3255.855      -3267.564       11.708946      5172.717       10112.159    
       400   288.77908     -3251.8429     -3268.5284      16.685449      4876.8582      10112.159    
       500   318.27987     -3248.0185     -3266.4085      18.389984      5983.8277      10112.159    
       600   272.34968     -3245.3965     -3261.1327      15.73617       7476.4148      10112.159    
       700   312.06975     -3243.4713     -3261.5024      18.031167      8033.263       10112.159    
       800   301.57198     -3245.1771     -3262.6017      17.424613      7401.055       10112.159    
       900   302.65567     -3246.9194     -3264.4066      17.487228      6645.1869      10112.159    
      1000   306.76392     -3248.2649     -3265.9895      17.7246        6209.1251      10112.159    
      1100   280.24702     -3248.3577     -3264.5502      16.192472      6522.3928      10112.159    
      1200   288.90033     -3246.6189     -3263.3114      16.692454      7162.8493      10112.159    
      1300   283.46053     -3245.5415     -3261.9196      16.378147      7405.1437      10112.159    
      1400   327.7419      -3244.6307     -3263.5674      18.936693      7227.8704      10112.159    
      1500   314.87498     -3245.8871     -3264.0803      18.193251      6421.1878      10112.159    
      1600   313.02935     -3246.8505     -3264.9371      18.086612      6460.035       10112.159    
      1700   268.78383     -3247.8603     -3263.3904      15.530137      6921.7054      10112.159    
      1800   262.08846     -3247.6914     -3262.8347      15.143284      6839.6404      10112.159    
      1900   332.68792     -3245.9296     -3265.1521      19.22247       6854.3763      10112.159    
      2000   298.78056     -3246.0873     -3263.3506      17.263327      6617.9809      10112.159    
      2100   332.70536     -3245.6173     -3264.8408      19.223477      6967.7143      10112.159    
      2200   281.14625     -3246.5031     -3262.7475      16.24443       7017.1858      10112.159    
      2300   267.98072     -3247.1505     -3262.6343      15.483734      7153.3522      10112.159    
      2400   332.1495      -3246.6184     -3265.8098      19.19136       6355.1946      10112.159    
      2500   277.78886     -3247.197      -3263.2474      16.050442      6733.7173      10112.159    
      2600   322.69051     -3245.8645     -3264.5093      18.644827      6839.0549      10112.159    
      2700   275.86102     -3246.1955     -3262.1346      15.939053      7066.8101      10112.159    
      2800   284.81084     -3246.4351     -3262.8913      16.456166      7252.2094      10112.159    
      2900   321.08966     -3246.9998     -3265.5522      18.552331      6388.6716      10112.159    
      3000   293.96564     -3247.8766     -3264.8617      16.985124      6355.3821      10112.159    
      3100   296.45427     -3247.1277     -3264.2566      17.128916      6851.1001      10112.159    
      3200   283.05258     -3246.5968     -3262.9514      16.354575      7079.0876      10112.159    
      3300   309.48343     -3245.423      -3263.3047      17.881731      6917.561       10112.159    
      3400   316.08263     -3245.0957     -3263.3588      18.263028      6948.5347      10112.159    
      3500   296.11744     -3247.2635     -3264.3729      17.109454      6611.1351      10112.159    
      3600   284.25147     -3248.2038     -3264.6276      16.423847      6296.4582      10112.159    
      3700   286.57672     -3247.5522     -3264.1104      16.558198      6839.1576      10112.159    
      3800   296.59294     -3246.4616     -3263.5985      17.136928      6832.4234      10112.159    
      3900   321.78029     -3245.8635     -3264.4557      18.592235      6683.8544      10112.159    
      4000   299.5305      -3246.0643     -3263.371       17.306658      6930.3557      10112.159    
      4100   287.34558     -3246.9727     -3263.5753      16.602622      6748.0265      10112.159    
      4200   294.9725      -3247.8433     -3264.8866      17.0433        6413.386       10112.159    
      4300   265.99728     -3248.0396     -3263.4087      15.369133      6980.5085      10112.159    
      4400   312.39897     -3246.3058     -3264.3559      18.050189      6453.2315      10112.159    
      4500   324.86726     -3245.4602     -3264.2308      18.770598      7134.8779      10112.159    
      4600   278.1733      -3246.2143     -3262.287       16.072654      6821.2118      10112.159    
      4700   329.09626     -3246.1415     -3265.1564      19.014947      6653.31        10112.159    
      4800   284.30482     -3247.2212     -3263.6481      16.426929      6709.198       10112.159    
      4900   283.83355     -3247.5647     -3263.9644      16.3997        6757.5416      10112.159    
      5000   314.19568     -3247.2002     -3265.3542      18.154002      6384.3933      10112.159    
      5100   296.18211     -3246.4774     -3263.5906      17.113191      6772.5216      10112.159    
      5200   304.65986     -3245.3948     -3262.9978      17.603029      7396.1378      10112.159    
      5300   294.69975     -3245.467      -3262.4945      17.027541      7201.4828      10112.159    
      5400   307.67376     -3246.1916     -3263.9688      17.77717       6841.589       10112.159    
      5500   323.21188     -3246.6056     -3265.2806      18.674951      6363.4437      10112.159    
      5600   281.22659     -3247.2061     -3263.4551      16.249071      6997.4721      10112.159    
      5700   279.82355     -3246.9756     -3263.1436      16.168004      7080.9086      10112.159    
      5800   328.44724     -3244.7376     -3263.7151      18.977446      7074.0169      10112.159    
      5900   303.65215     -3244.8194     -3262.3642      17.544804      7368.024       10112.159    
      6000   327.12724     -3245.8805     -3264.7817      18.901178      6384.3223      10112.159    
      6100   288.65678     -3247.1202     -3263.7986      16.678382      6890.1528      10112.159    
      6200   293.15359     -3247.1026     -3264.0408      16.938205      6557.3564      10112.159    
      6300   290.93506     -3246.43       -3263.24        16.81002       7042.5799      10112.159    
      6400   315.96148     -3245.2513     -3263.5074      18.256028      7002.5025      10112.159    
      6500   313.08724     -3245.7089     -3263.7989      18.089957      7123.2719      10112.159    
      6600   288.02726     -3246.3544     -3262.9964      16.642009      6942.7619      10112.159    
      6700   300.7855      -3246.4298     -3263.8089      17.379171      7000.6263      10112.159    
      6800   310.48328     -3246.447      -3264.3865      17.939502      6923.6948      10112.159    
      6900   296.60931     -3246.4944     -3263.6323      17.137874      6775.7998      10112.159    
      7000   303.39364     -3246.0669     -3263.5968      17.529867      6977.8918      10112.159    
      7100   312.34419     -3245.6318     -3263.6788      18.047024      6940.4442      10112.159    
      7200   296.88945     -3245.736      -3262.8901      17.15406       7085.4721      10112.159    
      7300   293.97058     -3246.606      -3263.5914      16.98541       6956.7104      10112.159    
      7400   298.23989     -3247.3768     -3264.6089      17.232088      6470.1815      10112.159    
      7500   290.19272     -3247.811      -3264.5781      16.767128      6561.5125      10112.159    
      7600   300.46549     -3246.8799     -3264.2406      17.360681      6910.5274      10112.159    
      7700   314.11938     -3245.3197     -3263.4693      18.149593      7112.9239      10112.159    
      7800   306.28664     -3245.4703     -3263.1674      17.697023      7008.3078      10112.159    
      7900   308.56194     -3246.0385     -3263.867       17.828488      6833.5773      10112.159    
      8000   293.77253     -3247.2387     -3264.2127      16.973967      6562.6052      10112.159    
      8100   286.97588     -3247.7801     -3264.3613      16.581261      6420.9944      10112.159    
      8200   283.24804     -3247.3527     -3263.7186      16.365869      6787.2107      10112.159    
      8300   303.11423     -3246.4496     -3263.9633      17.513724      6917.4437      10112.159    
      8400   314.76826     -3246.0502     -3264.2373      18.187085      6710.3759      10112.159    
      8500   286.67576     -3246.4142     -3262.9781      16.56392       7152.9748      10112.159    
      8600   320.53047     -3245.9374     -3264.4574      18.520021      6758.3101      10112.159    
      8700   280.99484     -3246.5858     -3262.8215      16.235681      7203.7428      10112.159    
      8800   309.60569     -3246.396      -3264.2848      17.888795      6577.7831      10112.159    
      8900   290.19315     -3246.7893     -3263.5564      16.767153      6875.9003      10112.159    
      9000   299.64762     -3246.9988     -3264.3122      17.313425      6745.0153      10112.159    
      9100   287.72168     -3247.0789     -3263.7033      16.624353      6544.5797      10112.159    
      9200   313.30222     -3246.1399     -3264.2423      18.102378      6910.0284      10112.159    
      9300   285.82663     -3245.6661     -3262.181       16.514858      7155.8381      10112.159    
      9400   333.53746     -3245.0939     -3264.3655      19.271556      6683.6119      10112.159    
      9500   290.66267     -3246.4171     -3263.2114      16.794281      6789.0225      10112.159    
      9600   290.80474     -3247.7051     -3264.5076      16.80249       6530.1498      10112.159    
      9700   270.93657     -3247.9675     -3263.6221      15.654521      6601.3055      10112.159    
      9800   301.74642     -3247.3258     -3264.7605      17.434692      6471.8639      10112.159    
      9900   302.69572     -3246.667      -3264.1566      17.489542      6679.9671      10112.159    
     10000   309.77201     -3245.8901     -3263.7885      17.898405      6652.3278      10112.159    
     10100   306.60191     -3245.7771     -3263.4923      17.715239      7007.3924      10112.159    
     10200   278.47693     -3246.97       -3263.0602      16.090198      6754.1842      10112.159    
     10300   312.11025     -3247.8241     -3265.8576      18.033507      6195.7464      10112.159    
     10400   281.2818      -3248.1321     -3264.3844      16.252261      6363.5468      10112.159    
     10500   296.44653     -3246.5857     -3263.7141      17.128468      6890.0488      10112.159    
     10600   308.43267     -3245.9427     -3263.7638      17.821019      6861.0115      10112.159    
     10700   306.38781     -3246.1197     -3263.8226      17.702869      7100.268       10112.159    
     10800   299.63473     -3246.5211     -3263.8338      17.312681      6793.1578      10112.159    
     10900   282.3009      -3247.3743     -3263.6854      16.311144      6843.5887      10112.159    
     11000   292.44429     -3247.5204     -3264.4176      16.897222      6678.6366      10112.159    
     11100   301.53338     -3246.3339     -3263.7563      17.422383      6724.4999      10112.159    
     11200   310.84935     -3244.8423     -3262.803       17.960653      7128.1915      10112.159    
     11300   309.33052     -3244.9811     -3262.854       17.872896      7082.0643      10112.159    
     11400   307.0181      -3245.8014     -3263.5407      17.739286      6878.7201      10112.159    
     11500   302.85016     -3246.47       -3263.9685      17.498466      6621.6475      10112.159    
     11600   299.69598     -3246.7682     -3264.0844      17.316219      6748.3047      10112.159    
     11700   277.46508     -3246.8335     -3262.8652      16.031734      7017.9563      10112.159    
     11800   316.79287     -3245.9557     -3264.2597      18.304066      6654.2685      10112.159    
     11900   310.25796     -3245.252      -3263.1785      17.926483      6929.693       10112.159    
     12000   324.96773     -3244.6482     -3263.4246      18.776403      7152.1684      10112.159    
     12100   286.96976     -3246.0286     -3262.6095      16.580908      7018.3647      10112.159    
     12200   308.39984     -3246.6906     -3264.5097      17.819122      6655.3986      10112.159    
     12300   278.82992     -3247.6083     -3263.7189      16.110593      6716.9392      10112.159    
     12400   304.57843     -3247.054      -3264.6523      17.598324      6414.352       10112.159    
     12500   303.58637     -3246.042      -3263.583       17.541004      6923.8793      10112.159    
     12600   311.88109     -3244.1765     -3262.1967      18.020266      7593.793       10112.159    
     12700   317.20362     -3244.4285     -3262.7563      18.327798      7231.425       10112.159    
     12800   316.2062      -3245.7142     -3263.9844      18.270168      6912.6125      10112.159    
     12900   307.75325     -3246.7179     -3264.4997      17.781763      6622.1061      10112.159    
     13000   284.89756     -3247.4369     -3263.8981      16.461177      6722.1743      10112.159    
     13100   294.03041     -3247.1321     -3264.121       16.988867      6805.6657      10112.159    
     13200   311.50599     -3245.3763     -3263.3749      17.998593      6918.0593      10112.159    
     13300   307.56392     -3245.1332     -3262.904       17.770823      7069.0131      10112.159    
     13400   310.13513     -3245.7627     -3263.6821      17.919386      6810.2582      10112.159    
     13500   300.69497     -3246.4518     -3263.8258      17.37394       6490.934       10112.159    
     13600   293.10167     -3246.9242     -3263.8594      16.935205      6872.2676      10112.159    
     13700   290.62996     -3247.0202     -3263.8126      16.792391      6647.2416      10112.159    
     13800   302.54733     -3246.6448     -3264.1258      17.480969      6715.5149      10112.159    
     13900   314.31693     -3246.3238     -3264.4848      18.161008      6706.8691      10112.159    
     14000   275.46573     -3246.7475     -3262.6637      15.916213      7005.8408      10112.159    
     14100   292.25192     -3246.3379     -3263.224       16.886107      7064.5087      10112.159    
     14200   313.02471     -3245.1141     -3263.2004      18.086344      7242.1589      10112.159    
     14300   298.13915     -3245.1631     -3262.3894      17.226267      7263.8419      10112.159    
     14400   298.17974     -3246.4697     -3263.6983      17.228612      6780.3216      10112.159    
     14500   292.62002     -3247.6076     -3264.515       16.907375      6731.3603      10112.159    
     14600   284.51572     -3247.4481     -3263.8872      16.439115      6743.8835      10112.159    
     14700   307.16318     -3246.6194     -3264.3671      17.747669      6637.3864      10112.159    
     14800   300.49898     -3246.25       -3263.6126      17.362616      6791.9879      10112.159    
     14900   303.95351     -3246.0102     -3263.5725      17.562216      7235.7633      10112.159    
     15000   302.08791     -3246.4746     -3263.929       17.454423      6573.2286      10112.159    
     15100   290.33258     -3247.2851     -3264.0603      16.775209      6892.3154      10112.159    
     15200   294.23694     -3247.6417     -3264.6425      17.0008        6607.2323      10112.159    
     15300   292.78725     -3247.3061     -3264.2231      16.917038      6618.1267      10112.159    
     15400   300.84441     -3245.9617     -3263.3443      17.382575      6946.129       10112.159    
     15500   309.78304     -3245.5001     -3263.3991      17.899042      7167.716       10112.159    
     15600   293.32888     -3245.9212     -3262.8695      16.948333      7102.4247      10112.159    
     15700   299.13705     -3247.0014     -3264.2853      17.283925      6766.5981      10112.159    
     15800   291.24204     -3248.5274     -3265.3551      16.827757      6186.6779      10112.159    
     15900   290.40895     -3247.901      -3264.6807      16.779621      6553.4373      10112.159    
     16000   292.10168     -3246.7093     -3263.5867      16.877426      7117.5475      10112.159    
     16100   309.52468     -3245.8087     -3263.6928      17.884115      6897.3091      10112.159    
     16200   307.45268     -3245.8768     -3263.6412      17.764396      6913.8637      10112.159    
     16300   305.90314     -3246.5469     -3264.2218      17.674865      6718.0843      10112.159    
     16400   273.44155     -3248.2716     -3264.0709      15.799257      6615.9154      10112.159    
     16500   295.12421     -3248.3936     -3265.4456      17.052066      6271.1004      10112.159    
     16600   286.01032     -3247.7704     -3264.2959      16.525472      6664.142       10112.159    
     16700   291.47496     -3246.9451     -3263.7863      16.841215      6896.3176      10112.159    
     16800   298.71578     -3246.4261     -3263.6857      17.259584      6842.8417      10112.159    
     16900   308.18027     -3245.8179     -3263.6243      17.806435      6922.7732      10112.159    
     17000   317.73229     -3244.9837     -3263.342       18.358345      7254.3711      10112.159    
     17100   301.84607     -3245.8773     -3263.3177      17.44045       7187.2644      10112.159    
     17200   295.05284     -3247.3064     -3264.3543      17.047942      6498.5636      10112.159    
     17300   288.32355     -3247.6622     -3264.3214      16.659129      6531.5017      10112.159    
     17400   302.18246     -3246.7791     -3264.239       17.459886      6536.9761      10112.159    
     17500   303.21973     -3245.5359     -3263.0557      17.519819      7098.1952      10112.159    
     17600   307.84296     -3245.5455     -3263.3325      17.786946      6832.5028      10112.159    
     17700   304.55928     -3246.1541     -3263.7513      17.597218      6919.3082      10112.159    
     17800   304.84707     -3246.4309     -3264.0447      17.613846      6748.4068      10112.159    
     17900   286.41039     -3246.9494     -3263.498       16.548587      6898.2543      10112.159    
     18000   294.73214     -3247.6879     -3264.7173      17.029412      6397.4489      10112.159    
     18100   291.53326     -3248.5679     -3265.4124      16.844583      6367.0544      10112.159    
     18200   283.09916     -3248.0498     -3264.407       16.357267      6384.9109      10112.159    
     18300   294.59307     -3246.7094     -3263.7307      17.021377      6884.1823      10112.159    
     18400   306.82965     -3245.9062     -3263.6346      17.728398      7049.9645      10112.159    
     18500   312.12558     -3245.7091     -3263.7435      18.034393      6898.2973      10112.159    
     18600   310.40479     -3246.5418     -3264.4768      17.934967      6824.1081      10112.159    
     18700   282.08306     -3248.2145     -3264.5131      16.298557      6261.3852      10112.159    
     18800   279.65614     -3248.0126     -3264.1709      16.158332      6770.6074      10112.159    
     18900   284.79493     -3246.9982     -3263.4535      16.455247      6970.8474      10112.159    
     19000   317.78633     -3246.3449     -3264.7063      18.361467      6748.6543      10112.159    
     19100   296.8132      -3246.269      -3263.4187      17.149655      6953.9511      10112.159    
     19200   316.3492      -3245.8652     -3264.1436      18.278431      7042.1066      10112.159    
     19300   276.74544     -3247.1554     -3263.1455      15.990154      7181.6497      10112.159    
     19400   287.86743     -3248.349      -3264.9818      16.632774      6401.599       10112.159    
     19500   281.00501     -3248.7877     -3265.024       16.236269      6390.2771      10112.159    
     19600   302.77346     -3246.6987     -3264.1927      17.494034      6733.6756      10112.159    
     19700   302.38649     -3245.8074     -3263.279       17.471675      7148.3905      10112.159    
     19800   301.52275     -3245.435      -3262.8568      17.421769      7152.4487      10112.159    
     19900   306.6426      -3246.0314     -3263.749       17.71759       6977.6289      10112.159    
     20000   288.96513     -3247.1016     -3263.7978      16.696199      6963.2839      10112.159    
     20100   302.83517     -3247.0381     -3264.5357      17.4976        6658.8704      10112.159    
     20200   305.80011     -3246.7318     -3264.4007      17.668912      6647.8392      10112.159    
     20300   313.41656     -3245.0834     -3263.1924      18.108984      7393.1501      10112.159    
     20400   299.23882     -3244.7632     -3262.053       17.289805      7520.5915      10112.159    
     20500   305.5717      -3245.8725     -3263.5282      17.655714      6841.7522      10112.159    
     20600   319.66432     -3246.7928     -3265.2628      18.469976      6443.8586      10112.159    
     20700   276.78007     -3247.239      -3263.2311      15.992155      6722.0415      10112.159    
     20800   306.828       -3246.4098     -3264.1381      17.728303      6731.4539      10112.159    
     20900   291.78586     -3246.1549     -3263.0141      16.859178      7047.9891      10112.159    
     21000   323.10962     -3244.9493     -3263.6183      18.669043      6991.824       10112.159    
     21100   327.61762     -3243.7068     -3262.6363      18.929512      7433.5079      10112.159    
     21200   303.59799     -3244.9398     -3262.4815      17.541675      7402.0583      10112.159    
     21300   296.77424     -3246.24       -3263.3874      17.147403      6993.0708      10112.159    
     21400   311.16058     -3246.7605     -3264.7392      17.978636      6760.7054      10112.159    
     21500   288.98727     -3247.2711     -3263.9686      16.697478      6661.0268      10112.159    
     21600   305.40629     -3246.5466     -3264.1927      17.646157      6705.006       10112.159    
     21700   314.15248     -3244.897      -3263.0485      18.151506      7280.3928      10112.159    
     21800   299.16662     -3244.6926     -3261.9782      17.285633      7261.1779      10112.159    
     21900   320.5976      -3245.2514     -3263.7753      18.5239        6736.8233      10112.159    
     22000   302.4434      -3246.3298     -3263.8047      17.474963      6819.9452      10112.159    
     22100   298.60492     -3246.6785     -3263.9316      17.253179      6758.4197      10112.159    
     22200   290.52408     -3246.8683     -3263.6546      16.786274      7029.577       10112.159    
     22300   307.29804     -3246.1882     -3263.9437      17.755461      6682.1707      10112.159    
     22400   314.74579     -3244.7293     -3262.9151      18.185787      7319.5185      10112.159    
     22500   313.9573      -3244.5045     -3262.6447      18.140228      7080.178       10112.159    
     22600   283.90855     -3246.6141     -3263.0181      16.404033      6994.3413      10112.159    
     22700   305.4469      -3247.145      -3264.7935      17.648503      6559.5174      10112.159    
     22800   290.12534     -3247.2498     -3264.0131      16.763234      6431.5834      10112.159    
     22900   303.60259     -3246.3135     -3263.8554      17.54194       6921.8052      10112.159    
     23000   295.90352     -3245.4404     -3262.5375      17.097094      7133.93        10112.159    
     23100   330.31954     -3244.121      -3263.2066      19.085627      7264.2991      10112.159    
     23200   309.80345     -3245.1412     -3263.0415      17.900222      7047.48        10112.159    
     23300   301.81851     -3246.2908     -3263.7296      17.438858      7106.9506      10112.159    
     23400   288.73327     -3246.8855     -3263.5683      16.682802      6778.3498      10112.159    
     23500   308.31626     -3246.762      -3264.5763      17.814293      6546.7285      10112.159    
     23600   291.39061     -3246.4041     -3263.2405      16.836341      6845.3232      10112.159    
     23700   309.1043      -3245.4957     -3263.3555      17.859825      6890.893       10112.159    
     23800   310.2972      -3245.3784     -3263.3072      17.92875       6759.3081      10112.159    
     23900   307.71922     -3246.3223     -3264.1021      17.779796      6795.8905      10112.159    
     24000   294.99535     -3247.4728     -3264.5174      17.04462       6601.93        10112.159    
     24100   281.13101     -3247.7392     -3263.9827      16.243549      6607.1339      10112.159    
     24200   298.00166     -3246.5099     -3263.7283      17.218323      6894.3317      10112.159    
     24300   319.87252     -3245.3258     -3263.8078      18.482005      6689.9663      10112.159    
     24400   303.46804     -3245.6041     -3263.1382      17.534166      7137.8872      10112.159    
     24500   292.53957     -3246.3379     -3263.2406      16.902727      6950.7026      10112.159    
     24600   297.52601     -3247.1387     -3264.3296      17.19084       6524.7189      10112.159    
     24700   288.45797     -3247.6704     -3264.3373      16.666895      6441.8138      10112.159    
     24800   301.89295     -3246.8896     -3264.3327      17.443159      6576.7601      10112.159    
     24900   296.47913     -3245.6963     -3262.8266      17.130352      7048.6273      10112.159    
     25000   302.21324     -3245.1503     -3262.612       17.461665      6932.7104      10112.159    
     25100   308.50644     -3245.5353     -3263.3606      17.825281      7001.2278      10112.159    
     25200   296.19337     -3247.2362     -3264.3501      17.113841      6503.1437      10112.159    
     25300   281.41879     -3247.7867     -3264.0469      16.260176      6604.8071      10112.159    
     25400   310.06868     -3246.8824     -3264.798       17.915547      6567.2001      10112.159    
     25500   305.89885     -3246.208      -3263.8826      17.674617      6705.9188      10112.159    
     25600   296.4401      -3245.9858     -3263.1139      17.128097      7089.4832      10112.159    
     25700   290.94099     -3246.4907     -3263.301       16.810362      6804.5587      10112.159    
     25800   292.70727     -3248.2553     -3265.1678      16.912417      6421.1555      10112.159    
     25900   281.74644     -3249.1672     -3265.4463      16.279108      6030.0115      10112.159    
     26000   277.17808     -3248.3281     -3264.3432      16.015151      6298.7704      10112.159    
     26100   296.23189     -3247.2957     -3264.4118      17.116066      6638.0754      10112.159    
     26200   298.413       -3246.401      -3263.6431      17.24209       6796.6553      10112.159    
     26300   303.80409     -3245.7136     -3263.2672      17.553583      6979.026       10112.159    
     26400   319.64083     -3245.3921     -3263.8607      18.468618      6958.0268      10112.159    
     26500   295.3466      -3246.4091     -3263.474       17.064915      6813.315       10112.159    
     26600   290.90441     -3247.7594     -3264.5677      16.808249      6548.9598      10112.159    
     26700   287.63973     -3247.773      -3264.3926      16.619618      6586.422       10112.159    
     26800   309.55852     -3246.6086     -3264.4947      17.88607       6782.4111      10112.159    
     26900   307.24376     -3245.9005     -3263.6529      17.752324      6840.1579      10112.159    
     27000   306.57649     -3245.9365     -3263.6503      17.71377       7061.4365      10112.159    
     27100   281.29549     -3246.7713     -3263.0244      16.253052      6962.166       10112.159    
     27200   303.08905     -3246.8069     -3264.3191      17.512269      6572.5943      10112.159    
     27300   310.9423      -3246.5763     -3264.5424      17.966024      6597.7374      10112.159    
     27400   302.0515      -3245.9613     -3263.4136      17.452319      6989.9377      10112.159    
     27500   300.28833     -3245.2795     -3262.6299      17.350445      7263.2162      10112.159    
     27600   316.87057     -3245.5664     -3263.8749      18.308555      7113.4249      10112.159    
     27700   293.01382     -3247.0731     -3264.0032      16.930129      6642.2225      10112.159    
     27800   294.5871      -3247.2215     -3264.2425      17.021032      6566.5527      10112.159    
     27900   306.85086     -3246.7902     -3264.5199      17.729623      6754.9559      10112.159    
     28000   286.38028     -3246.4949     -3263.0418      16.546848      7123.2785      10112.159    
     28100   318.32193     -3244.5202     -3262.9126      18.392413      7338.3077      10112.159    
     28200   315.39527     -3244.9639     -3263.1873      18.223313      7245.7751      10112.159    
     28300   297.9786      -3246.142      -3263.359       17.216991      7125.1661      10112.159    
     28400   297.36784     -3247.0327     -3264.2144      17.181701      6893.0051      10112.159    
     28500   287.48528     -3247.0746     -3263.6853      16.610694      6920.4034      10112.159    
     28600   297.0303      -3246.5907     -3263.7529      17.162198      6651.012       10112.159    
     28700   296.28888     -3246.4961     -3263.6154      17.119359      7075.4347      10112.159    
     28800   297.68078     -3246.4941     -3263.6939      17.199782      6753.7218      10112.159    
     28900   313.32509     -3246.3362     -3264.4399      18.103699      6773.8936      10112.159    
     29000   302.7219      -3246.1003     -3263.5913      17.491055      6988.1275      10112.159    
     29100   289.95589     -3245.9359     -3262.6893      16.753444      7292.4188      10112.159    
     29200   316.96116     -3245.9852     -3264.299       18.313789      6663.0381      10112.159    
     29300   292.54885     -3247.0102     -3263.9135      16.903263      6735.5288      10112.159    
     29400   288.21089     -3247.2548     -3263.9074      16.652619      6897.3568      10112.159    
     29500   301.58837     -3246.4169     -3263.8424      17.42556       7004.9896      10112.159    
     29600   312.46782     -3244.9243     -3262.9785      18.054167      7225.6362      10112.159    
     29700   319.03191     -3244.7831     -3263.2166      18.433436      7088.6338      10112.159    
     29800   298.04658     -3246.0751     -3263.296       17.220918      6986.612       10112.159    
     29900   289.12821     -3246.5861     -3263.2917      16.705621      7026.1093      10112.159    
     30000   304.16014     -3246.6614     -3264.2355      17.574155      6695.3828      10112.159    
     30100   293.29792     -3246.8242     -3263.7708      16.946544      6648.9309      10112.159    
     30200   304.23125     -3246.0691     -3263.6473      17.578264      6909.264       10112.159    
     30300   315.13756     -3244.8105     -3263.0189      18.208423      7280.8981      10112.159    
     30400   330.58357     -3244.255      -3263.3558      19.100882      7207.175       10112.159    
     30500   293.23409     -3246.0607     -3263.0036      16.942856      7158.5476      10112.159    
     30600   309.41073     -3246.6185     -3264.496       17.877531      6837.9858      10112.159    
     30700   281.36915     -3247.2977     -3263.555       16.257308      6771.0223      10112.159    
     30800   318.74076     -3246.6888     -3265.1054      18.416613      6387.1273      10112.159    
     30900   304.43744     -3245.7126     -3263.3028      17.590178      7261.4635      10112.159    
     31000   311.24959     -3244.6336     -3262.6174      17.983779      7178.0514      10112.159    
     31100   302.1302      -3245.484      -3262.9409      17.456867      7249.1547      10112.159    
     31200   313.80519     -3246.0255     -3264.1569      18.13144       6720.0314      10112.159    
     31300   293.69832     -3246.6087     -3263.5783      16.969679      6801.1996      10112.159    
     31400   300.05579     -3246.6069     -3263.9439      17.337009      6751.4589      10112.159    
     31500   287.19607     -3246.7548     -3263.3488      16.593984      6798.9516      10112.159    
     31600   295.80015     -3246.9489     -3264.04        17.091121      6656.5789      10112.159    
     31700   298.5785      -3246.8699     -3264.1215      17.251652      6626.9292      10112.159    
     31800   296.18424     -3246.4718     -3263.5852      17.113313      6789.9872      10112.159    
     31900   317.51488     -3245.3986     -3263.7443      18.345783      6819.0677      10112.159    
     32000   303.95819     -3245.2915     -3262.854       17.562487      7148.4898      10112.159    
     32100   287.80442     -3246.7976     -3263.4268      16.629134      7037.2458      10112.159    
     32200   296.85771     -3247.4558     -3264.608       17.152226      6578.1004      10112.159    
     32300   303.10959     -3247.1314     -3264.6449      17.513455      6648.1277      10112.159    
     32400   289.47512     -3247.1333     -3263.859       16.725665      6693.2265      10112.159    
     32500   301.44504     -3246.1141     -3263.5314      17.417279      7093.386       10112.159    
     32600   307.35487     -3245.5937     -3263.3524      17.758745      7102.9386      10112.159    
     32700   310.19027     -3245.7797     -3263.7022      17.922572      7062.9035      10112.159    
     32800   293.85521     -3246.5899     -3263.5686      16.978744      6926.5016      10112.159    
     32900   296.36589     -3247.2647     -3264.3885      17.123809      6500.289       10112.159    
     33000   282.03365     -3247.5974     -3263.8931      16.295703      6797.0107      10112.159    
     33100   307.02706     -3246.6655     -3264.4053      17.739804      6636.8894      10112.159    
     33200   309.54989     -3245.404      -3263.2896      17.885571      6746.117       10112.159    
     33300   306.51404     -3245.2311     -3262.9413      17.710162      6993.455       10112.159    
     33400   303.49068     -3246.3193     -3263.8548      17.535474      6906.9735      10112.159    
     33500   286.41939     -3247.3986     -3263.9477      16.549108      6636.3764      10112.159    
     33600   305.11649     -3247.0735     -3264.703       17.629413      6640.3108      10112.159    
     33700   298.70696     -3246.8673     -3264.1264      17.259075      6466.0038      10112.159    
     33800   305.7912      -3246.0756     -3263.744       17.668397      6864.0895      10112.159    
     33900   306.37191     -3245.4573     -3263.1593      17.70195       7383.2114      10112.159    
     34000   298.00911     -3246.4075     -3263.6263      17.218753      6958.2377      10112.159    
     34100   271.91825     -3248.0945     -3263.8057      15.711242      6753.6347      10112.159    
     34200   302.66022     -3247.7553     -3265.2428      17.487491      6206.1586      10112.159    
     34300   307.99021     -3246.5548     -3264.3503      17.795454      6854.7646      10112.159    
     34400   301.91588     -3245.7852     -3263.2297      17.444484      7273.4877      10112.159    
     34500   279.22127     -3246.2335     -3262.3667      16.133205      7429.9099      10112.159    
     34600   311.74738     -3246.2375     -3264.2501      18.012541      6843.9849      10112.159    
     34700   303.01959     -3247.3803     -3264.8886      17.508255      6537.3385      10112.159    
     34800   281.83753     -3248.6073     -3264.8917      16.284371      6400.9955      10112.159    
     34900   292.17223     -3247.6473     -3264.5288      16.881503      6580.2011      10112.159    
     35000   294.59663     -3246.7985     -3263.8201      17.021582      6767.8388      10112.159    
     35100   296.14298     -3246.2877     -3263.3986      17.11093       6977.4178      10112.159    
     35200   298.42953     -3246.1488     -3263.3918      17.243045      6935.3741      10112.159    
     35300   315.1443      -3246.3373     -3264.5461      18.208812      6669.529       10112.159    
     35400   302.02199     -3246.9378     -3264.3885      17.450614      6688.1104      10112.159    
     35500   289.29575     -3247.5033     -3264.2186      16.715301      6781.8789      10112.159    
     35600   295.9354      -3247.1012     -3264.2001      17.098936      6754.6977      10112.159    
     35700   300.8791      -3245.9335     -3263.3181      17.384579      7289.6843      10112.159    
     35800   321.71575     -3245.0859     -3263.6744      18.588506      6889.0361      10112.159    
     35900   312.09587     -3245.8305     -3263.8632      18.032676      6950.8607      10112.159    
     36000   278.21159     -3247.6322     -3263.7071      16.074867      6819.2495      10112.159    
     36100   291.453       -3247.2122     -3264.0522      16.839946      6846.1664      10112.159    
     36200   303.09786     -3246.2364     -3263.7491      17.512777      6802.9244      10112.159    
     36300   324.38568     -3245.3027     -3264.0455      18.742773      7059.1692      10112.159    
     36400   298.00644     -3245.7934     -3263.012       17.218599      7282.3963      10112.159    
     36500   295.69894     -3247.4494     -3264.5347      17.085273      6702.1915      10112.159    
     36600   283.75424     -3248.3815     -3264.7766      16.395117      6658.3719      10112.159    
     36700   287.45007     -3247.4984     -3264.107       16.60866       6568.238       10112.159    
     36800   309.57325     -3246.2492     -3264.1361      17.886921      6675.9429      10112.159    
     36900   301.70418     -3245.9846     -3263.4168      17.432252      6909.0553      10112.159    
     37000   301.48322     -3246.1386     -3263.5581      17.419485      7112.8799      10112.159    
     37100   302.60558     -3247.2132     -3264.6975      17.484334      6792.6895      10112.159    
     37200   281.2465      -3248.5272     -3264.7774      16.250222      6404.2009      10112.159    
     37300   278.15272     -3248.0006     -3264.0721      16.071465      6612.8656      10112.159    
     37400   312.71243     -3246.6876     -3264.7559      18.068301      6674.6035      10112.159    
     37500   291.27573     -3246.5807     -3263.4104      16.829703      7023.1615      10112.159    
     37600   299.96497     -3246.1757     -3263.5074      17.331761      7050.6655      10112.159    
     37700   300.69355     -3245.8617     -3263.2355      17.373858      7092.8332      10112.159    
     37800   324.17542     -3245.3958     -3264.1265      18.730624      7010.4782      10112.159    
     37900   280.72479     -3246.6085     -3262.8286      16.220078      7163.6352      10112.159    
     38000   294.17884     -3247.1395     -3264.137       16.997443      6888.2035      10112.159    
     38100   292.32481     -3247.2214     -3264.1117      16.890318      6627.9198      10112.159    
     38200   312.43798     -3245.8309     -3263.8833      18.052443      7055.2597      10112.159    
     38300   303.69479     -3245.1642     -3262.7115      17.547268      7279.0937      10112.159    
     38400   312.289       -3245.3735     -3263.4174      18.043835      7044.9933      10112.159    
     38500   296.00334     -3247.216      -3264.3188      17.102861      6764.1016      10112.159    
     38600   284.2699      -3247.464      -3263.889       16.424911      6680.3178      10112.159    
     38700   293.69109     -3246.8337     -3263.8029      16.969261      6951.4336      10112.159    
     38800   302.24343     -3246.0873     -3263.5507      17.463409      6896.2297      10112.159    
     38900   326.05733     -3244.4868     -3263.3262      18.83936       7197.326       10112.159    
     39000   322.68315     -3243.9993     -3262.6437      18.644402      7533.466       10112.159    
     39100   298.17916     -3245.9697     -3263.1982      17.228578      7080.5395      10112.159    
     39200   295.08674     -3246.568      -3263.6179      17.049901      6934.092       10112.159    
     39300   303.21712     -3246.7923     -3264.312       17.519668      6581.25        10112.159    
     39400   301.247       -3246.6054     -3264.0112      17.405836      7070.6233      10112.159    
     39500   298.88908     -3246.2914     -3263.561       17.269597      6783.4773      10112.159    
     39600   308.77719     -3246.2617     -3264.1026      17.840925      6917.873       10112.159    
     39700   294.81268     -3246.2601     -3263.2941      17.034066      6900.1965      10112.159    
     39800   280.50589     -3246.4421     -3262.6496      16.207429      7290.5132      10112.159    
     39900   307.88836     -3246.4464     -3264.236       17.789569      6526.7515      10112.159    
     40000   305.00858     -3246.85       -3264.4731      17.623178      6629.1113      10112.159    
     40100   288.42338     -3247.0014     -3263.6663      16.664896      6718.2672      10112.159    
     40200   306.69816     -3246.6749     -3264.3957      17.720801      6759.248       10112.159    
     40300   292.89893     -3246.2475     -3263.171       16.923491      7073.4568      10112.159    
     40400   317.11317     -3245.0894     -3263.412       18.322572      7005.0002      10112.159    
     40500   310.84905     -3244.9685     -3262.9292      17.960636      7213.47        10112.159    
     40600   303.53289     -3246.4676     -3264.0055      17.537913      6875.5602      10112.159    
     40700   292.89238     -3247.5779     -3264.501       16.923112      6415.0208      10112.159    
     40800   289.85352     -3247.3244     -3264.0719      16.747529      6670.6477      10112.159    
     40900   307.02054     -3246.3039     -3264.0433      17.739427      6898.5093      10112.159    
     41000   297.87495     -3245.832      -3263.043       17.211002      7254.0555      10112.159    
     41100   306.31729     -3245.6149     -3263.3137      17.698794      6862.8659      10112.159    
     41200   288.41104     -3246.7697     -3263.4338      16.664184      6980.8542      10112.159    
     41300   286.99617     -3247.5786     -3264.1611      16.582434      6548.2944      10112.159    
     41400   289.02649     -3247.6527     -3264.3525      16.699744      6446.7539      10112.159    
     41500   307.22127     -3246.6371     -3264.3882      17.751025      6581.3133      10112.159    
     41600   306.05191     -3245.656      -3263.3395      17.68346       7094.3034      10112.159    
     41700   298.67585     -3245.6006     -3262.8579      17.257277      7124.4604      10112.159    
     41800   303.01823     -3246.158      -3263.6662      17.508177      6846.8913      10112.159    
     41900   287.84816     -3247.767      -3264.3986      16.631661      6500.8216      10112.159    
     42000   290.48582     -3248.0099     -3264.794       16.784063      6344.746       10112.159    
     42100   292.68763     -3247.2108     -3264.1221      16.911282      6885.2722      10112.159    
     42200   294.64374     -3246.6199     -3263.6442      17.024304      6944.4605      10112.159    
     42300   306.27367     -3246.0904     -3263.7867      17.696274      7168.9386      10112.159    
     42400   294.20055     -3245.7481     -3262.7468      16.998697      7145.61        10112.159    
     42500   326.1037      -3245.0018     -3263.8438      18.842039      6797.3591      10112.159    
     42600   308.91973     -3245.5228     -3263.3719      17.849161      7060.8317      10112.159    
     42700   292.80773     -3247.0314     -3263.9497      16.918221      6677.0183      10112.159    
     42800   281.35232     -3247.554      -3263.8104      16.256336      6617.6705      10112.159    
     42900   309.36538     -3246.661      -3264.5359      17.87491       6676.0896      10112.159    
     43000   289.95878     -3246.0876     -3262.8412      16.753611      6919.8666      10112.159    
     43100   317.39192     -3244.9862     -3263.3249      18.338678      7073.5845      10112.159    
     43200   335.89904     -3243.2859     -3262.6939      19.408006      7385.3653      10112.159    
     43300   308.0616      -3243.8121     -3261.6116      17.799579      7479.4115      10112.159    
     43400   318.45505     -3245.5752     -3263.9753      18.400105      7075.0627      10112.159    
     43500   280.72941     -3246.7856     -3263.0059      16.220344      6781.4939      10112.159    
     43600   315.37197     -3246.4605     -3264.6825      18.221967      6445.8818      10112.159    
     43700   309.20831     -3246.4215     -3264.2873      17.865835      6583.1548      10112.159    
     43800   291.43916     -3246.5049     -3263.3441      16.839146      6964.3125      10112.159    
     43900   296.46474     -3246.0132     -3263.1428      17.129521      6921.8252      10112.159    
     44000   300.1303      -3245.5129     -3262.8542      17.341314      7055.6266      10112.159    
     44100   310.90629     -3245.4112     -3263.3752      17.963943      6933.2557      10112.159    
     44200   305.94841     -3246.6097     -3264.2872      17.67748       6606.8466      10112.159    
     44300   279.41277     -3247.7871     -3263.9314      16.14427       6755.1563      10112.159    
     44400   291.97065     -3247.3542     -3264.2241      16.869856      6552.8098      10112.159    
     44500   312.43675     -3246.6648     -3264.7172      18.052372      6648.3871      10112.159    
     44600   286.97533     -3246.5988     -3263.1801      16.581229      6795.3828      10112.159    
     44700   312.31159     -3246.0435     -3264.0887      18.04514       6950.4414      10112.159    
     44800   297.99021     -3246.4255     -3263.6431      17.217661      6942.682       10112.159    
     44900   300.00957     -3246.6514     -3263.9858      17.334339      6717.2814      10112.159    
     45000   308.33014     -3246.3236     -3264.1387      17.815095      6739.2903      10112.159    
     45100   300.44901     -3245.9836     -3263.3433      17.359729      6910.2886      10112.159    
     45200   303.55795     -3245.8577     -3263.3971      17.539361      7072.951       10112.159    
     45300   303.27931     -3246.4442     -3263.9674      17.523261      6982.8205      10112.159    
     45400   286.40728     -3247.4125     -3263.9609      16.548408      6828.3217      10112.159    
     45500   293.92303     -3247.5786     -3264.5613      16.982663      6497.3942      10112.159    
     45600   299.49379     -3246.5021     -3263.8066      17.304537      6830.4953      10112.159    
     45700   309.50871     -3245.1401     -3263.0233      17.883192      7200.5457      10112.159    
     45800   308.5542      -3245.3684     -3263.1964      17.828041      6980.5649      10112.159    
     45900   296.28869     -3246.5791     -3263.6984      17.119348      6786.2804      10112.159    
     46000   295.1234      -3247.2745     -3264.3265      17.052019      6592.1081      10112.159    
     46100   294.80161     -3247.0184     -3264.0519      17.033426      6690.0671      10112.159    
     46200   286.05392     -3246.7692     -3263.2972      16.527991      6794.8458      10112.159    
     46300   300.14534     -3246.2722     -3263.6144      17.342183      7021.9199      10112.159    
     46400   297.48607     -3245.7876     -3262.9761      17.188533      7035.7212      10112.159    
     46500   324.55892     -3244.5115     -3263.2643      18.752782      6998.5217      10112.159    
     46600   322.51007     -3244.5984     -3263.2328      18.634401      7247.4047      10112.159    
     46700   300.40869     -3246.5087     -3263.8661      17.357399      6610.8092      10112.159    
     46800   298.15797     -3246.9807     -3264.208       17.227355      6720.0574      10112.159    
     46900   302.06704     -3246.7239     -3264.1771      17.453218      6633.0834      10112.159    
     47000   309.34287     -3245.8597     -3263.7333      17.87361       6775.5431      10112.159    
     47100   303.53446     -3244.9473     -3262.4853      17.538004      7102.3967      10112.159    
     47200   315.91128     -3245.0873     -3263.3404      18.253128      7201.5193      10112.159    
     47300   299.57192     -3246.9335     -3264.2426      17.309051      6691.2499      10112.159    
     47400   294.4182      -3247.3795     -3264.3907      17.011273      6716.0489      10112.159    
     47500   283.59825     -3247.0528     -3263.4389      16.386104      6697.8101      10112.159    
     47600   313.02336     -3245.4942     -3263.5804      18.086266      7134.7013      10112.159    
     47700   301.19024     -3245.6517     -3263.0542      17.402556      7280.1717      10112.159    
     47800   323.39476     -3246.0159     -3264.7014      18.685518      6686.5133      10112.159    
     47900   282.40819     -3246.9306     -3263.2479      16.317344      6785.6927      10112.159    
     48000   298.69012     -3246.6042     -3263.8623      17.258102      6796.7509      10112.159    
     48100   298.06906     -3246.671      -3263.8932      17.222217      6839.3637      10112.159    
     48200   290.55676     -3246.5466     -3263.3348      16.788162      7020.6307      10112.159    
     48300   308.37913     -3245.5259     -3263.3438      17.817925      7010.7311      10112.159    
     48400   322.34912     -3243.9729     -3262.598       18.625102      7413.4197      10112.159    
     48500   325.09692     -3243.991      -3262.7749      18.783867      7334.9947      10112.159    
     48600   305.26895     -3245.5258     -3263.164       17.638222      7384.275       10112.159    
     48700   293.81824     -3246.6573     -3263.6339      16.976608      7045.8915      10112.159    
     48800   299.06877     -3246.8441     -3264.1241      17.27998       6627.0432      10112.159    
     48900   299.98632     -3246.4962     -3263.8292      17.332995      6698.011       10112.159    
     49000   307.83752     -3245.549      -3263.3356      17.786632      7026.538       10112.159    
     49100   321.56365     -3244.4314     -3263.0111      18.579717      7272.5104      10112.159    
     49200   302.73665     -3245.1947     -3262.6866      17.491907      7227.5364      10112.159    
     49300   303.16958     -3247.1374     -3264.6544      17.516921      6665.9576      10112.159    
     49400   303.04777     -3247.2498     -3264.7597      17.509884      6538.218       10112.159    
     49500   307.13863     -3246.5822     -3264.3285      17.74625       6516.6774      10112.159    
     49600   296.48241     -3245.8466     -3262.9771      17.130542      7272.6875      10112.159    
     49700   308.46657     -3245.323      -3263.146       17.822978      7263.9065      10112.159    
     49800   295.72647     -3246.7687     -3263.8555      17.086864      7147.6051      10112.159    
     49900   290.13242     -3247.8073     -3264.571       16.763644      6441.9807      10112.159    
     50000   303.56679     -3247.2542     -3264.7941      17.539872      6793.4655      10112.159    
     50100   291.87028     -3246.4763     -3263.3403      16.864056      7114.2445      10112.159    
     50200   296.51366     -3245.7425     -3262.8749      17.132347      7147.8014      10112.159    
     50300   312.79267     -3245.8874     -3263.9603      18.072937      6870.1752      10112.159    
     50400   319.59601     -3246.2994     -3264.7654      18.466029      6509.2765      10112.159    
     50500   297.17386     -3246.6853     -3263.8558      17.170493      6766.262       10112.159    
     50600   282.19637     -3246.6071     -3262.9122      16.305104      7316.101       10112.159    
     50700   308.40204     -3246.1412     -3263.9604      17.819249      6861.5099      10112.159    
     50800   303.87824     -3245.8367     -3263.3946      17.557868      7070.7507      10112.159    
     50900   319.99683     -3245.4474     -3263.9366      18.489188      7007.3579      10112.159    
     51000   303.85449     -3246.3209     -3263.8774      17.556495      6969.2272      10112.159    
     51100   273.17517     -3247.6079     -3263.3918      15.783866      6982.5001      10112.159    
     51200   305.48632     -3247.1461     -3264.7969      17.650781      6720.1577      10112.159    
     51300   299.99553     -3246.6689     -3264.0024      17.333527      6834.5012      10112.159    
     51400   303.84043     -3246.1453     -3263.701       17.555683      6851.1836      10112.159    
     51500   322.33848     -3244.2755     -3262.9         18.624487      7439.0025      10112.159    
     51600   306.88768     -3244.4584     -3262.1902      17.73175       7589.6807      10112.159    
     51700   307.81666     -3245.7016     -3263.487       17.785426      6825.391       10112.159    
     51800   298.26058     -3246.8794     -3264.1127      17.233283      7064.8611      10112.159    
     51900   307.38416     -3247.1712     -3264.9316      17.760437      6518.9313      10112.159    
     52000   279.89317     -3247.4453     -3263.6174      16.172027      6724.3906      10112.159    
     52100   317.54586     -3246.0308     -3264.3783      18.347573      6644.5891      10112.159    
     52200   307.17719     -3245.2145     -3262.9629      17.748478      7149.7095      10112.159    
     52300   299.27933     -3245.7453     -3263.0374      17.292146      7193.0233      10112.159    
     52400   290.87313     -3246.9262     -3263.7327      16.806441      6788.1732      10112.159    
     52500   306.71556     -3247.0306     -3264.7524      17.721806      6672.4197      10112.159    
     52600   297.35996     -3247.0227     -3264.2039      17.181246      6609.5566      10112.159    
     52700   299.04529     -3246.7165     -3263.9951      17.278623      6919.3512      10112.159    
     52800   297.52584     -3246.2056     -3263.3965      17.19083       6978.2629      10112.159    
     52900   310.70299     -3245.3981     -3263.3503      17.952197      7227.0735      10112.159    
     53000   310.44609     -3244.6488     -3262.5861      17.937353      7201.5787      10112.159    
     53100   307.82666     -3244.7537     -3262.5397      17.786004      7401.1726      10112.159    
     53200   308.59334     -3246.183      -3264.0133      17.830303      6856.9825      10112.159    
     53300   284.38768     -3247.3894     -3263.8211      16.431716      6677.3876      10112.159    
     53400   297.05784     -3247.1571     -3264.3209      17.16379       6860.0931      10112.159    
     53500   311.70141     -3246.3296     -3264.3395      18.009885      6854.6226      10112.159    
     53600   307.51967     -3245.5268     -3263.295       17.768267      7080.6749      10112.159    
     53700   330.36109     -3243.8071     -3262.8951      19.088028      7574.1336      10112.159    
     53800   301.66376     -3243.8212     -3261.2511      17.429916      7635.2033      10112.159    
     53900   317.33294     -3245.7617     -3264.097       18.33527       6989.7942      10112.159    
     54000   283.26404     -3246.9926     -3263.3594      16.366794      6810.2622      10112.159    
     54100   296.34051     -3246.9048     -3264.0271      17.122343      6940.2846      10112.159    
     54200   312.11027     -3246.1508     -3264.1843      18.033508      6986.4583      10112.159    
     54300   298.73191     -3245.7896     -3263.0501      17.260516      7157.3817      10112.159    
     54400   294.88757     -3245.7008     -3262.7391      17.038393      7494.6045      10112.159    
     54500   293.95729     -3246.0635     -3263.0481      16.984642      7312.1803      10112.159    
     54600   302.20931     -3246.9036     -3264.3651      17.461438      6871.6805      10112.159    
     54700   301.85467     -3247.7192     -3265.1601      17.440947      6415.7865      10112.159    
     54800   290.626       -3247.8705     -3264.6626      16.792162      6734.6975      10112.159    
     54900   293.67361     -3246.1249     -3263.0931      16.968251      6961.0703      10112.159    
     55000   298.38594     -3245.5092     -3262.7497      17.240526      7426.4181      10112.159    
     55100   327.74642     -3245.4362     -3264.3732      18.936954      6927.1595      10112.159    
     55200   288.82507     -3246.4662     -3263.1543      16.688106      7166.9763      10112.159    
     55300   296.84597     -3246.6459     -3263.7975      17.151548      7165.0196      10112.159    
     55400   304.89048     -3246.7959     -3264.4122      17.616354      6677.3068      10112.159    
     55500   301.76984     -3246.6749     -3264.1109      17.436045      6707.1911      10112.159    
     55600   304.63059     -3246.5479     -3264.1492      17.601337      6931.2939      10112.159    
     55700   282.13532     -3246.7637     -3263.0653      16.301577      7231.8813      10112.159    
     55800   299.1947      -3246.1576     -3263.4449      17.287256      6985.1586      10112.159    
     55900   314.49018     -3244.5211     -3262.6921      18.171018      7368.2792      10112.159    
     56000   333.02269     -3244.0192     -3263.261       19.241813      7274.9119      10112.159    
     56100   297.25445     -3245.6336     -3262.8088      17.175149      7045.7091      10112.159    
     56200   300.72014     -3246.3505     -3263.7259      17.375395      7144.4139      10112.159    
     56300   300.35158     -3247.0184     -3264.3725      17.354099      6485.7389      10112.159    
     56400   315.12246     -3246.97       -3265.1775      18.20755       6656.3388      10112.159    
     56500   281.98296     -3246.4711     -3262.7639      16.292774      7085.8796      10112.159    
     56600   316.21369     -3245.013      -3263.2836      18.270601      7279.7865      10112.159    
     56700   304.80538     -3245.4716     -3263.083       17.611437      7107.9397      10112.159    
     56800   308.88076     -3246.6095     -3264.4564      17.846909      6981.9942      10112.159    
     56900   294.49585     -3247.54       -3264.5558      17.01576       6710.2718      10112.159    
     57000   282.41278     -3247.3723     -3263.69        16.317608      6809.6134      10112.159    
     57100   296.05056     -3246.4221     -3263.5277      17.10559       7087.1906      10112.159    
     57200   311.87129     -3245.8689     -3263.8886      18.0197        7040.4806      10112.159    
     57300   303.1498      -3246.2111     -3263.7269      17.515779      6988.2594      10112.159    
     57400   282.14389     -3247.547      -3263.8491      16.302072      6650.3954      10112.159    
     57500   283.38205     -3248.644      -3265.0176      16.373612      6441.9891      10112.159    
     57600   285.36535     -3247.8634     -3264.3516      16.488206      6710.4219      10112.159    
     57700   294.46228     -3246.7944     -3263.8083      17.01382       6931.3384      10112.159    
     57800   304.55988     -3246.2272     -3263.8244      17.597252      6754.1156      10112.159    
     57900   296.01629     -3246.4982     -3263.6018      17.10361       6922.8101      10112.159    
     58000   296.04372     -3246.9112     -3264.0164      17.105194      6868.7915      10112.159    
     58100   285.28819     -3246.4881     -3262.9719      16.483748      7051.8041      10112.159    
     58200   314.93634     -3245.3283     -3263.5251      18.196797      6927.3671      10112.159    
     58300   319.44639     -3245.172      -3263.6294      18.457384      7200.4554      10112.159    
     58400   292.6638      -3246.3476     -3263.2575      16.909905      6829.2089      10112.159    
     58500   293.73495     -3247.5326     -3264.5044      16.971795      6606.7411      10112.159    
     58600   290.47594     -3247.4538     -3264.2372      16.783492      6732.408       10112.159    
     58700   283.77715     -3246.9771     -3263.3735      16.396441      6873.4513      10112.159    
     58800   307.32955     -3246.222      -3263.9793      17.757281      6710.3621      10112.159    
     58900   296.41286     -3246.2127     -3263.3392      17.126523      7245.2857      10112.159    
     59000   302.29117     -3246.0972     -3263.5634      17.466168      7029.6955      10112.159    
     59100   293.04175     -3246.6228     -3263.5545      16.931743      6870.3809      10112.159    
     59200   289.86965     -3247.5126     -3264.261       16.748461      6733.609       10112.159    
     59300   285.45232     -3249.1197     -3265.613       16.493231      6263.0984      10112.159    
     59400   280.67675     -3249.0245     -3265.2418      16.217302      6307.1572      10112.159    
     59500   279.27985     -3247.5278     -3263.6644      16.13659       6785.8513      10112.159    
     59600   306.20979     -3246.4273     -3264.1199      17.692583      6973.8364      10112.159    
     59700   304.86715     -3246.1008     -3263.7158      17.615006      7217.0121      10112.159    
     59800   296.85955     -3246.2291     -3263.3815      17.152332      7090.5526      10112.159    
     59900   302.42838     -3246.5324     -3264.0065      17.474095      6994.8867      10112.159    
     60000   295.93228     -3247.4273     -3264.5261      17.098755      6644.2662      10112.159    
     60100   297.62031     -3247.6992     -3264.8955      17.196289      6668.4716      10112.159    
     60200   290.51169     -3246.7597     -3263.5452      16.785558      6967.2811      10112.159    
     60300   316.08766     -3245.1702     -3263.4335      18.263319      6957.8191      10112.159    
     60400   302.98198     -3245.5684     -3263.0744      17.506082      6982.9931      10112.159    
     60500   292.07935     -3246.4438     -3263.3199      16.876136      7008.2488      10112.159    
     60600   301.32998     -3246.993      -3264.4036      17.41063       6784.6105      10112.159    
     60700   290.07372     -3247.7393     -3264.4996      16.760252      6685.8047      10112.159    
     60800   278.56268     -3248.6793     -3264.7745      16.095153      6482.6943      10112.159    
     60900   283.0587      -3248.2074     -3264.5624      16.354929      6531.7923      10112.159    
     61000   303.73884     -3246.5763     -3264.1261      17.549813      6711.8582      10112.159    
     61100   303.03181     -3245.7812     -3263.2901      17.508961      6918.6853      10112.159    
     61200   303.64438     -3245.7241     -3263.2685      17.544355      6957.6275      10112.159    
     61300   295.16446     -3246.6954     -3263.7498      17.054392      6826.4504      10112.159    
     61400   291.37174     -3247.8508     -3264.686       16.835251      6607.2677      10112.159    
     61500   270.12252     -3248.8029     -3264.4104      15.607486      6508.8016      10112.159    
     61600   299.38861     -3248.3491     -3265.6476      17.29846       6357.6133      10112.159    
     61700   299.4394      -3246.585      -3263.8864      17.301395      6833.5451      10112.159    
     61800   308.87752     -3245.6743     -3263.521       17.846722      7017.3197      10112.159    
     61900   283.25447     -3246.1287     -3262.4949      16.366241      7290.9102      10112.159    
     62000   304.06644     -3246.3832     -3263.9519      17.568741      6716.1218      10112.159    
     62100   306.50596     -3246.8622     -3264.5719      17.709695      6536.3095      10112.159    
     62200   285.46737     -3248.0542     -3264.5483      16.4941        6380.0023      10112.159    
     62300   280.82688     -3248.1595     -3264.3855      16.225976      6530.3136      10112.159    
     62400   307.1862      -3246.4263     -3264.1753      17.748999      6760.2784      10112.159    
     62500   317.29922     -3245.6335     -3263.9668      18.333322      7073.5608      10112.159    
     62600   297.28274     -3246.0194     -3263.1962      17.176784      6768.9101      10112.159    
     62700   297.40975     -3246.4689     -3263.653       17.184122      7055.5382      10112.159    
     62800   294.8362      -3247.6002     -3264.6356      17.035425      6637.8523      10112.159    
     62900   291.13247     -3248.5714     -3265.3928      16.821426      6308.0516      10112.159    
     63000   292.2566      -3247.69       -3264.5764      16.886377      6379.4311      10112.159    
     63100   297.10683     -3246.688      -3263.8546      17.16662       6996.3871      10112.159    
     63200   292.19908     -3246.3478     -3263.2309      16.883054      6951.0252      10112.159    
     63300   322.56523     -3245.6258     -3264.2634      18.637588      6797.9692      10112.159    
     63400   288.45353     -3246.1013     -3262.7679      16.666639      7170.4406      10112.159    
     63500   287.17797     -3247.5717     -3264.1647      16.592938      6873.1602      10112.159    
     63600   286.10194     -3248.1515     -3264.6823      16.530766      6328.2957      10112.159    
     63700   297.32379     -3247.3754     -3264.5545      17.179156      6446.6481      10112.159    
     63800   299.42544     -3246.1371     -3263.4377      17.300588      6785.1134      10112.159    
     63900   294.67825     -3245.9918     -3263.0181      17.026298      7119.007       10112.159    
     64000   308.44702     -3246.0162     -3263.838       17.821848      6726.9745      10112.159    
     64100   310.17792     -3246.3059     -3264.2277      17.921858      6704.0593      10112.159    
     64200   290.34447     -3247.4282     -3264.2041      16.775896      6583.1123      10112.159    
     64300   277.2138      -3248.3688     -3264.386       16.017215      6377.4333      10112.159    
     64400   288.17741     -3247.689      -3264.3397      16.650685      6445.2276      10112.159    
     64500   306.00907     -3245.6769     -3263.3578      17.680985      7188.9205      10112.159    
     64600   318.26845     -3245.4016     -3263.791       18.389324      6821.9078      10112.159    
     64700   292.27429     -3246.2343     -3263.1217      16.8874        7088.7304      10112.159    
     64800   286.32874     -3247.067      -3263.6108      16.54387       6583.5207      10112.159    
     64900   291.69362     -3247.7951     -3264.6489      16.853849      6641.3954      10112.159    
     65000   289.01179     -3248.2263     -3264.9252      16.698894      6351.5833      10112.159    
     65100   287.54276     -3247.0126     -3263.6266      16.614015      7079.6609      10112.159    
     65200   287.82832     -3245.6198     -3262.2503      16.630515      7177.9047      10112.159    
     65300   324.79373     -3245.0337     -3263.8001      18.76635       6861.5879      10112.159    
     65400   307.23673     -3245.9815     -3263.7334      17.751919      6730.5304      10112.159    
     65500   294.69835     -3247.0611     -3264.0886      17.02746       6951.4555      10112.159    
     65600   304.53669     -3247.2419     -3264.8378      17.595912      6400.2252      10112.159    
     65700   285.90134     -3246.9076     -3263.4267      16.519175      6579.4029      10112.159    
     65800   313.59974     -3246.2907     -3264.4102      18.119569      6730.1981      10112.159    
     65900   288.70122     -3246.4774     -3263.1584      16.68095       6934.3476      10112.159    
     66000   315.46888     -3245.6899     -3263.9175      18.227566      6923.7956      10112.159    
     66100   317.51686     -3244.706      -3263.0519      18.345897      7288.923       10112.159    
     66200   315.61618     -3244.4257     -3262.6618      18.236077      7307.9378      10112.159    
     66300   308.75907     -3245.8174     -3263.6573      17.839878      6952.5683      10112.159    
     66400   306.39796     -3246.9244     -3264.6279      17.703455      6555.3842      10112.159    
     66500   282.79555     -3247.4582     -3263.7979      16.339724      6726.4441      10112.159    
     66600   278.25178     -3246.935      -3263.0122      16.077189      7000.06        10112.159    
     66700   321.39969     -3245.5444     -3264.1146      18.570244      7024.6214      10112.159    
     66800   301.34445     -3245.9499     -3263.3613      17.411467      6815.5805      10112.159    
     66900   307.16219     -3246.0832     -3263.8308      17.747612      6837.2852      10112.159    
     67000   305.95629     -3246.4178     -3264.0957      17.677936      6907.252       10112.159    
     67100   271.61339     -3247.8709     -3263.5645      15.693627      6847.6928      10112.159    
     67200   298.99258     -3247.7132     -3264.9887      17.275577      6542.6069      10112.159    
     67300   299.8872      -3246.4443     -3263.7716      17.327268      6625.1307      10112.159    
     67400   312.89282     -3245.3581     -3263.4369      18.078723      7202.9907      10112.159    
     67500   291.61498     -3245.885      -3262.7343      16.849305      7204.6404      10112.159    
     67600   295.58015     -3246.6272     -3263.7056      17.07841       6903.7952      10112.159    
     67700   310.68054     -3247.19       -3265.1409      17.950899      6438.7287      10112.159    
     67800   278.20085     -3247.7013     -3263.7755      16.074246      6763.3304      10112.159    
     67900   293.38344     -3246.2251     -3263.1765      16.951485      7203.1817      10112.159    
     68000   311.67596     -3245.0514     -3263.0598      18.008414      7301.9504      10112.159    
     68100   312.80681     -3245.4378     -3263.5116      18.073754      7091.0172      10112.159    
     68200   297.93964     -3246.729      -3263.9437      17.214739      6870.0263      10112.159    
     68300   289.14661     -3246.9942     -3263.7009      16.706684      6845.6607      10112.159    
     68400   309.72764     -3246.6689     -3264.5647      17.895841      6533.187       10112.159    
     68500   290.24653     -3246.6829     -3263.4531      16.770237      6967.9117      10112.159    
     68600   305.46709     -3245.6962     -3263.3459      17.64967       7043.4535      10112.159    
     68700   312.35557     -3244.0418     -3262.0895      18.047681      7569.0803      10112.159    
     68800   316.36324     -3244.0819     -3262.3611      18.279242      7595.5004      10112.159    
     68900   303.75663     -3245.7313     -3263.2822      17.550841      7295.3805      10112.159    
     69000   303.33504     -3246.3231     -3263.8496      17.526481      6874.2542      10112.159    
     69100   307.96969     -3246.7222     -3264.5165      17.794268      6976.6625      10112.159    
     69200   266.87268     -3247.4561     -3262.8758      15.419712      6849.2649      10112.159    
     69300   313.41112     -3246.4986     -3264.6073      18.108671      6854.4557      10112.159    
     69400   307.591       -3245.7239     -3263.4963      17.772388      7010.591       10112.159    
     69500   315.06094     -3244.6333     -3262.8373      18.203996      7370.9313      10112.159    
     69600   315.74614     -3244.0521     -3262.2957      18.243586      7469.9548      10112.159    
     69700   312.7551      -3245.5964     -3263.6671      18.070766      7127.9904      10112.159    
     69800   294.35005     -3246.5378     -3263.5451      17.007336      6985.5774      10112.159    
     69900   289.67165     -3246.7908     -3263.5278      16.737021      7072.343       10112.159    
     70000   301.13973     -3246.9473     -3264.3469      17.399638      6713.2451      10112.159    
     70100   303.97287     -3247.1534     -3264.7167      17.563335      6372.466       10112.159    
     70200   299.03136     -3246.5382     -3263.816       17.277818      7144.6417      10112.159    
     70300   285.91682     -3245.5365     -3262.0566      16.52007       7206.5216      10112.159    
     70400   306.62738     -3244.8378     -3262.5545      17.716711      7551.8008      10112.159    
     70500   313.25854     -3245.864      -3263.9639      18.099854      6784.0348      10112.159    
     70600   307.73402     -3247.3381     -3265.1188      17.780652      6562.4882      10112.159    
     70700   286.18035     -3247.3272     -3263.8625      16.535296      6845.4311      10112.159    
     70800   307.67797     -3246.4285     -3264.2059      17.777413      7003.6743      10112.159    
     70900   296.82827     -3245.7793     -3262.9298      17.150525      7143.8626      10112.159    
     71000   304.58923     -3244.8297     -3262.4287      17.598948      7541.1267      10112.159    
     71100   320.79127     -3245.1748     -3263.7099      18.53509       6966.1429      10112.159    
     71200   303.39166     -3247.1112     -3264.641       17.529753      6693.253       10112.159    
     71300   281.47534     -3247.8409     -3264.1043      16.263444      6809.4844      10112.159    
     71400   290.18929     -3247.2415     -3264.0084      16.76693       6903.0904      10112.159    
     71500   315.9535      -3245.8254     -3264.0809      18.255567      6886.3088      10112.159    
     71600   303.20639     -3245.6285     -3263.1476      17.519048      7208.0531      10112.159    
     71700   302.22607     -3245.7416     -3263.204       17.462406      7139.8984      10112.159    
     71800   274.76937     -3247.2567     -3263.1327      15.875978      6962.7083      10112.159    
     71900   306.21035     -3247.5941     -3265.2867      17.692615      6324.6901      10112.159    
     72000   286.81099     -3247.4299     -3264.0017      16.571734      6717.1514      10112.159    
     72100   293.80224     -3246.2839     -3263.2595      16.975683      7167.9021      10112.159    
     72200   311.83145     -3245.7388     -3263.7562      18.017398      6990.5365      10112.159    
     72300   291.03583     -3245.8899     -3262.7058      16.815842      7152.7411      10112.159    
     72400   307.05789     -3245.9485     -3263.6901      17.741585      7250.8101      10112.159    
     72500   288.44575     -3246.5996     -3263.2658      16.666189      6873.4894      10112.159    
     72600   308.04741     -3246.5914     -3264.3901      17.798759      6618.3287      10112.159    
     72700   303.03707     -3246.7318     -3264.2411      17.509265      6717.7805      10112.159    
     72800   294.39768     -3246.4379     -3263.448       17.010087      7011.7915      10112.159    
     72900   295.54842     -3245.808      -3262.8846      17.076576      7286.7339      10112.159    
     73000   309.83109     -3245.1077     -3263.0095      17.901819      7242.3772      10112.159    
     73100   327.41382     -3244.7136     -3263.6313      18.917736      7074.546       10112.159    
     73200   307.15443     -3246.0775     -3263.8246      17.747163      6898.0747      10112.159    
     73300   289.72562     -3247.0994     -3263.8396      16.740139      6763.17        10112.159    
     73400   285.14146     -3247.1291     -3263.6043      16.47527       6731.0157      10112.159    
     73500   312.99157     -3246.1731     -3264.2576      18.084429      6946.1579      10112.159    
     73600   314.16214     -3244.6019     -3262.754       18.152064      7181.5275      10112.159    
     73700   327.29012     -3244.0209     -3262.9315      18.910589      7291.1438      10112.159    
     73800   309.43348     -3245.2152     -3263.0941      17.878845      7257.8661      10112.159    
     73900   307.85282     -3246.1964     -3263.984       17.787516      6970.3654      10112.159    
     74000   289.49923     -3246.8721     -3263.5992      16.727059      6788.8681      10112.159    
     74100   306.15211     -3246.7113     -3264.4005      17.68925       6897.7038      10112.159    
     74200   293.79749     -3246.6941     -3263.6695      16.975409      6830.4462      10112.159    
     74300   313.41074     -3245.6444     -3263.7531      18.108649      7226.1568      10112.159    
     74400   308.79993     -3245.1126     -3262.9548      17.842239      7447.0119      10112.159    
     74500   286.81198     -3246.1165     -3262.6883      16.571791      7190.8294      10112.159    
     74600   297.48367     -3246.9827     -3264.1711      17.188394      6820.897       10112.159    
     74700   299.22942     -3247.0447     -3264.3339      17.289262      6810.7805      10112.159    
     74800   291.04488     -3246.7948     -3263.6112      16.816365      6947.8916      10112.159    
     74900   315.04947     -3244.9379     -3263.1412      18.203333      7179.1543      10112.159    
     75000   322.53162     -3243.9456     -3262.5813      18.635646      7556.9389      10112.159    
     75100   306.87902     -3245.1603     -3262.8916      17.73125       7175.5566      10112.159    
     75200   306.10462     -3246.0361     -3263.7226      17.686506      6961.8169      10112.159    
     75300   309.0112      -3246.7805     -3264.6349      17.854446      6533.1545      10112.159    
     75400   273.63311     -3247.4193     -3263.2296      15.810325      7018.9208      10112.159    
[...]
    281800   298.13975     -3246.969      -3264.1953      17.226302      6526.2956      10112.159    
    281900   282.5452      -3247.338      -3263.6632      16.325259      6983.7493      10112.159    
    282000   295.0301      -3247.4444     -3264.4911      17.046628      6138.5839      10112.159    
    282100   301.71952     -3246.7249     -3264.158       17.433138      6698.0865      10112.159    
    282200   296.33939     -3245.7351     -3262.8573      17.122278      6988.5983      10112.159    
    282300   313.61431     -3245.0767     -3263.1971      18.120411      7155.0204      10112.159    
    282400   298.80925     -3246.0631     -3263.3281      17.264985      6860.7611      10112.159    
    282500   287.54512     -3247.6057     -3264.2199      16.614151      6350.2065      10112.159    
    282600   310.89283     -3247.3492     -3265.3124      17.963166      6680.0728      10112.159    
    282700   282.8111      -3247.0794     -3263.42        16.340623      6561.2116      10112.159    
    282800   324.83027     -3245.5797     -3264.3482      18.768461      6932.0437      10112.159    
    282900   295.97985     -3245.9302     -3263.0317      17.101504      6840.997       10112.159    
    283000   314.92873     -3245.9717     -3264.1681      18.196357      6801.4336      10112.159    
    283100   284.60333     -3246.8357     -3263.2798      16.444177      6786.4132      10112.159    
    283200   294.0088      -3247.7939     -3264.7815      16.987618      6337.5386      10112.159    
    283300   292.86055     -3248.7881     -3265.7093      16.921273      6258.1996      10112.159    
    283400   277.20117     -3248.0048     -3264.0213      16.016485      6548.371       10112.159    
    283500   298.42779     -3246.3494     -3263.5923      17.242944      6994.9539      10112.159    
    283600   310.26727     -3245.8448     -3263.7718      17.927021      6774.2766      10112.159    
    283700   308.78137     -3245.5906     -3263.4318      17.841166      6964.417       10112.159    
    283800   288.58683     -3246.0682     -3262.7426      16.67434       7283.165       10112.159    
    283900   288.22824     -3247.4607     -3264.1143      16.653622      6653.6688      10112.159    
    284000   306.56432     -3247.5668     -3265.2799      17.713067      6147.3827      10112.159    
    284100   293.69639     -3247.1409     -3264.1105      16.969568      6692.8284      10112.159    
    284200   301.1147      -3246.5014     -3263.8996      17.398192      6742.8554      10112.159    
    284300   291.78122     -3246.3412     -3263.2001      16.85891       6808.2575      10112.159    
    284400   303.29913     -3246.1458     -3263.6702      17.524407      6977.7384      10112.159    
    284500   294.89383     -3246.3159     -3263.3547      17.038755      7006.717       10112.159    
    284600   299.36148     -3246.731      -3264.0279      17.296892      6814.1188      10112.159    
    284700   291.16403     -3247.7203     -3264.5436      16.823249      6595.0874      10112.159    
    284800   297.71214     -3247.7123     -3264.9138      17.201595      6458.695       10112.159    
    284900   292.10866     -3246.6846     -3263.5625      16.87783       6891.9413      10112.159    
    285000   311.81301     -3245.225      -3263.2414      18.016333      7307.4425      10112.159    
    285100   305.22061     -3245.3048     -3262.9402      17.635429      6909.797       10112.159    
    285200   299.16159     -3246.4029     -3263.6883      17.285343      6827.1476      10112.159    
    285300   295.98816     -3246.9511     -3264.0531      17.101984      6793.7776      10112.159    
    285400   297.23498     -3246.8804     -3264.0545      17.174024      6601.0978      10112.159    
    285500   285.50575     -3246.8486     -3263.3449      16.496318      6910.6043      10112.159    
    285600   321.64817     -3245.3169     -3263.9015      18.584601      7013.5479      10112.159    
    285700   329.37815     -3244.2103     -3263.2415      19.031234      7399.0193      10112.159    
    285800   288.78447     -3245.3004     -3261.9861      16.68576       7510.5643      10112.159    
    285900   309.01314     -3245.8327     -3263.6872      17.854558      6866.0111      10112.159    
    286000   297.28285     -3246.9849     -3264.1617      17.176791      6746.422       10112.159    
    286100   297.45844     -3247.3287     -3264.5156      17.186936      6537.3105      10112.159    
    286200   304.07412     -3246.8363     -3264.4055      17.569185      6758.2368      10112.159    
    286300   305.54706     -3244.993      -3262.6473      17.654291      7298.3082      10112.159    
    286400   323.28872     -3244.3235     -3263.0029      18.679391      7209.9282      10112.159    
    286500   310.16661     -3245.6073     -3263.5285      17.921205      6943.4851      10112.159    
    286600   303.52774     -3246.6439     -3264.1815      17.537616      6742.9814      10112.159    
    286700   294.8217      -3247.1711     -3264.2057      17.034587      6676.3769      10112.159    
    286800   271.5668      -3247.2226     -3262.9135      15.690935      6985.7056      10112.159    
    286900   313.66286     -3245.5059     -3263.6291      18.123216      7058.0692      10112.159    
    287000   318.10632     -3245.0786     -3263.4585      18.379956      6982.6722      10112.159    
    287100   303.15295     -3245.7838     -3263.2997      17.515961      6916.5176      10112.159    
    287200   297.78321     -3246.7044     -3263.9101      17.205701      6689.1964      10112.159    
    287300   305.36251     -3246.7688     -3264.4125      17.643628      6519.9364      10112.159    
    287400   293.10556     -3246.7145     -3263.6499      16.93543       7010.8354      10112.159    
    287500   303.49589     -3246.0349     -3263.5706      17.535776      6954.4181      10112.159    
    287600   297.92538     -3245.5248     -3262.7387      17.213915      7131.5723      10112.159    
    287700   328.28372     -3245.0973     -3264.0653      18.967999      7055.1714      10112.159    
    287800   302.44227     -3246.134      -3263.6089      17.474898      6781.0288      10112.159    
    287900   284.65607     -3247.1981     -3263.6454      16.447224      6920.4002      10112.159    
    288000   280.17142     -3247.7494     -3263.9375      16.188104      6887.5056      10112.159    
    288100   315.48299     -3247.0357     -3265.2641      18.228382      6180.6484      10112.159    
    288200   300.01403     -3245.2224     -3262.557       17.334596      7355.0822      10112.159    
    288300   325.80152     -3244.9782     -3263.8028      18.824579      6816.6875      10112.159    
    288400   300.19978     -3245.8594     -3263.2047      17.345329      7058.2223      10112.159    
    288500   285.09615     -3246.6266     -3263.0992      16.472652      6981.1821      10112.159    
    288600   297.16852     -3247.0304     -3264.2006      17.170184      6792.8137      10112.159    
    288700   298.08182     -3246.916      -3264.139       17.222954      6665.4142      10112.159    
    288800   322.62487     -3244.695      -3263.336       18.641035      7159.3295      10112.159    
    288900   310.38399     -3244.5795     -3262.5133      17.933765      7142.5308      10112.159    
    289000   300.90191     -3245.6005     -3262.9864      17.385897      7157.1582      10112.159    
    289100   293.5192      -3246.8434     -3263.8027      16.95933       6805.2771      10112.159    
    289200   298.20971     -3247.1285     -3264.3588      17.230344      6603.7868      10112.159    
    289300   298.72644     -3246.7971     -3264.0573      17.2602        6752.2678      10112.159    
    289400   302.26631     -3246.1686     -3263.6333      17.464731      7120.831       10112.159    
    289500   321.21595     -3244.7726     -3263.3322      18.559628      7223.7723      10112.159    
    289600   317.86176     -3243.9269     -3262.2928      18.365825      7464.4577      10112.159    
    289700   306.30433     -3245.2873     -3262.9854      17.698045      7333.3336      10112.159    
    289800   300.18891     -3246.1981     -3263.5428      17.344701      6931.1595      10112.159    
    289900   303.70745     -3246.6037     -3264.1517      17.547999      6717.6736      10112.159    
    290000   291.18214     -3247.0156     -3263.8399      16.824296      6716.6028      10112.159    
    290100   294.75487     -3246.939      -3263.9697      17.030726      6995.4564      10112.159    
    290200   289.64048     -3246.456      -3263.1913      16.73522       6926.9283      10112.159    
    290300   320.4107      -3245.1064     -3263.6195      18.513101      7076.1601      10112.159    
    290400   303.71756     -3245.5671     -3263.1157      17.548584      7000.1897      10112.159    
    290500   303.2709      -3246.6236     -3264.1464      17.522776      6833.5167      10112.159    
    290600   289.27393     -3247.3152     -3264.0292      16.714041      6734.7817      10112.159    
    290700   284.26204     -3247.208      -3263.6325      16.424457      6915.3269      10112.159    
    290800   299.89068     -3246.9756     -3264.3031      17.327469      6632.6925      10112.159    
    290900   307.4438      -3246.5245     -3264.2883      17.763883      6908.8609      10112.159    
    291000   295.64619     -3245.9827     -3263.0649      17.082225      7087.5422      10112.159    
    291100   307.84826     -3245.4077     -3263.1949      17.787252      7283.9116      10112.159    
    291200   283.51971     -3246.3504     -3262.7319      16.381566      7007.5862      10112.159    
    291300   295.55226     -3247.5842     -3264.661       17.076798      6455.2911      10112.159    
    291400   300.16853     -3247.6152     -3264.9587      17.343523      6436.5316      10112.159    
    291500   297.40607     -3246.8023     -3263.9862      17.18391       6764.5542      10112.159    
    291600   302.53256     -3246.2572     -3263.7373      17.480115      7077.7278      10112.159    
    291700   302.9003      -3246.2497     -3263.7511      17.501363      6977.317       10112.159    
    291800   293.29025     -3246.3416     -3263.2877      16.946101      7119.0793      10112.159    
    291900   311.90896     -3246.1504     -3264.1723      18.021877      6853.1645      10112.159    
    292000   294.52428     -3246.9934     -3264.0108      17.017402      6606.6632      10112.159    
    292100   283.27636     -3247.7424     -3264.1099      16.367505      6729.2432      10112.159    
    292200   297.1961      -3247.0604     -3264.2322      17.171778      6786.9072      10112.159    
    292300   296.01431     -3245.523      -3262.6265      17.103495      7163.7466      10112.159    
    292400   315.74635     -3244.9386     -3263.1822      18.243598      7173.574       10112.159    
    292500   305.81564     -3245.5778     -3263.2476      17.669809      6812.22        10112.159    
    292600   299.24679     -3246.1691     -3263.4593      17.290266      7010.57        10112.159    
    292700   309.72485     -3246.6424     -3264.5381      17.895681      6848.6757      10112.159    
    292800   291.66629     -3247.1417     -3263.994       16.852269      6679.9904      10112.159    
    292900   295.5489      -3246.626      -3263.7026      17.076604      6833.0936      10112.159    
    293000   317.66338     -3245.3131     -3263.6675      18.354363      7122.0001      10112.159    
    293100   328.07397     -3243.0273     -3261.9831      18.955879      7804.197       10112.159    
    293200   304.94071     -3243.8675     -3261.4867      17.619256      7744.9185      10112.159    
    293300   309.99964     -3245.5751     -3263.4867      17.911557      6874.2704      10112.159    
    293400   308.23312     -3246.3549     -3264.1644      17.809489      6853.1562      10112.159    
    293500   304.34601     -3246.9084     -3264.4932      17.584895      6487.6741      10112.159    
    293600   281.4915      -3247.569      -3263.8334      16.264378      6743.4919      10112.159    
    293700   296.56464     -3246.9782     -3264.1135      17.135293      6615.2408      10112.159    
    293800   316.22229     -3245.4465     -3263.7176      18.271097      6927.2079      10112.159    
    293900   312.52138     -3245.2647     -3263.3219      18.057262      7081.6282      10112.159    
    294000   312.97224     -3245.8114     -3263.8947      18.083312      6857.2996      10112.159    
    294100   284.50305     -3247.6323     -3264.0707      16.438383      6709.5865      10112.159    
    294200   290.61458     -3247.5938     -3264.3853      16.791502      6432.0199      10112.159    
    294300   294.47255     -3246.9695     -3263.9839      17.014413      6654.1129      10112.159    
    294400   314.79297     -3245.8519     -3264.0404      18.188512      6584.6363      10112.159    
    294500   301.93838     -3245.367      -3262.8127      17.445784      7016.4599      10112.159    
    294600   307.14038     -3245.5971     -3263.3434      17.746352      7225.0203      10112.159    
    294700   290.79656     -3247.7903     -3264.5923      16.802017      6401.6464      10112.159    
    294800   289.76368     -3247.7193     -3264.4616      16.742338      6620.6005      10112.159    
    294900   297.54869     -3246.605      -3263.7972      17.19215       6547.4465      10112.159    
    295000   305.91972     -3245.7317     -3263.4075      17.675823      7174.8116      10112.159    
    295100   303.459       -3245.5925     -3263.1262      17.533644      7095.0735      10112.159    
    295200   298.47566     -3246.5359     -3263.7816      17.24571       6813.939       10112.159    
    295300   290.8491      -3247.8946     -3264.6997      16.805053      6384.1619      10112.159    
    295400   292.70221     -3247.6435     -3264.5556      16.912125      6473.6085      10112.159    
    295500   294.43848     -3246.6098     -3263.6223      17.012445      6508.2804      10112.159    
    295600   317.93724     -3245.2463     -3263.6165      18.370186      7063.7253      10112.159    
    295700   302.26872     -3245.6353     -3263.1002      17.46487       7066.7549      10112.159    
    295800   302.33059     -3246.0771     -3263.5456      17.468446      6872.0869      10112.159    
    295900   294.32455     -3246.9802     -3263.9861      17.005862      6779.5998      10112.159    
    296000   289.95477     -3247.7541     -3264.5075      16.753379      6661.377       10112.159    
    296100   317.70598     -3246.7709     -3265.1277      18.356824      6665.8891      10112.159    
    296200   299.63238     -3245.1897     -3262.5023      17.312545      7236.846       10112.159    
    296300   302.44308     -3244.756      -3262.2309      17.474945      7515.6223      10112.159    
    296400   301.5376      -3245.8543     -3263.2769      17.422627      6777.2247      10112.159    
    296500   303.65695     -3246.4999     -3264.045       17.545081      6724.0398      10112.159    
    296600   310.80274     -3246.5165     -3264.4744      17.95796       6636.2477      10112.159    
    296700   292.41986     -3246.7587     -3263.6545      16.895811      6690.2517      10112.159    
    296800   286.6669      -3246.8422     -3263.4056      16.563409      6970.1852      10112.159    
    296900   310.80909     -3246.5016     -3264.4599      17.958327      6456.6618      10112.159    
    297000   304.33959     -3245.9107     -3263.4952      17.584524      6849.4149      10112.159    
    297100   301.20005     -3245.2738     -3262.6769      17.403124      7013.5773      10112.159    
    297200   304.35717     -3245.1253     -3262.7109      17.585539      7217.4482      10112.159    
    297300   305.56757     -3246.5636     -3264.2191      17.655476      6669.1082      10112.159    
    297400   297.98505     -3247.6921     -3264.9095      17.217363      6203.0469      10112.159    
    297500   298.52448     -3247.454      -3264.7025      17.248531      6576.6661      10112.159    
    297600   278.68481     -3246.7022     -3262.8044      16.102209      6926.686       10112.159    
    297700   301.26831     -3245.991      -3263.3981      17.407067      6899.5309      10112.159    
    297800   325.86159     -3245.8614     -3264.6894      18.82805       6598.2604      10112.159    
    297900   303.58553     -3246.2982     -3263.8391      17.540955      6679.2927      10112.159    
    298000   295.32871     -3246.8386     -3263.9024      17.063881      6777.5448      10112.159    
    298100   275.28218     -3248.3492     -3264.2548      15.905607      6439.7919      10112.159    
    298200   298.84625     -3248.2136     -3265.4807      17.267123      6361.0153      10112.159    
    298300   292.35974     -3246.5894     -3263.4817      16.892337      6976.7354      10112.159    
    298400   294.85442     -3245.9029     -3262.9394      17.036477      7055.2309      10112.159    
    298500   312.67602     -3245.7467     -3263.8129      18.066197      6979.5052      10112.159    
    298600   294.87731     -3246.5665     -3263.6043      17.0378        6653.5191      10112.159    
    298700   284.26489     -3247.4057     -3263.8303      16.424622      6722.5888      10112.159    
    298800   300.59924     -3247.1719     -3264.5403      17.368409      6387.8225      10112.159    
    298900   305.69948     -3245.5274     -3263.1905      17.663097      7128.223       10112.159    
    299000   306.52378     -3244.9136     -3262.6243      17.710725      7049.3555      10112.159    
    299100   305.39047     -3245.6181     -3263.2633      17.645243      6901.903       10112.159    
    299200   296.72312     -3246.9123     -3264.0568      17.144449      6695.8329      10112.159    
    299300   298.00672     -3247.0479     -3264.2665      17.218615      6567.7107      10112.159    
    299400   296.48579     -3246.7579     -3263.8886      17.130737      6710.7266      10112.159    
    299500   305.73578     -3246.1295     -3263.7947      17.665194      6923.6046      10112.159    
    299600   316.99303     -3245.3294     -3263.645       18.315631      6789.6742      10112.159    
    299700   310.02193     -3244.5992     -3262.5121      17.912846      7256.679       10112.159    
    299800   330.32435     -3244.5365     -3263.6224      19.085905      7050.3812      10112.159    
    299900   294.32593     -3246.3183     -3263.3242      17.005942      6949.3465      10112.159    
    300000   286.22945     -3246.8849     -3263.423       16.538133      6753.9909      10112.159    
Loop time of 2260.92 on 20 procs for 300000 steps with 448 atoms

Performance: 11.464 ns/day, 2.093 hours/ns, 132.689 timesteps/s, 59.445 katom-step/s
99.9% CPU use with 20 MPI tasks x 1 OpenMP threads

MPI task timing breakdown:
Section |  min time  |  avg time  |  max time  |%varavg| %total
---------------------------------------------------------------
Pair    | 1746.1     | 2001.1     | 2164       | 414.5 | 88.51
Neigh   | 20.289     | 28.489     | 34.761     | 119.3 |  1.26
Comm    | 61.561     | 228.27     | 491.66     |1269.6 | 10.10
Output  | 0.36882    | 0.60135    | 0.66936    |   7.8 |  0.03
Modify  | 2.0485     | 2.211      | 2.4436     |   6.5 |  0.10
Other   |            | 0.2841     |            |       |  0.01

Nlocal:           22.4 ave          24 max          18 min
Histogram: 1 2 0 2 0 2 1 0 0 12
Nghost:          495.8 ave         522 max         466 min
Histogram: 4 0 0 8 0 0 0 0 0 8
Neighs:              0 ave           0 max           0 min
Histogram: 20 0 0 0 0 0 0 0 0 0
FullNghs:       1277.7 ave        1375 max        1027 min
Histogram: 1 2 0 2 2 0 1 0 0 12

Total # of neighbors = 25554
Ave neighs/atom = 57.040179
Neighbor list builds = 300000
Dangerous builds not checked
Total wall time: 0:37:41
