LAMMPS (27 Jun 2024)
OMP_NUM_THREADS environment is not set. Defaulting to 1 thread. (src/comm.cpp:98)
  using 1 OpenMP thread(s) per MPI task
Reading data file ...
  orthogonal box = (0 0 0) to (44.844435 44.38448 40.643788)
  5 by 2 by 2 MPI processor grid
  reading atoms ...
  3584 atoms
  read_data CPU = 0.021 seconds
**************** Begin of POD Potentials ****************
species: Hf 
periodic boundary conditions: 1 1 1
number of environment clusters: 8
number of principal compoments: 2
inner cut-off radius: 1
outer cut-off radius: 5
cut-off function type: 1
gaussian_exponents: 
polynomial_degrees: 
bessel polynomial degree: 4
inverse polynomial degree: 10
one-body potential: 1
two-body radial basis functions: 8
three-body radial basis functions: 8
three-body angular degree: 6
four-body radial basis functions: 7
four-body angular degree: 5
five-body radial basis functions: 0
five-body angular degree: 0
six-body radial basis functions: 0
six-body angular degree: 0
seven-body radial basis functions: 0
seven-body angular degree: 0
number of local descriptors per element for one-body potential: 1
number of local descriptors per element for two-body potential: 8
number of local descriptors per element for three-body potential: 56
number of local descriptors per element for four-body potential: 112
number of local descriptors per element for five-body potential: 0
number of local descriptors per element for six-body potential: 0
number of local descriptors per element for seven-body potential: 0
number of local descriptors per element for all potentials: 177
number of global descriptors: 1409
**************** End of POD Potentials ****************

**************** Begin of Model Coefficients ****************
total number of coefficients for POD potential: 1409
total number of elements for PCA projection matrix: 352
total number of elements for PCA centroids: 16
**************** End of Model Coefficients ****************


CITE-CITE-CITE-CITE-CITE-CITE-CITE-CITE-CITE-CITE-CITE-CITE-CITE

Your simulation uses code contributions which should be cited:
- Type Label Framework: https://doi.org/10.1021/acs.jpcb.3c08419
The log file lists these citations in BibTeX format.

CITE-CITE-CITE-CITE-CITE-CITE-CITE-CITE-CITE-CITE-CITE-CITE-CITE

Neighbor list info ...
  update: every = 1 steps, delay = 0 steps, check = no
  max neighbors/atom: 2000, page size: 100000
  master list distance cutoff = 7
  ghost atom cutoff = 7
  binsize = 3.5, bins = 13 13 12
  1 neighbor lists, perpetual/occasional/extra = 1 0 0
  (1) pair pod, perpetual
      attributes: full, newton on
      pair build: full/bin/atomonly
      stencil: full/bin/3d
      bin: standard
Setting up Verlet run ...
  Unit style    : metal
  Current step  : 0
  Time step     : 0.001
Per MPI rank memory allocation (min/avg/max) = 2.609 | 2.609 | 2.613 Mbytes
   Step          Temp          TotEng         PotEng         KinEng         Press          Volume    
         0   300           -26078.873     -26217.815      138.94173      5068.3643      80897.271    
       100   121.47172     -26075.132     -26131.39       56.258303      4595.0851      80897.271    
       200   165.12899     -26057.691     -26134.169      76.477692      5075.0148      80897.271    
       300   207.03311     -26037.576     -26133.461      95.885127      5209.243       80897.271    
       400   273.97482     -26016.189     -26143.077      126.88845      5019.0186      80897.271    
       500   291.04688     -25995.311     -26130.106      134.79519      5763.9854      80897.271    
       600   270.91942     -25976.479     -26101.953      125.47338      6802.3167      80897.271    
       700   284.75349     -25961.949     -26093.83       131.88047      7476.0776      80897.271    
       800   304.5305      -25954.263     -26095.303      141.03998      7330.4759      80897.271    
       900   319.80496     -25954.935     -26103.049      148.11418      7012.5069      80897.271    
      1000   310.40105     -25963.031     -26106.79       143.75886      6862.1482      80897.271    
      1100   292.55309     -25970.235     -26105.728      135.49278      6913.872       80897.271    
      1200   283.40866     -25972.541     -26103.799      131.25763      6973.5369      80897.271    
      1300   287.58201     -25968.754     -26101.945      133.19047      6917.6408      80897.271    
      1400   313.27861     -25960.097     -26105.189      145.09157      6974.4849      80897.271    
      1500   307.4347      -25958.246     -26100.631      142.38503      7054.6249      80897.271    
      1600   307.03899     -25960.2       -26102.401      142.20176      7049.5492      80897.271    
      1700   295.40658     -25965.676     -26102.49       136.81434      7104.4405      80897.271    
      1800   284.16795     -25970.404     -26102.014      131.60929      6973.0061      80897.271    
      1900   307.40779     -25967.55      -26109.922      142.37257      6706.2538      80897.271    
      2000   298.56681     -25964.836     -26103.114      138.27797      6911.4234      80897.271    
      2100   309.40013     -25959.596     -26102.891      143.2953       7015.8047      80897.271    
      2200   298.59051     -25959.105     -26097.394      138.28894      7258.8483      80897.271    
      2300   293.87635     -25962.502     -26098.607      136.10563      7213.6301      80897.271    
      2400   298.502       -25966.818     -26105.066      138.24795      6931.0403      80897.271    
      2500   303.29434     -25969.228     -26109.695      140.46747      6710.5572      80897.271    
      2600   297.44979     -25968.196     -26105.956      137.76063      6873.9569      80897.271    
      2700   295.42149     -25964.189     -26101.01       136.82124      7081.886       80897.271    
      2800   297.27077     -25960.985     -26098.663      137.67772      7194.5981      80897.271    
      2900   310.68451     -25959.729     -26103.619      143.89015      7035.5614      80897.271    
      3000   300.79478     -25962.659     -26101.969      139.30982      7039.6377      80897.271    
      3100   306.68749     -25965.335     -26107.374      142.03897      6954.7126      80897.271    
      3200   290.48716     -25969.112     -26103.648      134.53596      6832.0302      80897.271    
      3300   295.09532     -25967.029     -26103.699      136.67018      7017.9536      80897.271    
      3400   301.07896     -25963.114     -26102.556      139.44144      7062.2762      80897.271    
      3500   305.77956     -25960.762     -26102.381      141.61847      7068.4586      80897.271    
      3600   304.49907     -25960.738     -26101.763      141.02543      7081.3883      80897.271    
      3700   302.89821     -25962.896     -26103.18       140.284        7115.3694      80897.271    
      3800   293.9751      -25966.964     -26103.115      136.15136      6876.8789      80897.271    
      3900   293.45474     -25968.421     -26104.332      135.91036      6984.0719      80897.271    
      4000   295.74377     -25967.361     -26104.331      136.9705       6996.3708      80897.271    
      4100   306.19778     -25963.379     -26105.192      141.81216      7012.8849      80897.271    
      4200   299.77335     -25961.289     -26100.126      138.83676      7092.616       80897.271    
      4300   297.58593     -25961.708     -26099.532      137.82368      7184.5951      80897.271    
      4400   301.17675     -25963.515     -26103.002      139.48673      7071.7169      80897.271    
      4500   298.79822     -25965.533     -26103.918      138.38514      6923.6727      80897.271    
      4600   298.77733     -25966.301     -26104.677      138.37546      6942.3968      80897.271    
      4700   301.68838     -25965.878     -26105.602      139.72368      7003.276       80897.271    
      4800   297.32202     -25964.749     -26102.45       137.70145      7115.769       80897.271    
      4900   298.97953     -25962.681     -26101.15       138.46911      7113.0585      80897.271    
      5000   303.0159      -25961.299     -26101.637      140.33851      7028.6721      80897.271    
      5100   306.11993     -25962.324     -26104.1        141.77611      7050.4991      80897.271    
      5200   299.65561     -25966.007     -26104.789      138.78223      6928.7548      80897.271    
      5300   296.73913     -25968.291     -26105.723      137.4315       6909.1615      80897.271    
      5400   297.02108     -25967.026     -26104.588      137.56207      6926.485       80897.271    
      5500   297.01542     -25964.248     -26101.807      137.55945      6952.5259      80897.271    
      5600   309.53465     -25960.611     -26103.968      143.3576       7065.7094      80897.271    
      5700   303.6955      -25961.718     -26102.371      140.65326      7115.4123      80897.271    
      5800   294.22933     -25965.33      -26101.599      136.26911      6936.2913      80897.271    
      5900   297.74479     -25965.843     -26103.74       137.89725      7015.9016      80897.271    
      6000   305.03341     -25963.565     -26104.838      141.2729       6990.0376      80897.271    
      6100   300.27116     -25960.728     -26099.795      139.06731      7161.2236      80897.271    
      6200   307.79707     -25958.439     -26100.992      142.55286      7178.5619      80897.271    
      6300   301.47276     -25962.514     -26102.138      139.62382      7134.2662      80897.271    
      6400   300.26683     -25965.93      -26104.995      139.06531      6838.751       80897.271    
      6500   298.13131     -25966.776     -26104.852      138.07627      6912.2429      80897.271    
      6600   299.4897      -25965.706     -26104.411      138.70539      6970.5198      80897.271    
      6700   299.17773     -25961.923     -26100.484      138.56091      7110.5008      80897.271    
      6800   312.71453     -25958.619     -26103.449      144.83032      7200.4067      80897.271    
      6900   301.52304     -25961.817     -26101.464      139.64711      7068.7773      80897.271    
      7000   297.47103     -25964.12      -26101.891      137.77046      7098.5375      80897.271    
      7100   303.11656     -25964.716     -26105.101      140.38513      6954.1369      80897.271    
      7200   298.98193     -25966.867     -26105.337      138.47022      6850.193       80897.271    
      7300   292.00213     -25969.536     -26104.774      135.2376       6852.8901      80897.271    
      7400   298.47298     -25966.823     -26105.058      138.23451      6934.1286      80897.271    
      7500   297.62951     -25962.078     -26099.922      137.84387      7199.0358      80897.271    
      7600   301.05328     -25961.338     -26100.768      139.42955      7125.1952      80897.271    
      7700   304.93555     -25962.765     -26103.992      141.22758      7043.635       80897.271    
      7800   296.5574      -25966.614     -26103.961      137.34733      6913.8472      80897.271    
      7900   299.69397     -25967.042     -26105.842      138.8          6899.6643      80897.271    
      8000   300.80703     -25965.495     -26104.81       139.3155       6994.7628      80897.271    
      8100   295.7811      -25965.73      -26102.718      136.98779      7056.3056      80897.271    
      8200   299.29688     -25963.628     -26102.244      138.61609      7059.6241      80897.271    
      8300   306.49332     -25963.278     -26105.227      141.94904      7036.3451      80897.271    
      8400   295.70603     -25964.277     -26101.23       136.95303      7056.7087      80897.271    
      8500   305.16885     -25962.849     -26104.184      141.33563      6960.8278      80897.271    
      8600   296.57771     -25964.512     -26101.869      137.35673      7134.1536      80897.271    
      8700   298.61591     -25967.793     -26106.094      138.3007       6888.471       80897.271    
      8800   296.48035     -25969.853     -26107.165      137.31164      6933.3497      80897.271    
      8900   296.82378     -25967.155     -26104.626      137.4707       6893.4428      80897.271    
      9000   299.84778     -25963.659     -26102.53       138.87123      7057.2082      80897.271    
      9100   300.76381     -25963.445     -26102.74       139.29548      7059.0635      80897.271    
      9200   304.84357     -25963.27      -26104.455      141.18498      6987.585       80897.271    
      9300   297.87537     -25964.644     -26102.602      137.95773      7109.893       80897.271    
      9400   299.75923     -25968.036     -26106.866      138.83022      7025.9525      80897.271    
      9500   288.61839     -25971.005     -26104.676      133.67046      6926.1665      80897.271    
      9600   300.08783     -25967.595     -26106.578      138.98241      6905.6549      80897.271    
      9700   295.7669      -25965.395     -26102.376      136.98122      7007.8831      80897.271    
      9800   302.2646      -25962.971     -26102.961      139.99055      7071.4177      80897.271    
      9900   301.55333     -25962.426     -26102.087      139.66114      7066.987       80897.271    
     10000   294.70674     -25965.412     -26101.903      136.49022      7142.0165      80897.271    
     10100   300.72488     -25967.379     -26106.657      139.27745      7004.77        80897.271    
     10200   296.14963     -25967.494     -26104.653      137.15847      7072.0077      80897.271    
     10300   299.26082     -25963.34      -26101.939      138.59939      7082.3664      80897.271    
     10400   306.5711      -25959.599     -26101.584      141.98506      7107.1923      80897.271    
     10500   301.85148     -25961.88      -26101.679      139.79922      7073.2846      80897.271    
     10600   295.54078     -25964.697     -26101.573      136.87649      7083.1125      80897.271    
     10700   297.9162      -25966.041     -26104.017      137.97664      7006.9166      80897.271    
     10800   300.82882     -25967.708     -26107.033      139.32559      6976.7506      80897.271    
     10900   289.96859     -25970.373     -26104.669      134.29579      6892.743       80897.271    
     11000   300.40271     -25967.066     -26106.194      139.12824      6958.1938      80897.271    
     11100   294.88279     -25964.264     -26100.836      136.57175      7168.7223      80897.271    
     11200   302.80218     -25961.467     -26101.707      140.23953      7171.5954      80897.271    
     11300   303.49621     -25962.038     -26102.599      140.56096      7104.023       80897.271    
     11400   303.46828     -25963.477     -26104.025      140.54803      7014.9541      80897.271    
     11500   301.33186     -25964.489     -26104.048      139.55856      7093.4995      80897.271    
     11600   295.63682     -25965.517     -26102.438      136.92097      7080.4733      80897.271    
     11700   304.58194     -25964.676     -26105.74       141.0638       6942.6837      80897.271    
     11800   296.35999     -25964.665     -26101.921      137.2559       7114.7673      80897.271    
     11900   296.90976     -25962.999     -26100.509      137.51052      7166.6416      80897.271    
     12000   310.52585     -25958.796     -26102.613      143.81666      7145.5336      80897.271    
     12100   303.53122     -25959.566     -26100.143      140.57717      7326.2745      80897.271    
     12200   302.57384     -25963.404     -26103.538      140.13378      7024.5744      80897.271    
     12300   293.98474     -25965.647     -26101.803      136.15583      7176.6619      80897.271    
     12400   299.67855     -25965.049     -26103.841      138.79286      7024.714       80897.271    
     12500   309.93489     -25962.529     -26106.072      143.54296      6972.5402      80897.271    
     12600   295.82533     -25962.67      -26099.679      137.00828      7182.7828      80897.271    
     12700   296.13227     -25965.208     -26102.358      137.15043      7119.1795      80897.271    
     12800   296.3426      -25969.784     -26107.031      137.24785      6806.7036      80897.271    
     12900   303.827       -25967.662     -26108.377      140.71416      6868.561       80897.271    
     13000   294.6242      -25965.519     -26101.971      136.45199      7151.5744      80897.271    
     13100   300.43258     -25962.2       -26101.342      139.14207      7149.9959      80897.271    
     13200   300.25802     -25962.008     -26101.07       139.06123      7160.6716      80897.271    
     13300   305.84145     -25963.1       -26104.748      141.64713      7116.2393      80897.271    
     13400   297.44263     -25965.934     -26103.691      137.75731      6967.8765      80897.271    
     13500   301.82128     -25965.193     -26104.978      139.78523      7077.5826      80897.271    
     13600   295.15672     -25965.463     -26102.162      136.69862      7112.716       80897.271    
     13700   294.29527     -25964.523     -26100.823      136.29965      7081.3516      80897.271    
     13800   303.46976     -25961.536     -26102.085      140.54871      7191.4434      80897.271    
     13900   306.61122     -25959.79      -26101.794      142.00365      7026.6611      80897.271    
     14000   308.33735     -25959.255     -26102.058      142.80308      7203.5744      80897.271    
     14100   302.34807     -25963.792     -26103.822      140.02921      7058.0992      80897.271    
     14200   296.41163     -25966.367     -26103.647      137.27982      7055.5988      80897.271    
     14300   298.20608     -25965.586     -26103.696      138.1109       7016.2239      80897.271    
     14400   306.46252     -25962.559     -26104.494      141.93477      7105.205       80897.271    
     14500   302.6274      -25960.288     -26100.446      140.15858      7159.8415      80897.271    
     14600   309.98133     -25956.812     -26100.376      143.56447      7328.3678      80897.271    
     14700   300.30581     -25959.886     -26098.97       139.08336      7222.8772      80897.271    
     14800   303.40594     -25964.615     -26105.135      140.51915      7023.5594      80897.271    
     14900   300.74862     -25965.756     -26105.045      139.28845      6986.9419      80897.271    
     15000   297.34087     -25966.232     -26103.942      137.71018      7077.2892      80897.271    
     15100   304.17075     -25964.819     -26105.693      140.87337      6937.016       80897.271    
     15200   298.63609     -25961.845     -26100.155      138.31005      7203.4317      80897.271    
     15300   303.61418     -25958.503     -26099.118      140.6156       7165.5862      80897.271    
     15400   302.80856     -25960.487     -26100.729      140.24249      7119.0954      80897.271    
     15500   299.75042     -25964.767     -26103.593      138.82614      7050.073       80897.271    
     15600   300.10593     -25965.526     -26104.516      138.99079      7049.3946      80897.271    
     15700   298.40838     -25965.586     -26103.791      138.20459      7014.6127      80897.271    
     15800   295.51674     -25963.348     -26100.213      136.86536      7288.9752      80897.271    
     15900   307.35954     -25960.255     -26102.605      142.35022      7205.8328      80897.271    
     16000   305.07205     -25961.426     -26102.717      141.29079      7077.349       80897.271    
     16100   299.07337     -25965.19      -26103.703      138.51257      7007.2059      80897.271    
     16200   295.29734     -25968.476     -26105.239      136.76375      6908.8827      80897.271    
     16300   295.36863     -25967.471     -26104.268      136.79676      7029.0212      80897.271    
     16400   299.89251     -25964.307     -26103.199      138.89195      7061.5899      80897.271    
     16500   309.61425     -25961.111     -26104.505      143.39446      7013.3903      80897.271    
     16600   300.66799     -25962.637     -26101.888      139.2511       7078.0194      80897.271    
     16700   293.65851     -25965.46      -26101.464      136.00474      7178.0917      80897.271    
     16800   303.81718     -25965.097     -26105.807      140.70961      7063.1919      80897.271    
     16900   300.05521     -25965.394     -26104.361      138.9673       7015.7773      80897.271    
     17000   300.70431     -25964.297     -26103.564      139.26793      7012.4561      80897.271    
     17100   297.2604      -25963.048     -26100.721      137.67291      7178.9634      80897.271    
     17200   306.5146      -25959.684     -26101.643      141.9589       7211.028       80897.271    
     17300   305.8176      -25957.544     -26099.18       141.63609      7345.5515      80897.271    
     17400   305.1095      -25961.585     -26102.893      141.30814      7138.2664      80897.271    
     17500   299.31326     -25964.967     -26103.591      138.62367      7079.1994      80897.271    
     17600   295.08024     -25966.1       -26102.763      136.6632       7117.3665      80897.271    
     17700   304.21956     -25964.561     -26105.457      140.89597      6991.0766      80897.271    
     17800   303.77277     -25962.504     -26103.194      140.68905      7134.0074      80897.271    
     17900   296.41166     -25961.769     -26099.048      137.27983      7277.4546      80897.271    
     18000   301.57125     -25961.467     -26101.136      139.66944      7285.6058      80897.271    
     18100   303.98129     -25963.529     -26104.315      140.78562      7018.0028      80897.271    
     18200   299.39591     -25966.686     -26105.348      138.66195      7027.8589      80897.271    
     18300   295.83785     -25966.707     -26103.721      137.01408      6993.3187      80897.271    
     18400   303.62773     -25963.549     -26104.171      140.62188      7128.379       80897.271    
     18500   305.1253      -25959.494     -26100.81       141.31546      7177.8576      80897.271    
     18600   307.98716     -25957.671     -26100.312      142.6409       7311.7657      80897.271    
     18700   308.45666     -25960.301     -26103.159      142.85834      7098.4349      80897.271    
     18800   296.2055      -25962.839     -26100.023      137.18435      7183.1412      80897.271    
     18900   304.04342     -25963.426     -26104.24       140.81439      7090.2268      80897.271    
     19000   295.87659     -25966.697     -26103.729      137.03202      7050.0554      80897.271    
     19100   303.73444     -25967.266     -26107.938      140.67129      6930.1082      80897.271    
     19200   296.58887     -25965.768     -26103.13       137.3619       6964.4119      80897.271    
     19300   300.27223     -25961.391     -26100.459      139.06781      7284.8522      80897.271    
     19400   307.37999     -25960.683     -26103.043      142.35969      7178.5344      80897.271    
     19500   302.54612     -25963.36      -26103.481      140.12094      7062.1372      80897.271    
     19600   292.87176     -25965.598     -26101.238      135.64037      7083.9649      80897.271    
     19700   304.29614     -25964.987     -26105.919      140.93144      6996.5179      80897.271    
     19800   296.57273     -25965.082     -26102.437      137.35443      7086.5607      80897.271    
     19900   304.64293     -25962.684     -26103.776      141.09205      7131.75        80897.271    
     20000   304.5167      -25959.807     -26100.841      141.03359      7217.964       80897.271    
     20100   305.01377     -25957.579     -26098.843      141.2638       7305.0923      80897.271    
     20200   304.89869     -25961.234     -26102.445      141.21051      7158.0598      80897.271    
     20300   302.41599     -25964.353     -26104.413      140.06067      7042.4268      80897.271    
     20400   295.38548     -25966.146     -26102.951      136.80456      7085.9297      80897.271    
     20500   296.32533     -25966.052     -26103.292      137.23985      7077.5673      80897.271    
     20600   303.64613     -25962.819     -26103.449      140.63039      7157.2994      80897.271    
     20700   306.83705     -25959.582     -26101.691      142.10823      7103.4187      80897.271    
     20800   301.74388     -25961.194     -26100.944      139.74939      7185.0202      80897.271    
     20900   296.90411     -25966.223     -26103.731      137.5079       7125.7449      80897.271    
     21000   293.87334     -25967.446     -26103.55       136.10424      6988.531       80897.271    
     21100   306.83458     -25965.517     -26107.624      142.10709      6923.7675      80897.271    
     21200   299.76103     -25964.229     -26103.06       138.83105      7020.9196      80897.271    
     21300   297.98202     -25961.799     -26099.807      138.00712      7207.4115      80897.271    
     21400   302.2045      -25960.912     -26100.874      139.96272      7091.2014      80897.271    
     21500   302.79504     -25964.757     -26104.993      140.23622      6976.8581      80897.271    
     21600   295.96769     -25968.562     -26105.637      137.07421      6982.7833      80897.271    
     21700   293.25905     -25968.775     -26104.594      135.81973      6951.8861      80897.271    
     21800   303.71828     -25964.601     -26105.265      140.66381      7019.3583      80897.271    
     21900   295.03665     -25963.086     -26099.729      136.64301      7047.2108      80897.271    
     22000   309.00895     -25961.809     -26104.923      143.11413      7057.3555      80897.271    
     22100   296.10661     -25964.855     -26101.994      137.13855      7077.5435      80897.271    
     22200   299.04312     -25965.025     -26103.524      138.49856      6979.2466      80897.271    
     22300   300.89209     -25965.188     -26104.543      139.35489      7010.4242      80897.271    
     22400   301.43101     -25964.514     -26104.118      139.60449      7004.386       80897.271    
     22500   299.22936     -25964.344     -26102.929      138.58482      6967.4006      80897.271    
     22600   298.49475     -25964.117     -26102.361      138.24459      7085.9849      80897.271    
     22700   302.80999     -25963.093     -26103.336      140.24314      7108.6843      80897.271    
     22800   299.33115     -25963.855     -26102.487      138.63196      7026.6681      80897.271    
     22900   296.6761      -25966.467     -26103.869      137.4023       7023.7353      80897.271    
     23000   293.07568     -25967.979     -26103.714      135.73481      7051.1085      80897.271    
     23100   300.26369     -25964.907     -26103.971      139.06386      7009.3796      80897.271    
     23200   305.52903     -25961.468     -26102.97       141.50244      7100.9086      80897.271    
     23300   295.44714     -25962.575     -26099.408      136.83312      7186.0009      80897.271    
     23400   304.1372      -25962.92      -26103.777      140.85783      7106.023       80897.271    
     23500   295.10334     -25965.746     -26102.42       136.6739       7025.0112      80897.271    
     23600   300.83634     -25966.939     -26106.268      139.32907      7002.47        80897.271    
     23700   290.50287     -25971.199     -26105.742      134.54324      6854.0387      80897.271    
     23800   294.16256     -25970.008     -26106.246      136.23818      7000.6935      80897.271    
     23900   298.85645     -25965.566     -26103.978      138.41211      7053.9948      80897.271    
     24000   299.05613     -25963.537     -26102.042      138.50459      7096.9152      80897.271    
     24100   303.45905     -25962.501     -26103.045      140.54375      7124.1505      80897.271    
     24200   301.01475     -25964.207     -26103.619      139.4117       7112.0967      80897.271    
     24300   297.18801     -25968.455     -26106.095      137.63939      6995.7031      80897.271    
     24400   293.35941     -25969.784     -26105.65       135.86622      6943.0822      80897.271    
     24500   295.74175     -25965.847     -26102.816      136.96957      7109.6905      80897.271    
     24600   300.79806     -25964.022     -26103.333      139.31134      7058.962       80897.271    
     24700   303.25379     -25963.534     -26103.983      140.44869      7122.5888      80897.271    
     24800   299.67302     -25962.943     -26101.733      138.79029      7142.3042      80897.271    
     24900   301.88777     -25962.662     -26102.478      139.81603      7176.9931      80897.271    
     25000   296.8747      -25965.87      -26103.364      137.49428      7035.5727      80897.271    
     25100   297.24871     -25968.229     -26105.897      137.6675       6970.45        80897.271    
     25200   297.27861     -25967.857     -26105.539      137.68135      7051.8172      80897.271    
     25300   303.17432     -25962.736     -26103.148      140.41188      7117.2436      80897.271    
     25400   301.3672      -25960.371     -26099.946      139.57493      7208.9654      80897.271    
     25500   307.13592     -25960.934     -26103.181      142.24665      7150.1901      80897.271    
     25600   296.60624     -25964.763     -26102.133      137.36995      7126.6879      80897.271    
     25700   300.84837     -25964.565     -26103.9        139.33464      7120.3075      80897.271    
     25800   301.91297     -25964.199     -26104.027      139.8277       7084.6164      80897.271    
     25900   297.7383      -25964.851     -26102.745      137.89425      7095.7403      80897.271    
     26000   300.32599     -25965.221     -26104.313      139.09271      7044.4526      80897.271    
     26100   294.90883     -25966.001     -26102.585      136.58381      7015.8238      80897.271    
     26200   299.91331     -25965.474     -26104.376      138.90158      7146.2881      80897.271    
     26300   298.73352     -25963.84      -26102.195      138.35517      7132.4034      80897.271    
     26400   307.16517     -25961.073     -26103.334      142.2602       7123.0182      80897.271    
     26500   304.39426     -25960.675     -26101.652      140.97688      7164.0775      80897.271    
     26600   296.49559     -25964.474     -26101.793      137.3187       7218.5471      80897.271    
     26700   296.37187     -25967.93      -26105.191      137.2614       7008.7475      80897.271    
     26800   303.43447     -25966.98      -26107.512      140.53237      6878.0789      80897.271    
     26900   297.64412     -25965.352     -26103.203      137.85063      7115.7786      80897.271    
     27000   297.27555     -25963.027     -26100.707      137.67993      7177.7054      80897.271    
     27100   304.72054     -25962.664     -26103.792      141.128        7088.609       80897.271    
     27200   299.05172     -25963.818     -26102.32       138.50254      7080.1279      80897.271    
     27300   303.47248     -25963.395     -26103.945      140.54997      7073.6191      80897.271    
     27400   300.2312      -25964.051     -26103.1        139.04881      7042.8386      80897.271    
     27500   294.76769     -25967.383     -26103.901      136.51844      7093.339       80897.271    
     27600   295.32254     -25969.3       -26106.076      136.77542      7020.8518      80897.271    
     27700   295.41255     -25967.481     -26104.298      136.8171       6966.6788      80897.271    
     27800   302.73232     -25962.365     -26102.572      140.20717      7170.806       80897.271    
     27900   300.54068     -25961.808     -26101          139.19214      7127.1442      80897.271    
     28000   296.97658     -25963.448     -26100.989      137.54147      7201.7728      80897.271    
     28100   302.15635     -25965.967     -26105.907      139.94042      7084.4402      80897.271    
     28200   293.86943     -25969.333     -26105.435      136.10242      7010.4824      80897.271    
     28300   294.8836      -25968.706     -26105.278      136.57213      6968.9797      80897.271    
     28400   302.91243     -25962.638     -26102.928      140.29059      7160.7297      80897.271    
     28500   303.24533     -25960.805     -26101.25       140.44477      7169.6735      80897.271    
     28600   300.77393     -25961.74      -26101.04       139.30017      7224.4699      80897.271    
     28700   302.50666     -25964.986     -26105.089      140.10266      7074.3931      80897.271    
     28800   300.04542     -25967.189     -26106.152      138.96277      6997.0034      80897.271    
     28900   297.77233     -25967.419     -26105.329      137.91001      7037.5307      80897.271    
     29000   297.04224     -25965.92      -26103.492      137.57187      7088.0327      80897.271    
     29100   296.54462     -25964.237     -26101.579      137.34141      7163.1058      80897.271    
     29200   301.76678     -25964.145     -26103.905      139.75999      7067.4233      80897.271    
     29300   300.88456     -25964.959     -26104.311      139.3514       6992.1074      80897.271    
     29400   297.98618     -25965.091     -26103.1        138.00905      7189.7941      80897.271    
     29500   301.59043     -25963.935     -26103.614      139.67832      7095.9137      80897.271    
     29600   303.24732     -25962.42      -26102.865      140.44569      7168.8167      80897.271    
     29700   306.25296     -25961.315     -26103.152      141.83772      7098.7306      80897.271    
     29800   298.11884     -25962.745     -26100.816      138.07049      7186.3034      80897.271    
     29900   300.29917     -25965.997     -26105.077      139.08029      7039.1407      80897.271    
     30000   293.68116     -25968.78      -26104.796      136.01523      7068.0954      80897.271    
     30100   299.91625     -25966.524     -26105.427      138.90294      6987.1434      80897.271    
     30200   301.07495     -25964.991     -26104.43       139.43958      7011.5852      80897.271    
     30300   298.35823     -25964.283     -26102.465      138.18136      7092.6093      80897.271    
     30400   306.09957     -25963.183     -26104.95       141.76668      7032.0066      80897.271    
     30500   292.75304     -25964.316     -26099.901      135.58538      7184.218       80897.271    
     30600   305.78366     -25963.37      -26104.99       141.62037      7051.9245      80897.271    
     30700   295.95553     -25964.74      -26101.809      137.06858      7116.7339      80897.271    
     30800   300.10439     -25964.122     -26103.112      138.99008      7122.4787      80897.271    
     30900   300.19647     -25963.997     -26103.03       139.03272      7171.6259      80897.271    
     31000   302.00436     -25964.661     -26104.531      139.87003      7088.499       80897.271    
     31100   296.92294     -25965.771     -26103.287      137.51662      7080.5298      80897.271    
     31200   299.90095     -25965.629     -26104.525      138.89586      7033.973       80897.271    
     31300   298.96036     -25964.952     -26103.412      138.46023      7091.5224      80897.271    
     31400   297.28296     -25963.52      -26101.204      137.68336      7216.9085      80897.271    
     31500   307.7082      -25960.498     -26103.01       142.5117       7117.491       80897.271    
     31600   304.21335     -25961.927     -26102.82       140.8931       7194.0919      80897.271    
     31700   294.62927     -25967.036     -26103.49       136.45434      7085.3093      80897.271    
     31800   295.99539     -25967.252     -26104.339      137.08704      7050.7705      80897.271    
     31900   298.8926      -25965.222     -26103.651      138.42885      7127.3108      80897.271    
     32000   303.34372     -25962.494     -26102.984      140.49034      7087.5332      80897.271    
     32100   306.02944     -25961.019     -26102.753      141.7342       7159.8193      80897.271    
     32200   296.53953     -25965.014     -26102.353      137.33905      7036.5414      80897.271    
     32300   299.90412     -25968.294     -26107.191      138.89732      6947.7446      80897.271    
     32400   289.762       -25968.35      -26102.55       134.20011      7028.5286      80897.271    
     32500   304.62968     -25964.196     -26105.282      141.08591      7061.1016      80897.271    
     32600   302.19171     -25963.274     -26103.231      139.9568       7038.0772      80897.271    
     32700   307.9742      -25961.902     -26104.537      142.63489      7070.9458      80897.271    
     32800   291.1584      -25964.226     -26099.073      134.84684      7187.0304      80897.271    
     32900   302.13999     -25967.945     -26107.878      139.93284      6957.0191      80897.271    
     33000   291.70264     -25970.015     -26105.114      135.0989       6979.3807      80897.271    
     33100   297.6978      -25967.291     -26105.167      137.87549      6915.8181      80897.271    
     33200   300.24643     -25965.143     -26104.199      139.05586      7063.9692      80897.271    
     33300   301.98281     -25963.676     -26103.536      139.86005      7097.4903      80897.271    
     33400   303.72989     -25962.896     -26103.566      140.66919      7140.6949      80897.271    
     33500   296.88095     -25963.169     -26100.667      137.49717      7248.0687      80897.271    
     33600   299.56438     -25964.273     -26103.013      138.73998      7082.9797      80897.271    
     33700   299.84001     -25966.491     -26105.359      138.86763      7016.563       80897.271    
     33800   299.15437     -25967.151     -26105.701      138.55009      6979.0871      80897.271    
     33900   293.25088     -25965.894     -26101.709      135.81595      7136.9389      80897.271    
     34000   307.12696     -25961.524     -26103.766      142.2425       7146.014       80897.271    
     34100   297.3584      -25962.879     -26100.597      137.7183       7182.3133      80897.271    
     34200   304.89777     -25963.145     -26104.355      141.21008      6997.9785      80897.271    
     34300   295.55066     -25966.852     -26103.733      136.88107      7069.6829      80897.271    
     34400   296.16146     -25969.249     -26106.413      137.16395      6991.8438      80897.271    
     34500   293.56485     -25967.942     -26103.904      135.96136      6967.6366      80897.271    
     34600   299.13424     -25963.505     -26102.046      138.54076      7091.9235      80897.271    
     34700   308.46855     -25962.286     -26105.15       142.86385      7039.8502      80897.271    
     34800   298.09876     -25963.723     -26101.784      138.06119      7148.1918      80897.271    
     34900   293.89548     -25966.252     -26102.366      136.11449      7108.1724      80897.271    
     35000   300.13014     -25966.848     -26105.85       139.002        6987.5729      80897.271    
     35100   305.69468     -25964.788     -26106.367      141.57916      6962.5109      80897.271    
     35200   296.6975      -25963.099     -26100.512      137.41221      7161.0225      80897.271    
     35300   304.80414     -25957.179     -26098.346      141.16671      7323.2209      80897.271    
     35400   303.59922     -25959.318     -26099.927      140.60867      7229.4651      80897.271    
     35500   304.35903     -25962.418     -26103.379      140.96057      7099.7747      80897.271    
     35600   296.22241     -25965.362     -26102.554      137.19218      7100.0119      80897.271    
     35700   301.71137     -25966.051     -26105.785      139.73433      6979.312       80897.271    
     35800   299.33551     -25966.235     -26104.869      138.63398      7042.5462      80897.271    
     35900   294.90858     -25962.651     -26099.235      136.58369      7237.9218      80897.271    
     36000   305.05203     -25959.203     -26100.485      141.28152      7238.497       80897.271    
     36100   307.81723     -25961.228     -26103.79       142.56219      7014.4375      80897.271    
     36200   300.59386     -25964.483     -26103.7        139.21677      7128.866       80897.271    
     36300   293.08192     -25966.491     -26102.229      135.7377       7073.2288      80897.271    
     36400   302.38701     -25965.291     -26105.338      140.04725      6966.1032      80897.271    
     36500   300.00424     -25964.677     -26103.621      138.94369      7037.1197      80897.271    
     36600   306.36482     -25961.867     -26103.757      141.88953      7052.7452      80897.271    
     36700   301.92148     -25958.048     -26097.879      139.83164      7289.1758      80897.271    
     36800   304.72013     -25959.239     -26100.367      141.12781      7210.1318      80897.271    
     36900   303.20072     -25963.729     -26104.153      140.42411      7071.3755      80897.271    
     37000   300.68544     -25965.184     -26104.443      139.25918      7031.4492      80897.271    
     37100   300.32488     -25965.117     -26104.209      139.09219      7023.4825      80897.271    
     37200   296.88404     -25964.25      -26101.749      137.49861      7216.4502      80897.271    
     37300   298.61514     -25962.033     -26100.333      138.30035      7152.7764      80897.271    
     37400   310.79246     -25959.279     -26103.219      143.94014      7131.5165      80897.271    
     37500   300.84172     -25961.636     -26100.968      139.33156      7157.7939      80897.271    
     37600   299.43123     -25966.497     -26105.175      138.67831      6994.7432      80897.271    
     37700   297.12507     -25967.628     -26105.238      137.61024      6866.5929      80897.271    
     37800   296.69506     -25965.835     -26103.247      137.41108      7038.7358      80897.271    
     37900   307.42778     -25962.811     -26105.193      142.38182      7017.3775      80897.271    
     38000   296.66317     -25963.734     -26101.13       137.39631      7131.368       80897.271    
     38100   299.74631     -25963.393     -26102.217      138.82424      7181.9778      80897.271    
     38200   305.88512     -25963.597     -26105.265      141.66736      6981.064       80897.271    
     38300   296.68462     -25964.525     -26101.931      137.40625      7075.7384      80897.271    
     38400   299.56714     -25964.526     -26103.267      138.74126      6970.4861      80897.271    
     38500   295.50728     -25964.866     -26101.727      136.86098      7139.215       80897.271    
     38600   308.60535     -25960.669     -26103.596      142.9272       7121.846       80897.271    
     38700   302.83772     -25959.395     -26099.651      140.25599      7346.4037      80897.271    
     38800   295.31387     -25963.834     -26100.606      136.7714       7150.4848      80897.271    
     38900   301.6719      -25965.649     -26105.365      139.71605      6999.2328      80897.271    
     39000   305.01085     -25965.126     -26106.389      141.26245      6982.8549      80897.271    
     39100   297.64108     -25964.526     -26102.375      137.84922      7042.9002      80897.271    
     39200   298.6354      -25962.395     -26100.705      138.30973      7164.8012      80897.271    
     39300   305.73424     -25959.812     -26101.409      141.59748      7145.8299      80897.271    
     39400   297.02604     -25961.528     -26099.092      137.56437      7244.2125      80897.271    
     39500   298.49599     -25966.198     -26104.444      138.24516      7057.261       80897.271    
     39600   298.53637     -25967.779     -26106.043      138.26386      6898.7825      80897.271    
     39700   298.01885     -25965.961     -26103.985      138.02418      6988.8927      80897.271    
     39800   298.26984     -25963.539     -26101.679      138.14042      7134.7291      80897.271    
     39900   302.55403     -25962.17      -26102.294      140.1246       7137.0739      80897.271    
     40000   301.03118     -25962.484     -26101.904      139.41931      7145.4929      80897.271    
     40100   301.27288     -25963.68      -26103.212      139.53125      7107.6043      80897.271    
     40200   299.99393     -25964.37      -26103.309      138.93892      7074.9212      80897.271    
     40300   305.74117     -25964.167     -26105.768      141.60069      6995.1213      80897.271    
     40400   293.4074      -25966.461     -26102.35       135.88844      7141.2641      80897.271    
     40500   297.61606     -25968.083     -26105.921      137.83763      6969.5881      80897.271    
     40600   295.09685     -25968.672     -26105.343      136.67089      6975.6632      80897.271    
     40700   303.29545     -25964.492     -26104.96       140.46798      7070.6885      80897.271    
     40800   297.08611     -25962.694     -26100.286      137.59219      7222.8907      80897.271    
     40900   300.72863     -25961.147     -26100.426      139.27919      7169.2064      80897.271    
     41000   303.29505     -25962.458     -26102.925      140.4678       7117.1229      80897.271    
     41100   296.89173     -25967.604     -26105.106      137.50217      6985.4668      80897.271    
     41200   302.15134     -25966.204     -26106.142      139.9381       6968.9917      80897.271    
     41300   299.41673     -25964.027     -26102.699      138.6716       7080.1716      80897.271    
     41400   302.5392      -25961.898     -26102.016      140.11773      7175.4345      80897.271    
     41500   300.72016     -25961.522     -26100.798      139.27526      7110.1875      80897.271    
     41600   305.60359     -25964.584     -26106.121      141.53697      7008.8931      80897.271    
     41700   291.98676     -25967.749     -26102.98       135.23049      6974.8992      80897.271    
     41800   303.60122     -25964.954     -26105.563      140.6096       6990.0627      80897.271    
     41900   299.36519     -25963.446     -26102.094      138.64773      7145.8503      80897.271    
     42000   307.27345     -25960.788     -26103.098      142.31035      7118.8807      80897.271    
     42100   300.27837     -25960.435     -26099.506      139.07065      7236.9014      80897.271    
     42200   298.84488     -25963.818     -26102.225      138.40675      7117.429       80897.271    
     42300   298.0923      -25967.586     -26105.645      138.0582       7005.1911      80897.271    
     42400   297.66001     -25968.049     -26105.907      137.85799      6965.9619      80897.271    
     42500   298.13743     -25965.507     -26103.586      138.0791       7140.2664      80897.271    
     42600   303.87371     -25961.365     -26102.101      140.7358       7114.4347      80897.271    
     42700   301.81167     -25961.751     -26101.531      139.78078      7246.7731      80897.271    
     42800   299.18449     -25963.636     -26102.2        138.56403      7119.4488      80897.271    
     42900   299.74295     -25965.228     -26104.05       138.82268      7060.9264      80897.271    
     43000   295.94836     -25967.257     -26104.322      137.06526      6999.3073      80897.271    
     43100   296.65918     -25969.218     -26106.612      137.39446      6916.897       80897.271    
     43200   295.59665     -25969.144     -26106.046      136.90236      7043.5667      80897.271    
     43300   297.73243     -25964.857     -26102.748      137.89153      7186.5469      80897.271    
     43400   299.19124     -25962.606     -26101.173      138.56716      7143.8436      80897.271    
     43500   305.92705     -25962.164     -26103.851      141.68678      7109.8528      80897.271    
     43600   300.31521     -25964.833     -26103.921      139.08772      7037.3525      80897.271    
     43700   294.45481     -25968.678     -26105.052      136.37353      6962.4543      80897.271    
     43800   294.01733     -25968.547     -26104.718      136.17092      6986.8181      80897.271    
     43900   297.94035     -25965.971     -26103.959      137.98783      7073.5668      80897.271    
     44000   299.96702     -25965.243     -26104.169      138.92646      7018.2151      80897.271    
     44100   304.58418     -25963.512     -26104.577      141.06484      7034.8069      80897.271    
     44200   296.14206     -25962.749     -26099.904      137.15496      7202.3309      80897.271    
     44300   300.69192     -25961.409     -26100.671      139.26219      7165.1218      80897.271    
     44400   298.03237     -25962.09      -26100.12       138.03044      7129.2029      80897.271    
     44500   306.01266     -25965.15      -26106.876      141.72643      6962.0436      80897.271    
     44600   299.32775     -25968.051     -26106.682      138.63038      6878.111       80897.271    
     44700   293.29305     -25967.496     -26103.332      135.83548      7067.921       80897.271    
     44800   301.12045     -25963.769     -26103.229      139.46065      7125.1711      80897.271    
     44900   297.15674     -25963.474     -26101.099      137.62491      7123.6659      80897.271    
     45000   305.35772     -25962.993     -26104.416      141.4231       7031.8028      80897.271    
     45100   302.21329     -25964.58      -26104.546      139.96679      6967.8947      80897.271    
     45200   297.25727     -25967.72      -26105.392      137.67146      7042.6147      80897.271    
     45300   290.66064     -25970.532     -26105.148      134.61631      6984.3235      80897.271    
     45400   298.0811      -25967.651     -26105.704      138.05301      7029.796       80897.271    
     45500   302.83744     -25962.98      -26103.236      140.25586      7108.672       80897.271    
     45600   304.93194     -25961.954     -26103.18       141.22591      7138.1258      80897.271    
     45700   300.22967     -25963.542     -26102.59       139.0481       7162.2938      80897.271    
     45800   297.22579     -25966.469     -26104.126      137.65689      7044.7984      80897.271    
     45900   292.70953     -25970.15      -26105.715      135.56523      6856.612       80897.271    
     46000   298.86265     -25970.869     -26109.284      138.41498      6895.4545      80897.271    
     46100   299.42126     -25964.68      -26103.354      138.67369      7053.6905      80897.271    
     46200   300.91256     -25962.404     -26101.768      139.36437      7207.5758      80897.271    
     46300   305.02598     -25962.191     -26103.46       141.26946      7125.1149      80897.271    
     46400   295.60228     -25964.965     -26101.87       136.90497      7115.5998      80897.271    
     46500   300.10142     -25966.332     -26105.32       138.9887       7006.2274      80897.271    
     46600   295.46415     -25968.473     -26105.314      136.841        6991.4672      80897.271    
     46700   298.25153     -25967.573     -26105.705      138.13194      6984.2781      80897.271    
     46800   299.30456     -25963.546     -26102.166      138.61964      7113.6752      80897.271    
     46900   304.10106     -25961.62      -26102.461      140.84109      7159.2561      80897.271    
     47000   297.93112     -25963.084     -26101.068      137.98355      7185.6904      80897.271    
     47100   298.60948     -25967.414     -26105.712      138.29772      6920.2198      80897.271    
     47200   296.24889     -25969.682     -26106.887      137.20444      6898.7783      80897.271    
     47300   291.35199     -25968.544     -26103.481      134.9365       7077.0808      80897.271    
     47400   292.3188      -25965.531     -26100.915      135.38427      7123.7287      80897.271    
     47500   306.42972     -25962.6       -26104.52       141.91959      7029.1413      80897.271    
     47600   305.15929     -25963.054     -26104.385      141.3312       7073.1983      80897.271    
     47700   295.52632     -25965.372     -26102.242      136.86979      7082.3067      80897.271    
     47800   294.57185     -25966.639     -26103.067      136.42774      7110.6397      80897.271    
     47900   296.31679     -25967.147     -26104.383      137.23589      6953.7112      80897.271    
     48000   302.7389      -25965.503     -26105.713      140.21022      7002.4948      80897.271    
     48100   297.30694     -25963.851     -26101.545      137.69447      7080.2033      80897.271    
     48200   306.37412     -25960.665     -26102.559      141.89384      7113.3745      80897.271    
     48300   302.76504     -25960.97      -26101.193      140.22233      7162.0277      80897.271    
     48400   299.23111     -25965.114     -26103.7        138.58563      7038.0478      80897.271    
     48500   293.61584     -25968.65      -26104.635      135.98497      7091.9278      80897.271    
     48600   300.31679     -25967.921     -26107.01       139.08845      6939.3911      80897.271    
     48700   302.06371     -25965.55      -26105.448      139.89752      7030.8245      80897.271    
     48800   296.19617     -25962.834     -26100.014      137.18003      7258.2552      80897.271    
     48900   307.95828     -25961.216     -26103.844      142.62752      7085.4798      80897.271    
     49000   296.61946     -25963.15      -26100.526      137.37607      7181.2906      80897.271    
     49100   305.4124      -25963.325     -26104.774      141.44842      7069.6896      80897.271    
     49200   300.20051     -25965.28      -26104.314      139.03459      7033.9003      80897.271    
     49300   296.4266      -25965.396     -26102.683      137.28675      7119.5654      80897.271    
     49400   300.45589     -25963.963     -26103.116      139.15287      7074.5196      80897.271    
     49500   302.34876     -25964.406     -26104.435      140.02953      7002.4754      80897.271    
     49600   298.98138     -25964.565     -26103.035      138.46997      7104.8015      80897.271    
     49700   298.13242     -25964.393     -26102.47       138.07678      7074.2342      80897.271    
     49800   301.74122     -25963.796     -26103.544      139.74816      7075.2895      80897.271    
     49900   305.87557     -25960.279     -26101.942      141.66293      7163.133       80897.271    
     50000   302.80953     -25960.473     -26100.716      140.24293      7228.106       80897.271    
     50100   302.99313     -25964.015     -26104.343      140.32797      7005.6945      80897.271    
     50200   299.19672     -25966.56      -26105.13       138.5697       6931.5412      80897.271    
     50300   297.06142     -25966.431     -26104.012      137.58076      6986.0205      80897.271    
     50400   298.13754     -25965.271     -26103.35       138.07915      7026.817       80897.271    
     50500   300.85596     -25963.52      -26102.858      139.33816      7131.8018      80897.271    
     50600   308.9362      -25960.3       -26103.381      143.08043      7009.6104      80897.271    
     50700   303.18317     -25954.817     -26095.233      140.41598      7412.6044      80897.271    
     50800   309.72166     -25956.096     -26099.54       143.44421      7331.2425      80897.271    
     50900   305.38842     -25961.134     -26102.572      141.43732      7081.8066      80897.271    
     51000   305.49909     -25963.871     -26105.36       141.48858      7050.1105      80897.271    
     51100   294.35072     -25967.076     -26103.401      136.32533      6983.5711      80897.271    
     51200   298.29348     -25966.774     -26104.926      138.15137      6958.3301      80897.271    
     51300   298.7874      -25963.599     -26101.979      138.38013      7090.0425      80897.271    
     51400   300.86528     -25960.709     -26100.052      139.34247      7083.4253      80897.271    
     51500   304.70353     -25961.476     -26102.596      141.12012      7175.0649      80897.271    
     51600   299.23795     -25963.199     -26101.788      138.5888       7109.9123      80897.271    
     51700   301.4819      -25963.929     -26103.557      139.62805      6992.2756      80897.271    
     51800   295.0639      -25965.481     -26102.136      136.65563      7047.4261      80897.271    
     51900   301.43662     -25965.251     -26104.858      139.60709      7078.0036      80897.271    
     52000   294.45319     -25965.549     -26101.922      136.37279      7031.3348      80897.271    
     52100   311.11528     -25962.293     -26106.383      144.08965      6951.3309      80897.271    
     52200   295.22231     -25963.13      -26099.859      136.72899      7180.9726      80897.271    
     52300   299.75086     -25963.802     -26102.628      138.82634      7130.3289      80897.271    
     52400   297.12409     -25966.825     -26104.435      137.60978      6898.3159      80897.271    
     52500   299.88798     -25968.804     -26107.694      138.88985      6836.9146      80897.271    
     52600   295.75996     -25967.993     -26104.971      136.978        6843.9847      80897.271    
     52700   297.61919     -25962.159     -26099.998      137.83908      7212.9451      80897.271    
     52800   305.18496     -25960.876     -26102.219      141.34309      7135.4912      80897.271    
     52900   303.07266     -25963.586     -26103.951      140.3648       6981.3257      80897.271    
     53000   300.10231     -25965.678     -26104.667      138.98911      6917.4617      80897.271    
     53100   291.97258     -25966.767     -26101.991      135.22392      7137.1552      80897.271    
     53200   305.19521     -25963.965     -26105.313      141.34783      7118.2268      80897.271    
     53300   303.72965     -25960.48      -26101.149      140.66908      7088.5512      80897.271    
     53400   305.53731     -25959.609     -26101.115      141.50627      7191.2499      80897.271    
     53500   301.1051      -25963.289     -26102.743      139.45354      7187.2623      80897.271    
     53600   299.39173     -25966.953     -26105.613      138.66002      6948.125       80897.271    
     53700   297.18863     -25966.779     -26104.419      137.63967      7093.8447      80897.271    
     53800   300.75709     -25963.952     -26103.244      139.29237      7022.9363      80897.271    
     53900   300.0904      -25961.057     -26100.04       138.9836       7200.0686      80897.271    
     54000   303.16615     -25960.922     -26101.33       140.4081       7098.0129      80897.271    
     54100   305.48044     -25963.583     -26105.063      141.47994      6971.3311      80897.271    
     54200   300.72744     -25964.178     -26103.457      139.27864      7023.0469      80897.271    
     54300   294.6206      -25965.146     -26101.596      136.45032      7142.1498      80897.271    
     54400   295.6711      -25965.05      -26101.986      136.93685      7124.6156      80897.271    
     54500   309.4702      -25962.192     -26105.519      143.32775      6995.7573      80897.271    
     54600   303.99372     -25962.058     -26102.849      140.79138      6963.3033      80897.271    
     54700   299.86577     -25965.068     -26103.948      138.87956      7112.8281      80897.271    
     54800   293.90882     -25968.326     -26104.447      136.12067      6961.6178      80897.271    
     54900   301.61691     -25966.667     -26106.358      139.69058      6953.0434      80897.271    
     55000   300.61187     -25964.172     -26103.397      139.22511      7055.8167      80897.271    
     55100   304.74763     -25959.406     -26100.547      141.14054      7194.0653      80897.271    
     55200   306.84955     -25958.364     -26100.478      142.11402      7219.178       80897.271    
     55300   300.27492     -25961.299     -26100.368      139.06905      7232.011       80897.271    
     55400   299.91775     -25964.547     -26103.451      138.90364      7024.6237      80897.271    
     55500   297.46248     -25966.31      -26104.076      137.7665       6965.164       80897.271    
     55600   299.45787     -25965.649     -26104.34       138.69065      7006.0149      80897.271    
     55700   300.53215     -25962.686     -26101.874      139.18819      7094.0355      80897.271    
     55800   306.25905     -25958.749     -26100.59       141.84054      7139.4665      80897.271    
     55900   304.5871      -25959.866     -26100.932      141.06619      7239.5331      80897.271    
     56000   300.98196     -25963.908     -26103.305      139.39651      6978.1455      80897.271    
     56100   300.59726     -25965.033     -26104.251      139.21834      7050.0498      80897.271    
     56200   300.30997     -25965.376     -26104.462      139.08529      7005.5574      80897.271    
     56300   300.13996     -25964.935     -26103.941      139.00655      7017.6506      80897.271    
     56400   302.09922     -25962.504     -26102.418      139.91396      7119.2497      80897.271    
     56500   304.51668     -25959.847     -26100.88       141.03358      7179.4722      80897.271    
     56600   302.82586     -25960.972     -26101.223      140.2505       7100.2695      80897.271    
     56700   301.78167     -25966.148     -26105.915      139.76689      6974.0447      80897.271    
     56800   298.28853     -25966.795     -26104.944      138.14908      7043.8968      80897.271    
     56900   300.61832     -25965.122     -26104.35       139.2281       7077.3171      80897.271    
     57000   300.15864     -25963.946     -26102.961      139.0152       7048.9658      80897.271    
     57100   307.9697      -25960.122     -26102.754      142.63281      7092.9629      80897.271    
     57200   302.7328      -25959.478     -26099.685      140.2074       7222.5669      80897.271    
     57300   297.84436     -25962.786     -26100.729      137.94337      7153.1797      80897.271    
     57400   302.03413     -25964.552     -26104.436      139.88381      7047.3368      80897.271    
     57500   301.58885     -25964.752     -26104.43       139.67759      6968.5538      80897.271    
     57600   295.26802     -25965.179     -26101.929      136.75016      6981.2989      80897.271    
     57700   305.59167     -25963.669     -26105.2        141.53145      7117.3944      80897.271    
     57800   298.64442     -25960.991     -26099.305      138.31391      7138.1219      80897.271    
     57900   310.22334     -25958.171     -26101.848      143.67656      7167.092       80897.271    
     58000   301.97039     -25961.36      -26101.214      139.8543       7152.9312      80897.271    
     58100   302.47637     -25964.177     -26104.265      140.08863      7046.5566      80897.271    
     58200   299.47746     -25966.405     -26105.104      138.69972      6965.1427      80897.271    
     58300   296.4         -25966.433     -26103.708      137.27443      7039.027       80897.271    
     58400   301.27371     -25964.387     -26103.918      139.53163      7031.7785      80897.271    
     58500   296.76608     -25963.796     -26101.24       137.44398      7129.9418      80897.271    
     58600   307.00169     -25963.039     -26105.223      142.18449      6989.7196      80897.271    
     58700   302.64329     -25964.071     -26104.237      140.16594      7012.5183      80897.271    
     58800   298.84769     -25964.046     -26102.454      138.40805      7009.144       80897.271    
     58900   297.13628     -25964.763     -26102.379      137.61543      6964.3474      80897.271    
     59000   296.50294     -25965.121     -26102.443      137.3221       7050.6383      80897.271    
     59100   306.93716     -25961.949     -26104.104      142.1546       7025.9917      80897.271    
     59200   302.11926     -25960.197     -26100.12       139.92324      7240.7073      80897.271    
     59300   306.36262     -25958.101     -26099.99       141.88851      7335.2644      80897.271    
     59400   298.61258     -25962.65      -26100.949      138.29916      7163.9         80897.271    
     59500   304.00679     -25965.001     -26105.798      140.79743      6972.333       80897.271    
     59600   299.34104     -25966.582     -26105.218      138.63654      7016.6668      80897.271    
     59700   293.20717     -25966.462     -26102.258      135.7957       6988.3946      80897.271    
     59800   304.25232     -25961.736     -26102.647      140.91115      7064.2706      80897.271    
     59900   307.49762     -25960.477     -26102.891      142.41417      7086.126       80897.271    
     60000   303.03338     -25961.737     -26102.084      140.34661      7146.073       80897.271    
     60100   302.45766     -25964.188     -26104.268      140.07997      7090.3404      80897.271    
     60200   295.13111     -25965.333     -26102.02       136.68676      7116.275       80897.271    
     60300   300.38018     -25964.697     -26103.815      139.11781      7062.5031      80897.271    
     60400   304.7942      -25964.155     -26105.317      141.16211      6961.9912      80897.271    
     60500   303.49961     -25962.326     -26102.889      140.56254      7043.0119      80897.271    
     60600   302.27394     -25960.314     -26100.309      139.99488      7251.9238      80897.271    
     60700   296.87457     -25962.509     -26100.003      137.49422      7146.0324      80897.271    
     60800   306.57929     -25965.238     -26107.227      141.98886      6950.0926      80897.271    
     60900   297.37369     -25968.505     -26106.231      137.72538      6981.4673      80897.271    
     61000   293.25185     -25967.968     -26103.785      135.8164       7025.4549      80897.271    
     61100   299.78742     -25966.042     -26104.885      138.84328      6982.3052      80897.271    
     61200   294.4844      -25964.87      -26101.257      136.38724      7060.4605      80897.271    
     61300   304.68598     -25962.612     -26103.724      141.11199      7154.5562      80897.271    
     61400   299.83242     -25962.491     -26101.355      138.86412      7161.4786      80897.271    
     61500   295.40328     -25964.787     -26101.6        136.81281      7210.9849      80897.271    
     61600   295.28816     -25969.652     -26106.411      136.75949      6953.3963      80897.271    
     61700   300.27224     -25967.751     -26106.819      139.06782      6966.2058      80897.271    
     61800   298.99643     -25964.295     -26102.772      138.47694      7047.3118      80897.271    
     61900   298.28356     -25962.816     -26100.963      138.14678      7156.5973      80897.271    
     62000   302.48188     -25963.446     -26103.537      140.09118      7114.4122      80897.271    
     62100   300.32243     -25965.878     -26104.969      139.09106      7059.5031      80897.271    
     62200   296.11614     -25968.726     -26105.869      137.14296      6949.4367      80897.271    
     62300   293.67125     -25971.559     -26107.57       136.01064      6812.5872      80897.271    
     62400   299.06255     -25968.844     -26107.351      138.50756      6986.8971      80897.271    
     62500   290.84797     -25965.283     -26099.986      134.70306      7127.289       80897.271    
     62600   301.50616     -25962.732     -26102.372      139.63929      7153.7786      80897.271    
     62700   307.98076     -25962.527     -26105.164      142.63793      6962.1759      80897.271    
     62800   300.80777     -25964.965     -26104.281      139.31584      7066.0348      80897.271    
     62900   295.23877     -25968.203     -26104.94       136.73662      6963.7694      80897.271    
     63000   289.49448     -25971.489     -26105.565      134.07621      6963.231       80897.271    
     63100   299.50943     -25967.883     -26106.598      138.71453      6988.4841      80897.271    
     63200   299.87023     -25963.702     -26102.584      138.88163      7216.0524      80897.271    
     63300   303.04146     -25962.432     -26102.782      140.35035      7133.9674      80897.271    
     63400   296.50666     -25963.769     -26101.093      137.32383      7204.2476      80897.271    
     63500   297.36567     -25966.057     -26103.778      137.72167      7122.6675      80897.271    
     63600   295.51745     -25968.75      -26105.616      136.86569      6955.0304      80897.271    
     63700   300.92489     -25968.552     -26107.922      139.37008      6907.0723      80897.271    
     63800   299.45078     -25964.684     -26103.372      138.68737      7144.2244      80897.271    
     63900   303.86192     -25961.455     -26102.185      140.73034      7127.522       80897.271    
     64000   303.66124     -25960.895     -26101.533      140.63739      7225.4353      80897.271    
     64100   299.15998     -25963.532     -26102.085      138.55269      7168.4006      80897.271    
     64200   293.3117      -25967.169     -26103.013      135.84411      7064.6524      80897.271    
     64300   300.84955     -25966.623     -26105.958      139.33519      6987.5904      80897.271    
     64400   299.82377     -25964.821     -26103.681      138.86011      6992.0814      80897.271    
     64500   300.99231     -25962.369     -26101.771      139.40131      7266.6446      80897.271    
     64600   301.1881      -25962.643     -26102.135      139.49198      7211.8161      80897.271    
     64700   296.80188     -25963.154     -26100.614      137.46056      7174.9885      80897.271    
     64800   306.83502     -25963.217     -26105.324      142.1073       7196.4208      80897.271    
     64900   297.00644     -25966.132     -26103.687      137.55529      6975.9033      80897.271    
     65000   298.49088     -25966.682     -26104.925      138.2428       7073.1481      80897.271    
     65100   297.54986     -25965.058     -26102.865      137.80698      6952.647       80897.271    
     65200   304.50846     -25960.262     -26101.292      141.02977      7220.8215      80897.271    
     65300   307.88269     -25959.935     -26102.527      142.59251      7240.8236      80897.271    
     65400   294.4497      -25964.302     -26100.673      136.37117      7217.6497      80897.271    
     65500   303.55244     -25964.663     -26105.25       140.587        7108.8461      80897.271    
     65600   300.1815      -25966.175     -26105.201      139.02579      7014.1607      80897.271    
     65700   294.078       -25968.256     -26104.455      136.19902      7068.1885      80897.271    
     65800   295.19652     -25966.749     -26103.466      136.71705      7156.7756      80897.271    
     65900   303.66559     -25962.368     -26103.008      140.63941      7116.6826      80897.271    
     66000   302.45982     -25961.491     -26101.572      140.08097      7084.5524      80897.271    
     66100   300.68567     -25963.055     -26102.315      139.25929      7156.7145      80897.271    
     66200   297.78011     -25966.741     -26104.654      137.91361      6997.4518      80897.271    
     66300   291.45281     -25969.893     -26104.877      134.98319      7010.6509      80897.271    
     66400   305.1418      -25967.014     -26108.338      141.3231       6973.7393      80897.271    
     66500   291.54306     -25964.331     -26099.356      135.02499      7273.685       80897.271    
     66600   305.36287     -25962.283     -26103.708      141.42548      7190.7581      80897.271    
     66700   303.07072     -25963.09      -26103.454      140.3639       7232.5873      80897.271    
     66800   294.24729     -25966.058     -26102.335      136.27742      7053.236       80897.271    
     66900   298.25491     -25967.211     -26105.344      138.13351      6997.4044      80897.271    
     67000   292.33603     -25967.774     -26103.166      135.39225      7033.8825      80897.271    
     67100   305.37413     -25964.043     -26105.474      141.4307       7120.7593      80897.271    
     67200   300.36859     -25961.936     -26101.049      139.11244      7159.7129      80897.271    
     67300   310.11101     -25959.851     -26103.476      143.62454      7228.2871      80897.271    
     67400   297.06563     -25964.011     -26101.593      137.58271      7164.4016      80897.271    
     67500   295.94233     -25965.523     -26102.585      137.06246      7118.2085      80897.271    
     67600   302.69991     -25965.383     -26105.575      140.19216      6977.6625      80897.271    
     67700   299.658       -25966.091     -26104.875      138.78333      6920.4394      80897.271    
     67800   300.26495     -25963.408     -26102.473      139.06444      7233.5274      80897.271    
     67900   301.96729     -25960.315     -26100.168      139.85286      7173.8022      80897.271    
     68000   304.1889      -25961.178     -26102.06       140.88177      7048.5483      80897.271    
     68100   302.68792     -25964.355     -26104.542      140.18661      7011.9636      80897.271    
     68200   292.72635     -25969.543     -26105.116      135.57302      6987.3388      80897.271    
     68300   297.21616     -25968.15      -26105.803      137.65243      6994.0285      80897.271    
     68400   301.20393     -25964.603     -26104.102      139.49932      7025.3623      80897.271    
     68500   299.5518      -25962.749     -26101.483      138.73415      7206.0741      80897.271    
     68600   303.93501     -25961.962     -26102.726      140.76419      7044.0076      80897.271    
     68700   302.71447     -25963.875     -26104.074      140.19891      7086.9489      80897.271    
     68800   300.12656     -25968.465     -26107.465      139.00034      6864.9338      80897.271    
     68900   287.57499     -25969.924     -26103.111      133.18722      7097.3452      80897.271    
     69000   296.66813     -25966.473     -26103.872      137.39861      7025.6744      80897.271    
     69100   302.68047     -25964.511     -26104.695      140.18316      7022.4868      80897.271    
     69200   298.67262     -25963.625     -26101.952      138.32697      7143.4418      80897.271    
     69300   304.99377     -25961.703     -26102.958      141.25454      7202.1125      80897.271    
     69400   297.29754     -25964.281     -26101.971      137.69012      7183.9464      80897.271    
     69500   296.92939     -25967.714     -26105.234      137.51961      6927.7828      80897.271    
     69600   298.25642     -25967.258     -26105.392      138.13421      6988.0886      80897.271    
     69700   300.17253     -25963.636     -26102.658      139.02163      7070.5659      80897.271    
     69800   303.08457     -25961.346     -26101.716      140.37032      7136.7215      80897.271    
     69900   301.26012     -25962.565     -26102.09       139.52534      7167.977       80897.271    
     70000   300.3875      -25963.999     -26103.12       139.1212       7122.006       80897.271    
     70100   297.17384     -25966.28      -26103.913      137.63283      7088.8012      80897.271    
     70200   294.49397     -25970.63      -26107.022      136.39167      6925.9783      80897.271    
     70300   288.53528     -25972.767     -26106.399      133.63197      6898.3549      80897.271    
     70400   293.65298     -25966.999     -26103.001      136.00218      7175.48        80897.271    
     70500   300.9474      -25964.307     -26103.687      139.38051      6998.3575      80897.271    
     70600   303.02975     -25962.294     -26102.639      140.34492      7182.9097      80897.271    
     70700   303.53569     -25961.591     -26102.171      140.57925      7225.7545      80897.271    
     70800   297.34412     -25964.532     -26102.243      137.71169      7058.0427      80897.271    
     70900   301.77709     -25967.351     -26107.116      139.76477      6963.0553      80897.271    
     71000   291.95867     -25969.293     -26104.511      135.21748      6972.7546      80897.271    
     71100   301.72165     -25964.263     -26104.002      139.73909      7143.2332      80897.271    
     71200   301.08634     -25960.772     -26100.217      139.44486      7217.1924      80897.271    
     71300   301.08897     -25961.681     -26101.127      139.44607      7253.3376      80897.271    
     71400   300.21603     -25964.474     -26103.516      139.04178      7027.5434      80897.271    
     71500   297.32101     -25967.206     -26104.907      137.70099      7054.6814      80897.271    
     71600   293.4319      -25968.038     -26103.938      135.89978      7021.5248      80897.271    
     71700   298.77211     -25963.515     -26101.888      138.37304      7227.1727      80897.271    
     71800   305.54639     -25959.877     -26101.388      141.51048      7184.5225      80897.271    
     71900   304.96945     -25960.651     -26101.894      141.24328      7229.7492      80897.271    
     72000   300.81871     -25964.338     -26103.659      139.32091      7053.877       80897.271    
     72100   295.27105     -25966.868     -26103.62       136.75157      7151.1925      80897.271    
     72200   301.20181     -25965.737     -26105.236      139.49833      7016.8418      80897.271    
     72300   299.42464     -25964.588     -26103.264      138.67526      7123.1997      80897.271    
     72400   308.61149     -25960.728     -26103.658      142.93005      7079.6967      80897.271    
     72500   302.91972     -25957.565     -26097.859      140.29397      7365.1929      80897.271    
     72600   301.20998     -25959.682     -26099.184      139.50212      7356.793       80897.271    
     72700   308.62827     -25962.736     -26105.674      142.93782      6956.01        80897.271    
     72800   295.48082     -25965.316     -26102.165      136.84872      7114.2426      80897.271    
     72900   300.60818     -25965.329     -26104.553      139.2234       7043.7444      80897.271    
     73000   300.68769     -25964.646     -26103.906      139.26023      7034.7163      80897.271    
     73100   301.36241     -25962.411     -26101.984      139.57272      7156.607       80897.271    
     73200   305.94265     -25959.452     -26101.146      141.694        7189.4306      80897.271    
     73300   303.69642     -25959.704     -26100.357      140.65369      7329.4158      80897.271    
     73400   296.69635     -25965.327     -26102.739      137.41168      6979.103       80897.271    
     73500   297.28995     -25966.132     -26103.819      137.6866       7089.9556      80897.271    
     73600   301.3907      -25965.433     -26105.019      139.58582      6992.0792      80897.271    
     73700   297.74753     -25963.917     -26101.816      137.89852      7112.9715      80897.271    
     73800   304.97301     -25960.607     -26101.852      141.24493      7234.2997      80897.271    
     73900   301.18017     -25961.424     -26100.913      139.48831      7071.6547      80897.271    
     74000   299.77247     -25966.48      -26105.317      138.83635      6992.7721      80897.271    
     74100   292.61658     -25969.066     -26104.588      135.52218      6925.2463      80897.271    
     74200   300.09068     -25965.722     -26104.705      138.98373      6942.0862      80897.271    
     74300   298.29683     -25963.983     -26102.136      138.15293      7113.3159      80897.271    
     74400   301.13648     -25962.949     -26102.417      139.46808      7101.2905      80897.271    
     74500   302.97371     -25961.47      -26101.789      140.31897      7170.8228      80897.271    
     74600   306.55782     -25960.608     -26102.587      141.97891      7146.8538      80897.271    
     74700   295.96409     -25964.216     -26101.289      137.07254      7128.3071      80897.271    
     74800   304.8863      -25965.874     -26107.079      141.20477      6964.3094      80897.271    
     74900   291.70807     -25969.152     -26104.253      135.10141      6998.958       80897.271    
     75000   300.15692     -25966.975     -26105.989      139.01441      6922.4374      80897.271    
     75100   295.08109     -25964.875     -26101.538      136.66359      7128.537       80897.271    
     75200   298.66091     -25964.26      -26102.582      138.32155      7107.7313      80897.271    
     75300   301.68703     -25963.99      -26103.713      139.72306      7066.6296      80897.271    
     75400   302.13093     -25963.804     -26103.733      139.92865      7147.8002      80897.271    
[...]
    181800   299.86943     -25965.584     -26104.465      138.88126      7014.8588      80897.271    
    181900   300.5675      -25962.346     -26101.55       139.20456      7118.8342      80897.271    
    182000   301.2322      -25960.792     -26100.305      139.51241      7230.7758      80897.271    
    182100   297.87273     -25962.872     -26100.828      137.95651      7218.1824      80897.271    
    182200   300.77339     -25967.796     -26107.096      139.29992      6905.9821      80897.271    
    182300   296.96318     -25968.955     -26106.491      137.53526      6873.7942      80897.271    
    182400   295.35344     -25967.332     -26104.122      136.78973      7018.759       80897.271    
    182500   297.16518     -25964.452     -26102.081      137.62882      7135.775       80897.271    
    182600   298.2214      -25963.271     -26101.389      138.11799      7177.6151      80897.271    
    182700   303.60721     -25962.576     -26103.189      140.61237      7140.7951      80897.271    
    182800   301.57598     -25963.46      -26103.131      139.67163      7037.595       80897.271    
    182900   297.4774      -25965.29      -26103.063      137.77341      7032.6954      80897.271    
    183000   298.47277     -25966.997     -26105.232      138.23441      7088.4551      80897.271    
    183100   293.36237     -25972.03      -26107.898      135.86758      6931.1464      80897.271    
    183200   297.18218     -25970.172     -26107.809      137.63669      6848.5677      80897.271    
    183300   296.49275     -25965.61      -26102.927      137.31739      7098.6259      80897.271    
    183400   296.64227     -25964.289     -26101.676      137.38663      7133.7919      80897.271    
    183500   303.01028     -25963.54      -26103.876      140.33591      7145.4841      80897.271    
    183600   300.26065     -25963.614     -26102.676      139.06245      7040.4699      80897.271    
    183700   301.53137     -25964.218     -26103.869      139.65097      7000.213       80897.271    
    183800   297.55908     -25966.234     -26104.045      137.81125      6999.487       80897.271    
    183900   292.26164     -25967.804     -26103.162      135.35779      7016.4109      80897.271    
    184000   300.04122     -25966.581     -26105.541      138.96082      7010.1645      80897.271    
    184100   302.76418     -25962.459     -26102.681      140.22193      7146.5859      80897.271    
    184200   301.99962     -25960.922     -26100.79       139.86783      7233.1011      80897.271    
    184300   304.87408     -25961.603     -26102.802      141.19911      7131.1419      80897.271    
    184400   297.68535     -25966.256     -26104.126      137.86973      6992.545       80897.271    
    184500   297.70731     -25967.005     -26104.885      137.8799       7048.9601      80897.271    
    184600   303.01867     -25965.288     -26105.628      140.33979      6958.9966      80897.271    
    184700   297.13482     -25964.14      -26101.755      137.61475      7116.3665      80897.271    
    184800   304.23975     -25961.035     -26101.941      140.90533      7171.1799      80897.271    
    184900   305.68393     -25960.701     -26102.275      141.57418      7103.8734      80897.271    
    185000   301.38874     -25965.197     -26104.782      139.58491      6977.5174      80897.271    
    185100   293.61452     -25967.882     -26103.866      135.98437      6985.6612      80897.271    
    185200   297.9521      -25965.998     -26103.991      137.99327      7000.6373      80897.271    
    185300   300.09395     -25963.892     -26102.877      138.98524      7120.6078      80897.271    
    185400   304.51916     -25962.775     -26103.81       141.03473      7113.8571      80897.271    
    185500   295.27126     -25964.32      -26101.072      136.75167      7144.167       80897.271    
    185600   298.33862     -25967.401     -26105.573      138.17228      6989.9105      80897.271    
    185700   294.47682     -25969.37      -26105.754      136.38373      6928.722       80897.271    
    185800   299.53233     -25965.743     -26104.468      138.72513      7135.6232      80897.271    
    185900   299.34651     -25963.038     -26101.677      138.63907      7123.6103      80897.271    
    186000   301.18587     -25962.468     -26101.959      139.49095      7224.4822      80897.271    
    186100   300.20202     -25963.798     -26102.833      139.0353       7119.5343      80897.271    
    186200   296.56834     -25967.556     -26104.908      137.35239      6980.0977      80897.271    
    186300   296.0812      -25969.244     -26106.371      137.12678      6914.7864      80897.271    
    186400   299.03861     -25964.873     -26103.37       138.49647      7103.8434      80897.271    
    186500   302.66433     -25960.93      -26101.105      140.17568      7158.3459      80897.271    
    186600   302.68607     -25961.6       -26101.785      140.18575      7242.8417      80897.271    
    186700   302.2287      -25964.28      -26104.254      139.97393      7083.4282      80897.271    
    186800   296.01523     -25967.62      -26104.716      137.09623      6970.8107      80897.271    
    186900   296.3415      -25967.411     -26104.658      137.24734      7005.8447      80897.271    
    187000   299.59024     -25965.622     -26104.374      138.75195      7084.6578      80897.271    
    187100   297.65068     -25964.764     -26102.618      137.85367      7009.3386      80897.271    
    187200   299.54867     -25963.902     -26102.635      138.7327       7169.3463      80897.271    
    187300   307.35897     -25963.431     -26105.781      142.34995      6985.2738      80897.271    
    187400   292.57553     -25966.804     -26102.308      135.50317      7064.296       80897.271    
    187500   296.12065     -25968.789     -26105.934      137.14505      6997.6464      80897.271    
    187600   293.37082     -25968.729     -26104.6        135.8715       6937.5863      80897.271    
    187700   299.79841     -25963.604     -26102.452      138.84837      7142.3258      80897.271    
    187800   299.58266     -25962.249     -26100.997      138.74844      7179.7484      80897.271    
    187900   307.15393     -25962.665     -26104.92       142.255        7071.6723      80897.271    
    188000   297.47695     -25966.031     -26103.804      137.7732       7022.3049      80897.271    
    188100   293.36397     -25967.263     -26103.131      135.86833      7075.9005      80897.271    
    188200   297.08427     -25966.052     -26103.643      137.59134      6990.8423      80897.271    
    188300   303.94687     -25962.15      -26102.919      140.76968      7106.7774      80897.271    
    188400   304.17771     -25961.142     -26102.018      140.87659      7168.2579      80897.271    
    188500   299.04182     -25963.856     -26102.354      138.49796      7131.8803      80897.271    
    188600   296.52446     -25966.648     -26103.98       137.33207      7034.4598      80897.271    
    188700   296.77041     -25967.96      -26105.406      137.44598      7003.1719      80897.271    
    188800   298.39259     -25968.194     -26106.392      138.19728      7014.2526      80897.271    
    188900   302.39267     -25964.416     -26104.466      140.04987      7067.8921      80897.271    
    189000   303.14885     -25962.091     -26102.491      140.40009      7169.2594      80897.271    
    189100   297.89084     -25962.598     -26100.562      137.96489      7130.6183      80897.271    
    189200   302.015       -25963.916     -26103.791      139.87496      7077.83        80897.271    
    189300   301.91443     -25967.577     -26107.405      139.82838      6984.4627      80897.271    
    189400   292.63029     -25969.429     -26104.958      135.52853      6990.8985      80897.271    
    189500   296.41696     -25966.53      -26103.813      137.28228      7026.8571      80897.271    
    189600   296.37472     -25965.051     -26102.314      137.26272      7135.9822      80897.271    
    189700   306.87301     -25963.535     -26105.66       142.12489      7016.0473      80897.271    
    189800   299.37286     -25964.176     -26102.827      138.65128      7172.2021      80897.271    
    189900   299.53376     -25964.941     -26103.667      138.7258       7074.1232      80897.271    
    190000   299.65536     -25966.662     -26105.444      138.78211      7031.6563      80897.271    
    190100   290.32916     -25968.35      -26102.813      134.46279      7128.7715      80897.271    
    190200   300.43163     -25966.129     -26105.271      139.14164      7030.1786      80897.271    
    190300   304.81869     -25961.899     -26103.073      141.17345      7181.9967      80897.271    
    190400   304.99444     -25960.461     -26101.716      141.25485      7155.3618      80897.271    
    190500   299.50741     -25962.68      -26101.394      138.71359      7100.352       80897.271    
    190600   302.26773     -25964.584     -26104.576      139.992        7044.623       80897.271    
    190700   296.76396     -25965.92      -26103.363      137.44299      7124.7126      80897.271    
    190800   299.16773     -25964.985     -26103.541      138.55627      7032.6146      80897.271    
    190900   304.47527     -25964.157     -26105.171      141.0144       7045.1207      80897.271    
    191000   298.83569     -25964.596     -26102.998      138.40249      7056.312       80897.271    
    191100   298.37881     -25964.286     -26102.477      138.19089      7133.8291      80897.271    
    191200   297.94125     -25964.754     -26102.742      137.98824      7141.3721      80897.271    
    191300   295.9966      -25964.955     -26102.043      137.0876       7181.7257      80897.271    
    191400   305.32054     -25964.063     -26105.469      141.40588      7071.0986      80897.271    
    191500   298.11486     -25964.948     -26103.016      138.06865      7034.256       80897.271    
    191600   297.60633     -25964.38      -26102.213      137.83313      7153.219       80897.271    
    191700   297.8203      -25962.582     -26100.515      137.93223      7229.5911      80897.271    
    191800   303.75789     -25961.455     -26102.138      140.68215      7197.8318      80897.271    
    191900   305.73475     -25963.652     -26105.25       141.59772      7027.1759      80897.271    
    192000   291.9491      -25968.242     -26103.455      135.21304      7028.5746      80897.271    
    192100   293.59502     -25966.916     -26102.891      135.97533      7142.5062      80897.271    
    192200   300.12911     -25963.938     -26102.94       139.00153      7192.5604      80897.271    
    192300   306.92488     -25962.306     -26104.455      142.14891      7120.9915      80897.271    
    192400   301.88824     -25963.351     -26103.168      139.81625      7156.381       80897.271    
    192500   293.64574     -25965.681     -26101.68       135.99882      7048.3237      80897.271    
    192600   305.48886     -25965.168     -26106.652      141.48384      7064.8774      80897.271    
    192700   298.22365     -25962.967     -26101.086      138.11903      7193.2539      80897.271    
    192800   303.34753     -25960.273     -26100.765      140.4921       7243.4643      80897.271    
    192900   305.81485     -25961.557     -26103.192      141.63481      7221.425       80897.271    
    193000   301.01236     -25964.406     -26103.816      139.41059      7076.6666      80897.271    
    193100   295.16385     -25966.373     -26103.075      136.70192      7111.4286      80897.271    
    193200   298.79659     -25967.44      -26105.824      138.38438      6924.5869      80897.271    
    193300   302.08846     -25965.941     -26105.85       139.90898      7100.2644      80897.271    
    193400   290.72306     -25963.322     -26097.967      134.64521      7263.008       80897.271    
    193500   309.52911     -25959.972     -26103.327      143.35503      7152.165       80897.271    
    193600   305.2456      -25961.582     -26102.954      141.37117      7174.1968      80897.271    
    193700   297.7875      -25964.421     -26102.338      137.91703      7250.0436      80897.271    
    193800   300.13836     -25964.742     -26103.747      139.00581      7153.3672      80897.271    
    193900   297.10442     -25965.542     -26103.142      137.60068      7070.853       80897.271    
    194000   302.53092     -25964.775     -26104.889      140.1139       7027.9911      80897.271    
    194100   302.49314     -25961.015     -26101.112      140.0964       7214.1342      80897.271    
    194200   305.90913     -25958.295     -26099.974      141.67848      7335.4219      80897.271    
    194300   303.94561     -25960.669     -26101.438      140.7691       7199.6883      80897.271    
    194400   298.4392      -25965.062     -26103.281      138.21886      7205.0371      80897.271    
    194500   300.05466     -25965.76      -26104.727      138.96705      7108.9309      80897.271    
    194600   298.41397     -25965.67      -26103.878      138.20718      7094.3845      80897.271    
    194700   305.30949     -25962.857     -26104.258      141.40076      7143.6356      80897.271    
    194800   301.35528     -25961.331     -26100.901      139.56941      7215.8027      80897.271    
    194900   298.74547     -25961.549     -26099.91       138.36071      7238.927       80897.271    
    195000   300.73046     -25964.073     -26103.353      139.28003      7173.5839      80897.271    
    195100   293.14371     -25967.867     -26103.633      135.76631      7093.9389      80897.271    
    195200   300.38308     -25966.788     -26105.907      139.11915      7050.4227      80897.271    
    195300   300.16496     -25963.766     -26102.784      139.01813      7079.2637      80897.271    
    195400   302.70854     -25961.481     -26101.677      140.19616      7261.0181      80897.271    
    195500   299.7884      -25962.122     -26100.966      138.84373      7274.6221      80897.271    
    195600   303.09891     -25963.164     -26103.541      140.37696      7149.0343      80897.271    
    195700   298.31263     -25964.164     -26102.324      138.16024      7168.6785      80897.271    
    195800   303.02825     -25963.969     -26104.314      140.34423      7057.4832      80897.271    
    195900   294.58052     -25966.384     -26102.815      136.43176      7158.3351      80897.271    
    196000   294.39512     -25969.197     -26105.543      136.34589      6950.8135      80897.271    
    196100   298.48807     -25968.345     -26106.587      138.2415       6897.1121      80897.271    
    196200   300.15623     -25963.257     -26102.271      139.01409      7143.5557      80897.271    
    196300   293.90813     -25961.867     -26097.987      136.12035      7328.8319      80897.271    
    196400   310.31441     -25961.353     -26105.072      143.71874      7031.1982      80897.271    
    196500   299.24178     -25965.111     -26103.702      138.59057      7013.0963      80897.271    
    196600   298.80696     -25964.972     -26103.361      138.38918      7178.0392      80897.271    
    196700   296.01904     -25964.817     -26101.915      137.09799      7102.4882      80897.271    
    196800   299.32244     -25963.728     -26102.356      138.62793      7090.737       80897.271    
    196900   310.87743     -25959.281     -26103.26       143.97949      7182.3413      80897.271    
    197000   301.87271     -25959.513     -26099.322      139.80905      7186.6839      80897.271    
    197100   303.56504     -25963.557     -26104.15       140.59284      7112.9764      80897.271    
    197200   293.68593     -25967.407     -26103.425      136.01744      7061.4108      80897.271    
    197300   296.5715      -25966.385     -26103.739      137.35386      7085.6613      80897.271    
    197400   302.43902     -25963.914     -26103.986      140.07134      7146.5317      80897.271    
    197500   300.83886     -25961.61      -26100.941      139.33024      7169.6892      80897.271    
    197600   307.11816     -25958.866     -26101.104      142.23843      7173.609       80897.271    
    197700   301.88512     -25962.165     -26101.98       139.8148       7174.8085      80897.271    
    197800   293.23457     -25966.778     -26102.586      135.80839      7064.4074      80897.271    
    197900   300.49108     -25966.567     -26105.736      139.16917      7036.4398      80897.271    
    198000   301.90161     -25965.111     -26104.934      139.82244      7004.0363      80897.271    
    198100   303.58335     -25961.672     -26102.273      140.60132      7122.6993      80897.271    
    198200   302.61459     -25960.646     -26100.799      140.15265      7151.4404      80897.271    
    198300   297.73465     -25963.385     -26101.277      137.89256      7170.2234      80897.271    
    198400   299.80455     -25968.862     -26107.713      138.85121      6918.9212      80897.271    
    198500   295.53402     -25968.677     -26105.55       136.87336      6958.2955      80897.271    
    198600   298.86923     -25965.517     -26103.935      138.41803      7086.8095      80897.271    
    198700   295.95937     -25963.28      -26100.35       137.07035      7070.7981      80897.271    
    198800   305.68349     -25961.574     -26103.148      141.57398      7150.7597      80897.271    
    198900   306.05736     -25962.206     -26103.953      141.74713      7077.907       80897.271    
    199000   295.07057     -25964.412     -26101.071      136.65872      7114.7401      80897.271    
    199100   301.68388     -25964.835     -26104.557      139.7216       6991.4312      80897.271    
    199200   305.33059     -25963.936     -26105.346      141.41053      7007.1867      80897.271    
    199300   294.76627     -25964.039     -26100.557      136.51779      7206.282       80897.271    
    199400   297.72732     -25964.805     -26102.694      137.88916      7139.7943      80897.271    
    199500   298.31261     -25967.09      -26105.25       138.16023      7025.1885      80897.271    
    199600   297.23939     -25968.036     -26105.699      137.66318      7052.5327      80897.271    
    199700   300.35413     -25965.129     -26104.235      139.10574      7008.4877      80897.271    
    199800   306.50971     -25961.642     -26103.599      141.95663      7101.2601      80897.271    
    199900   290.15888     -25962.396     -26096.78       134.38392      7265.6871      80897.271    
    200000   308.22531     -25961.942     -26104.693      142.75119      7120.4975      80897.271    
Loop time of 11765.2 on 20 procs for 200000 steps with 3584 atoms

Performance: 1.469 ns/day, 16.341 hours/ns, 16.999 timesteps/s, 60.925 katom-step/s
99.9% CPU use with 20 MPI tasks x 1 OpenMP threads

MPI task timing breakdown:
Section |  min time  |  avg time  |  max time  |%varavg| %total
---------------------------------------------------------------
Pair    | 9551.5     | 10708      | 11481      | 688.3 | 91.02
Neigh   | 114.39     | 131.21     | 142.22     |  85.3 |  1.12
Comm    | 96.045     | 885.04     | 2081.3     |2469.9 |  7.52
Output  | 0.30313    | 0.3477     | 0.40544    |   4.6 |  0.00
Modify  | 5.2535     | 39.504     | 57.816     | 234.7 |  0.34
Other   |            | 0.9054     |            |       |  0.01

Nlocal:          179.2 ave         192 max         160 min
Histogram: 4 0 0 0 3 5 0 0 0 8
Nghost:        1121.75 ave        1212 max        1082 min
Histogram: 8 0 7 1 0 0 0 0 0 4
Neighs:              0 ave           0 max           0 min
Histogram: 20 0 0 0 0 0 0 0 0 0
FullNghs:      10235.5 ave       10991 max        9125 min
Histogram: 4 0 0 0 4 4 0 0 0 8

Total # of neighbors = 204710
Ave neighs/atom = 57.117746
Neighbor list builds = 200000
Dangerous builds not checked
Total wall time: 3:16:05
