LAMMPS (27 Jun 2024)
OMP_NUM_THREADS environment is not set. Defaulting to 1 thread. (src/comm.cpp:98)
  using 1 OpenMP thread(s) per MPI task
Reading data file ...
  orthogonal box = (0 0 0) to (22.422218 22.19224 20.321894)
  5 by 2 by 2 MPI processor grid
  reading atoms ...
  448 atoms
  read_data CPU = 0.005 seconds
**************** Begin of POD Potentials ****************
species: Hf 
periodic boundary conditions: 1 1 1
number of environment clusters: 8
number of principal compoments: 2
inner cut-off radius: 1
outer cut-off radius: 5
cut-off function type: 1
gaussian_exponents: 
polynomial_degrees: 
bessel polynomial degree: 4
inverse polynomial degree: 10
one-body potential: 1
two-body radial basis functions: 8
three-body radial basis functions: 8
three-body angular degree: 6
four-body radial basis functions: 7
four-body angular degree: 5
five-body radial basis functions: 0
five-body angular degree: 0
six-body radial basis functions: 0
six-body angular degree: 0
seven-body radial basis functions: 0
seven-body angular degree: 0
number of local descriptors per element for one-body potential: 1
number of local descriptors per element for two-body potential: 8
number of local descriptors per element for three-body potential: 56
number of local descriptors per element for four-body potential: 112
number of local descriptors per element for five-body potential: 0
number of local descriptors per element for six-body potential: 0
number of local descriptors per element for seven-body potential: 0
number of local descriptors per element for all potentials: 177
number of global descriptors: 1409
**************** End of POD Potentials ****************

**************** Begin of Model Coefficients ****************
total number of coefficients for POD potential: 1409
total number of elements for PCA projection matrix: 352
total number of elements for PCA centroids: 16
**************** End of Model Coefficients ****************


CITE-CITE-CITE-CITE-CITE-CITE-CITE-CITE-CITE-CITE-CITE-CITE-CITE

Your simulation uses code contributions which should be cited:
- Type Label Framework: https://doi.org/10.1021/acs.jpcb.3c08419
The log file lists these citations in BibTeX format.

CITE-CITE-CITE-CITE-CITE-CITE-CITE-CITE-CITE-CITE-CITE-CITE-CITE

Neighbor list info ...
  update: every = 1 steps, delay = 0 steps, check = no
  max neighbors/atom: 2000, page size: 100000
  master list distance cutoff = 7
  ghost atom cutoff = 7
  binsize = 3.5, bins = 7 7 6
  1 neighbor lists, perpetual/occasional/extra = 1 0 0
  (1) pair pod, perpetual
      attributes: full, newton on
      pair build: full/bin/atomonly
      stencil: full/bin/3d
      bin: standard
Setting up Verlet run ...
  Unit style    : metal
  Current step  : 0
  Time step     : 0.001
Per MPI rank memory allocation (min/avg/max) = 2.586 | 2.586 | 2.586 Mbytes
   Step          Temp          TotEng         PotEng         KinEng         Press          Volume    
         0   300           -3263.9145     -3281.2483      17.333785      1830.9177      10112.159    
       100   91.403564     -3263.0123     -3268.2935      5.2812326      3957.293       10112.159    
       200   156.5668      -3259.8119     -3268.8582      9.0463176      4504.8064      10112.159    
       300   217.99494     -3255.8748     -3268.4703      12.595592      4895.9794      10112.159    
       400   280.57573     -3251.8425     -3268.054       16.211465      5061.6141      10112.159    
       500   313.86816     -3247.9624     -3266.0975      18.135078      6081.9966      10112.159    
       600   303.86708     -3245.0613     -3262.6186      17.557222      7319.4473      10112.159    
       700   279.44971     -3243.9238     -3260.0702      16.146404      7720.1071      10112.159    
       800   295.84482     -3245.1474     -3262.2411      17.093702      7614.7245      10112.159    
       900   302.95616     -3247.1173     -3264.6219      17.50459       6430.1105      10112.159    
      1000   310.39037     -3248.0289     -3265.9631      17.934134      5999.1871      10112.159    
      1100   295.73186     -3247.6139     -3264.7011      17.087176      6583.4152      10112.159    
      1200   278.46317     -3246.3438     -3262.4332      16.089403      7064.5163      10112.159    
      1300   301.66261     -3245.3476     -3262.7775      17.42985       7155.6743      10112.159    
      1400   320.16765     -3245.4481     -3263.9472      18.499058      6663.6383      10112.159    
      1500   309.37761     -3246.5228     -3264.3984      17.875617      6694.3209      10112.159    
      1600   313.11321     -3247.0457     -3265.1372      18.091457      6600.8032      10112.159    
      1700   268.62415     -3247.4603     -3262.9812      15.520911      7213.6877      10112.159    
      1800   266.17791     -3247.0296     -3262.4092      15.379569      6775.092       10112.159    
      1900   337.63955     -3245.6609     -3265.1695      19.508572      6750.2561      10112.159    
      2000   300.902       -3246.1149     -3263.5008      17.385902      6489.0688      10112.159    
      2100   314.1886      -3246.1838     -3264.3374      18.153593      6854.9165      10112.159    
      2200   288.87116     -3246.651      -3263.3418      16.690769      7045.1316      10112.159    
      2300   255.067       -3246.9803     -3261.7179      14.737589      7174.5853      10112.159    
      2400   333.08657     -3246.1898     -3265.4353      19.245504      6644.184       10112.159    
      2500   286.61585     -3247.2312     -3263.7917      16.560459      6629.8566      10112.159    
      2600   313.55496     -3246.3744     -3264.4913      18.116981      6577.9118      10112.159    
      2700   290.7121      -3246.0829     -3262.88        16.797137      7299.1495      10112.159    
      2800   286.79084     -3246.3791     -3262.9497      16.57057       7032.0683      10112.159    
      2900   300.71676     -3246.9581     -3264.3333      17.375199      6567.4237      10112.159    
      3000   298.38979     -3247.8684     -3265.1091      17.240749      6217.4985      10112.159    
      3100   292.64197     -3247.8303     -3264.739       16.908643      6376.4602      10112.159    
      3200   294.20712     -3246.2723     -3263.2713      16.999077      7173.5076      10112.159    
      3300   295.45802     -3245.5956     -3262.667       17.071353      7313.7595      10112.159    
      3400   305.26331     -3245.5137     -3263.1516      17.637896      6996.7839      10112.159    
      3500   326.88456     -3246.2732     -3265.1604      18.887156      6566.1121      10112.159    
      3600   271.06693     -3247.6818     -3263.3439      15.662053      6683.33        10112.159    
      3700   293.71889     -3247.0607     -3264.0315      16.970867      7014.9072      10112.159    
      3800   293.52691     -3246.4165     -3263.3763      16.959775      6627.5612      10112.159    
      3900   324.86075     -3245.2798     -3264.05        18.770222      6991.8124      10112.159    
      4000   302.29128     -3245.4323     -3262.8985      17.466174      7044.1429      10112.159    
      4100   278.96361     -3247.2212     -3263.3395      16.118318      6854.2352      10112.159    
      4200   292.0546      -3247.482      -3264.3567      16.874706      6572.9795      10112.159    
      4300   296.51723     -3247.0949     -3264.2275      17.132553      6864.9196      10112.159    
      4400   309.43073     -3246.0269     -3263.9055      17.878686      6927.9404      10112.159    
      4500   314.01221     -3245.272      -3263.4154      18.143401      7336.765       10112.159    
      4600   282.36987     -3246.1106     -3262.4257      16.315129      6948.2906      10112.159    
      4700   323.72798     -3246.1632     -3264.868       18.704771      6709.8466      10112.159    
      4800   303.61692     -3246.6409     -3264.1836      17.542768      6860.8586      10112.159    
      4900   295.14883     -3246.6964     -3263.7499      17.053488      6687.8396      10112.159    
      5000   307.89791     -3246.0178     -3263.8079      17.790121      6885.3896      10112.159    
      5100   306.08493     -3245.3618     -3263.0472      17.685369      7219.3171      10112.159    
      5200   305.17362     -3245.9839     -3263.6166      17.632713      6760.5354      10112.159    
      5300   310.19677     -3246.8546     -3264.7775      17.922947      6668.3427      10112.159    
      5400   268.70398     -3247.9752     -3263.5008      15.525524      6634.0438      10112.159    
      5500   305.86703     -3247.0275     -3264.7003      17.672778      6678.2006      10112.159    
      5600   291.76824     -3246.4705     -3263.3287      16.85816       6743.4432      10112.159    
      5700   312.02143     -3245.7475     -3263.7758      18.028375      6738.3258      10112.159    
      5800   311.97105     -3245.6428     -3263.6683      18.025464      6858.4909      10112.159    
      5900   298.35995     -3246.1796     -3263.4186      17.239024      6998.2529      10112.159    
      6000   304.11646     -3246.1966     -3263.7682      17.571631      6765.0187      10112.159    
      6100   298.47587     -3246.196      -3263.4417      17.245723      6990.9926      10112.159    
      6200   308.40092     -3246.3924     -3264.2115      17.819185      6730.2037      10112.159    
      6300   292.49603     -3247.2225     -3264.1227      16.900211      6637.9372      10112.159    
      6400   294.43916     -3247.587      -3264.5995      17.012484      6505.132       10112.159    
      6500   295.73779     -3247.8309     -3264.9184      17.087518      6222.8059      10112.159    
      6600   291.14521     -3246.5722     -3263.3944      16.822162      6915.4826      10112.159    
      6700   292.7975      -3245.5237     -3262.4413      16.91763       7210.2568      10112.159    
      6800   320.21441     -3245.3481     -3263.8499      18.50176       6984.7263      10112.159    
      6900   316.84168     -3246.1854     -3264.4923      18.306885      6634.3404      10112.159    
      7000   267.77849     -3247.7297     -3263.2017      15.47205       6922.061       10112.159    
      7100   305.93119     -3247.3643     -3265.0408      17.676485      6695.6854      10112.159    
      7200   294.90213     -3247.2083     -3264.2476      17.039234      6653.2169      10112.159    
      7300   305.68468     -3246.0781     -3263.7404      17.662242      7039.3275      10112.159    
      7400   302.25861     -3245.4069     -3262.8712      17.464286      7036.7741      10112.159    
      7500   309.69124     -3245.6087     -3263.5024      17.893738      7006.1887      10112.159    
      7600   297.17724     -3246.9258     -3264.0965      17.170689      6695.7842      10112.159    
      7700   303.9533      -3247.6281     -3265.1903      17.562204      6400.7723      10112.159    
      7800   274.17979     -3247.536      -3263.3779      15.841912      6696.8283      10112.159    
      7900   313.08096     -3246.2103     -3264.2999      18.089594      6775.7218      10112.159    
      8000   299.96967     -3246.0904     -3263.4225      17.332033      7127.5297      10112.159    
      8100   289.36068     -3246.2101     -3262.9291      16.719053      7048.8719      10112.159    
      8200   307.90169     -3246.2162     -3264.0065      17.79034       6952.4741      10112.159    
      8300   298.97109     -3247.0827     -3264.357       17.274336      6580.3892      10112.159    
      8400   280.78706     -3247.6838     -3263.9074      16.223675      6935.9726      10112.159    
      8500   296.27355     -3247.2642     -3264.3826      17.118474      6517.9122      10112.159    
      8600   303.593       -3245.6694     -3263.2108      17.541386      7131.0746      10112.159    
      8700   310.9387      -3244.985      -3262.9509      17.965816      7151.2038      10112.159    
      8800   309.50786     -3245.5835     -3263.4667      17.883143      6841.6467      10112.159    
      8900   293.15004     -3246.6011     -3263.5391      16.938         6875.5986      10112.159    
      9000   308.95172     -3246.4986     -3264.3496      17.851009      6810.7848      10112.159    
      9100   293.5413      -3246.7637     -3263.7243      16.960606      6743.8082      10112.159    
      9200   306.14151     -3246.7141     -3264.4027      17.688638      6558.249       10112.159    
      9300   299.53106     -3246.2247     -3263.5314      17.306691      6907.1032      10112.159    
      9400   301.0779      -3245.3814     -3262.7775      17.396066      7145.337       10112.159    
      9500   313.25041     -3245.2464     -3263.3457      18.099385      7032.1838      10112.159    
      9600   307.44814     -3246.4408     -3264.2049      17.764134      6721.7107      10112.159    
      9700   270.93001     -3247.7906     -3263.4448      15.654142      6957.8179      10112.159    
      9800   296.01219     -3247.2452     -3264.3486      17.103373      6635.0346      10112.159    
      9900   311.16412     -3246.4452     -3264.4241      17.978841      6778.6138      10112.159    
     10000   296.11542     -3246.0078     -3263.1172      17.109337      6987.8463      10112.159    
     10100   329.51125     -3244.7239     -3263.7629      19.038924      6942.107       10112.159    
     10200   325.20155     -3243.3423     -3262.1323      18.789913      7611.9684      10112.159    
     10300   316.27567     -3244.2062     -3262.4804      18.274182      7145.2401      10112.159    
     10400   311.73478     -3245.9304     -3263.9422      18.011813      6777.8906      10112.159    
     10500   296.21298     -3246.5375     -3263.6525      17.114974      6754.2496      10112.159    
     10600   307.25033     -3246.9796     -3264.7323      17.752704      6573.194       10112.159    
     10700   292.36626     -3247.368      -3264.2607      16.892714      6429.8931      10112.159    
     10800   291.29218     -3246.565      -3263.3957      16.830654      6752.3888      10112.159    
     10900   305.15134     -3245.0606     -3262.692       17.631426      7178.9161      10112.159    
     11000   335.46044     -3244.0484     -3263.431       19.382664      7237.071       10112.159    
     11100   297.96158     -3244.9228     -3262.1388      17.216007      7182.7895      10112.159    
     11200   314.26854     -3245.7484     -3263.9066      18.158212      6905.6449      10112.159    
     11300   284.45727     -3247.0159     -3263.4516      16.435738      6728.347       10112.159    
     11400   305.51326     -3246.825      -3264.4773      17.652337      6631.2743      10112.159    
     11500   311.59747     -3246.2397     -3264.2436      18.003879      6832.2921      10112.159    
     11600   303.02313     -3245.1561     -3262.6645      17.50846       7179.9978      10112.159    
     11700   317.71623     -3244.0644     -3262.4218      18.357417      7275.7575      10112.159    
     11800   313.41967     -3245.4646     -3263.5737      18.109164      6904.2128      10112.159    
     11900   291.7867      -3246.5711     -3263.4304      16.859227      6953.8096      10112.159    
     12000   307.79549     -3246.4785     -3264.2627      17.784203      6919.6156      10112.159    
     12100   287.37942     -3246.7345     -3263.339       16.604578      6466.7335      10112.159    
     12200   312.48699     -3246.1492     -3264.2045      18.055275      7008.4084      10112.159    
     12300   298.92395     -3245.9916     -3263.2632      17.271612      6976.9188      10112.159    
     12400   297.01188     -3246.3034     -3263.4645      17.161134      6984.9414      10112.159    
     12500   306.51345     -3246.7447     -3264.4548      17.710128      6513.3624      10112.159    
     12600   300.24546     -3247.0915     -3264.4395      17.347968      6686.4866      10112.159    
     12700   290.09783     -3247.5434     -3264.305       16.761645      6411.5741      10112.159    
     12800   288.48771     -3247.4302     -3264.0988      16.668613      6672.9225      10112.159    
     12900   306.5482      -3245.958      -3263.6701      17.712136      6865.5424      10112.159    
     13000   313.83382     -3245.4204     -3263.5535      18.133094      6902.3295      10112.159    
     13100   306.48992     -3245.8396     -3263.5483      17.708768      7002.1253      10112.159    
     13200   285.60775     -3247.216      -3263.7182      16.502212      6483.3652      10112.159    
     13300   295.3764      -3248.2513     -3265.3179      17.066637      6525.7894      10112.159    
     13400   273.44477     -3248.1062     -3263.9056      15.799443      6764.5762      10112.159    
     13500   292.6042      -3247.28       -3264.1865      16.906461      6612.2739      10112.159    
     13600   315.98996     -3246.3921     -3264.6498      18.257674      6637.1658      10112.159    
     13700   288.25886     -3246.1049     -3262.7603      16.65539       7224.8095      10112.159    
     13800   306.88726     -3245.4164     -3263.1481      17.731727      7200.4899      10112.159    
     13900   314.50339     -3245.7415     -3263.9133      18.171781      6866.9131      10112.159    
     14000   288.28818     -3247.2076     -3263.8647      16.657085      6733.7369      10112.159    
     14100   297.71475     -3247.6419     -3264.8436      17.201745      6621.9345      10112.159    
     14200   279.41664     -3247.6062     -3263.7507      16.144494      6872.0523      10112.159    
     14300   291.73326     -3246.1339     -3262.99        16.856139      7041.7174      10112.159    
     14400   301.7804      -3245.6596     -3263.0963      17.436656      7296.7744      10112.159    
     14500   316.35409     -3245.8178     -3264.0965      18.278713      6842.8436      10112.159    
     14600   308.31309     -3246.4914     -3264.3055      17.81411       6776.8018      10112.159    
     14700   290.5318      -3247.1884     -3263.9751      16.78672       6703.2076      10112.159    
     14800   262.79728     -3248.9837     -3264.1679      15.184239      6526.034       10112.159    
     14900   296.33129     -3248.7656     -3265.8875      17.12181       6269.7225      10112.159    
     15000   299.70728     -3247.3145     -3264.6314      17.316872      6488.3573      10112.159    
     15100   285.49932     -3246.4146     -3262.9106      16.495947      7203.1817      10112.159    
     15200   308.90706     -3245.6164     -3263.4648      17.848429      7085.507       10112.159    
     15300   286.93288     -3246.313      -3262.8918      16.578777      7241.8515      10112.159    
     15400   305.2804      -3247.0792     -3264.7181      17.638883      6426.3642      10112.159    
     15500   282.19997     -3248.4488     -3264.7541      16.305312      6252.0138      10112.159    
     15600   274.21945     -3248.9592     -3264.8034      15.844204      6249.5402      10112.159    
     15700   295.88901     -3247.0339     -3264.1302      17.096256      6803.337       10112.159    
     15800   304.067       -3246.0042     -3263.573       17.568774      7066.3289      10112.159    
     15900   315.42026     -3245.5596     -3263.7843      18.224757      6803.3314      10112.159    
     16000   314.66212     -3246.0992     -3264.2802      18.180953      6789.2289      10112.159    
     16100   289.42962     -3247.3572     -3264.0802      16.723037      6665.4336      10112.159    
     16200   282.89484     -3247.6997     -3264.0451      16.345461      6600.9982      10112.159    
     16300   301.37867     -3246.6823     -3264.0958      17.413444      6467.4642      10112.159    
     16400   313.03576     -3244.9363     -3263.0233      18.086982      7073.2568      10112.159    
     16500   304.16355     -3245.2143     -3262.7887      17.574353      7437.9481      10112.159    
     16600   307.22212     -3246.3315     -3264.0826      17.751074      6658.4023      10112.159    
     16700   284.19416     -3247.2493     -3263.6698      16.420536      6993.7907      10112.159    
     16800   296.34281     -3247.1458     -3264.2683      17.122476      6668.996       10112.159    
     16900   300.69893     -3246.6668     -3264.041       17.374169      6884.7789      10112.159    
     17000   311.00427     -3246.1606     -3264.1302      17.969604      6790.7148      10112.159    
     17100   287.10897     -3246.3675     -3262.9565      16.588951      7209.3564      10112.159    
     17200   300.81239     -3246.2272     -3263.608       17.380725      6964.8022      10112.159    
     17300   293.86924     -3246.5989     -3263.5785      16.979554      6980.5482      10112.159    
     17400   297.33411     -3247.3331     -3264.5129      17.179752      6554.8058      10112.159    
     17500   297.20944     -3248.2569     -3265.4294      17.172549      6306.991       10112.159    
     17600   290.06852     -3248.2151     -3264.975       16.759952      6237.4107      10112.159    
     17700   291.23827     -3246.487      -3263.3145      16.827539      7062.9792      10112.159    
     17800   302.39597     -3245.7524     -3263.2246      17.472223      7198.9113      10112.159    
     17900   305.58846     -3246.2185     -3263.8752      17.656683      6768.0823      10112.159    
     18000   304.24314     -3246.7078     -3264.2868      17.578951      6606.4063      10112.159    
     18100   293.68944     -3246.995      -3263.9641      16.969166      6934.7212      10112.159    
     18200   262.14215     -3248.2709     -3263.4172      15.146386      6851.6185      10112.159    
     18300   314.5172      -3247.6367     -3265.8093      18.172579      6507.6015      10112.159    
     18400   294.56902     -3246.6072     -3263.6272      17.019987      6620.8254      10112.159    
     18500   311.71687     -3245.5214     -3263.5322      18.010778      7154.938       10112.159    
     18600   303.32101     -3245.7751     -3263.3008      17.525671      6972.7959      10112.159    
     18700   298.57298     -3246.2437     -3263.495       17.251333      6751.9473      10112.159    
     18800   302.06354     -3247.0515     -3264.5045      17.453015      6563.7426      10112.159    
     18900   286.30587     -3248.3239     -3264.8665      16.542549      6368.0691      10112.159    
     19000   285.72049     -3247.9416     -3264.4503      16.508725      6446.4138      10112.159    
     19100   295.97945     -3245.9483     -3263.0497      17.101481      7138.4615      10112.159    
     19200   305.31591     -3245.6002     -3263.2412      17.640935      6990.5265      10112.159    
     19300   322.14315     -3245.6925     -3264.3057      18.613201      6747.4508      10112.159    
     19400   304.26045     -3246.8227     -3264.4026      17.579951      6733.5265      10112.159    
     19500   282.45498     -3247.9887     -3264.3088      16.320047      6735.6276      10112.159    
     19600   291.26285     -3247.5604     -3264.3893      16.828959      6591.8095      10112.159    
     19700   289.86764     -3247.1411     -3263.8894      16.748345      6932.5849      10112.159    
     19800   297.92209     -3246.4715     -3263.6852      17.213725      6780.5096      10112.159    
     19900   305.58392     -3245.8806     -3263.537       17.65642       6966.6733      10112.159    
     20000   287.42845     -3246.1575     -3262.7649      16.60741       7295.3526      10112.159    
     20100   288.95434     -3247.3318     -3264.0274      16.695575      6644.3011      10112.159    
     20200   306.39147     -3248.0072     -3265.7103      17.70308       6390.2919      10112.159    
     20300   270.31798     -3247.866      -3263.4848      15.618779      6812.8117      10112.159    
     20400   303.47133     -3246.3356     -3263.87        17.534356      7092.7537      10112.159    
     20500   314.54074     -3245.8575     -3264.0314      18.173939      6844.625       10112.159    
     20600   303.65364     -3246.0408     -3263.5857      17.54489       6956.4463      10112.159    
     20700   285.35888     -3247.0628     -3263.5506      16.487832      6726.3074      10112.159    
     20800   270.83836     -3248.3776     -3264.0265      15.648847      6685.9185      10112.159    
     20900   312.37344     -3247.7895     -3265.8382      18.048714      6381.4275      10112.159    
     21000   306.27428     -3245.8007     -3263.497       17.696309      7086.8232      10112.159    
     21100   302.01131     -3245.3293     -3262.7793      17.449997      7161.4344      10112.159    
     21200   316.05741     -3245.9092     -3264.1708      18.261571      6964.5355      10112.159    
     21300   273.8717      -3246.9988     -3262.8229      15.824111      7168.8166      10112.159    
     21400   308.49128     -3246.8106     -3264.635       17.824406      6652.7736      10112.159    
     21500   293.79524     -3246.9312     -3263.9065      16.975279      6661.3082      10112.159    
     21600   315.37646     -3245.4123     -3263.6345      18.222226      7042.73        10112.159    
     21700   296.54805     -3244.9372     -3262.0715      17.134334      7479.6082      10112.159    
     21800   323.7914      -3244.5933     -3263.3018      18.708436      7029.2282      10112.159    
     21900   293.5935      -3246.3224     -3263.2861      16.963622      6894.7822      10112.159    
     22000   304.16716     -3246.9155     -3264.49        17.574561      6752.633       10112.159    
     22100   286.40188     -3247.4504     -3263.9985      16.548096      6666.0689      10112.159    
     22200   306.28001     -3246.9365     -3264.6331      17.69664       6575.9832      10112.159    
     22300   320.59494     -3245.2289     -3263.7527      18.523746      7107.6967      10112.159    
     22400   294.784       -3245.0936     -3262.126       17.032409      7358.2653      10112.159    
     22500   301.89247     -3245.5783     -3263.0215      17.443131      7173.3518      10112.159    
     22600   289.50683     -3247.2824     -3264.0099      16.727498      6653.6265      10112.159    
     22700   295.97227     -3247.4936     -3264.5947      17.101066      6627.1988      10112.159    
     22800   305.6073      -3247.03       -3264.6878      17.657771      6418.7609      10112.159    
     22900   299.0414      -3246.362      -3263.6404      17.278398      6804.967       10112.159    
     23000   309.93577     -3245.321      -3263.2289      17.907867      6987.3963      10112.159    
     23100   302.03985     -3244.727      -3262.1786      17.451646      7504.4731      10112.159    
     23200   327.77589     -3243.8432     -3262.7819      18.938656      7342.2962      10112.159    
     23300   313.9685      -3245.2052     -3263.3461      18.140875      6960.4841      10112.159    
     23400   300.82694     -3246.5304     -3263.9119      17.381565      6933.2139      10112.159    
     23500   286.89921     -3247.3357     -3263.9125      16.576831      6669.8047      10112.159    
     23600   297.90992     -3247.0444     -3264.2575      17.213022      6672.4527      10112.159    
     23700   314.30269     -3246.0654     -3264.2256      18.160185      6680.7005      10112.159    
     23800   301.99544     -3245.0794     -3262.5284      17.44908       7154.456       10112.159    
     23900   333.46565     -3243.618      -3262.8854      19.267407      7300.1931      10112.159    
     24000   304.50805     -3244.7859     -3262.3801      17.594258      7296.9668      10112.159    
     24100   320.60648     -3245.8092     -3264.3336      18.524413      6939.331       10112.159    
     24200   294.35614     -3246.9171     -3263.9248      17.007687      6689.5135      10112.159    
     24300   302.00428     -3246.8478     -3264.2974      17.449591      6767.1374      10112.159    
     24400   288.138       -3246.6438     -3263.2922      16.648408      6931.3684      10112.159    
     24500   307.64588     -3245.2755     -3263.051       17.775559      7041.5782      10112.159    
     24600   329.05717     -3244.3234     -3263.3361      19.012688      7013.6205      10112.159    
     24700   304.04651     -3245.4158     -3262.9834      17.56759       6959.7273      10112.159    
     24800   300.63469     -3246.1941     -3263.5646      17.370457      6654.9073      10112.159    
     24900   289.07745     -3246.783      -3263.4857      16.702688      6879.5854      10112.159    
     25000   297.05624     -3246.7014     -3263.8651      17.163697      6680.963       10112.159    
     25100   323.39858     -3245.8691     -3264.5548      18.685739      6700.6508      10112.159    
     25200   304.06336     -3245.3175     -3262.886       17.568564      7232.5534      10112.159    
     25300   318.89007     -3244.5581     -3262.9834      18.42524       7019.2252      10112.159    
     25400   301.86416     -3245.5648     -3263.0063      17.441495      7053.0704      10112.159    
     25500   300.83634     -3246.9321     -3264.3142      17.382108      6748.1407      10112.159    
     25600   283.60289     -3247.6658     -3264.0521      16.386372      6573.5318      10112.159    
     25700   302.43548     -3246.9971     -3264.4716      17.474506      6382.7294      10112.159    
     25800   285.82708     -3246.4971     -3263.012       16.514885      7159.1346      10112.159    
     25900   305.33759     -3245.9689     -3263.6111      17.642187      6859.548       10112.159    
     26000   305.07387     -3246.0396     -3263.6665      17.62695       6994.6956      10112.159    
     26100   310.02968     -3246.2785     -3264.1918      17.913293      6512.1861      10112.159    
     26200   297.2619      -3246.4854     -3263.661       17.17558       6906.9778      10112.159    
     26300   298.13032     -3246.6827     -3263.9085      17.225757      6547.7088      10112.159    
     26400   298.48372     -3246.7323     -3263.9785      17.246176      6531.1562      10112.159    
     26500   296.59134     -3245.9831     -3263.1199      17.136836      7020.8397      10112.159    
     26600   314.27665     -3244.7913     -3262.95        18.15868       7017.6141      10112.159    
     26700   314.77969     -3245.1243     -3263.3121      18.187745      7027.9339      10112.159    
     26800   288.8593      -3247.3117     -3264.0018      16.690084      6560.2838      10112.159    
     26900   297.38451     -3247.4317     -3264.6144      17.182664      6431.6651      10112.159    
     27000   289.12995     -3246.924      -3263.6297      16.705722      6592.6826      10112.159    
     27100   308.62954     -3245.7598     -3263.5922      17.832394      6893.4739      10112.159    
     27200   300.63465     -3245.2636     -3262.6341      17.370455      7000.204       10112.159    
     27300   320.13579     -3245.23       -3263.7272      18.497217      6731.8951      10112.159    
     27400   296.31293     -3246.9294     -3264.0501      17.120749      6859.0471      10112.159    
     27500   280.96199     -3247.8308     -3264.0646      16.233783      6268.7811      10112.159    
     27600   283.88121     -3247.6643     -3264.0668      16.402453      6574.0845      10112.159    
     27700   311.27406     -3246.067      -3264.0522      17.985193      6731.5943      10112.159    
     27800   306.37287     -3245.7075     -3263.4095      17.702005      6719.446       10112.159    
     27900   304.83723     -3245.945      -3263.5583      17.613277      6875.7807      10112.159    
     28000   297.89635     -3246.7545     -3263.9667      17.212238      6544.3273      10112.159    
     28100   284.65115     -3247.9052     -3264.3521      16.44694       6440.301       10112.159    
     28200   280.66927     -3248.7706     -3264.9874      16.21687       6181.2366      10112.159    
     28300   277.95305     -3248.9963     -3265.0562      16.059928      6194.1232      10112.159    
     28400   288.41564     -3247.1655     -3263.8299      16.664449      6617.7113      10112.159    
     28500   306.69673     -3246.0846     -3263.8053      17.720718      6701.4727      10112.159    
     28600   300.37955     -3245.9246     -3263.2803      17.355716      6961.7795      10112.159    
     28700   298.07036     -3246.358      -3263.5803      17.222292      6716.7525      10112.159    
     28800   288.2211      -3247.4685     -3264.1217      16.653209      6361.0871      10112.159    
     28900   294.94189     -3247.865      -3264.9065      17.041532      6324.8059      10112.159    
     29000   296.92776     -3246.741      -3263.8973      17.156274      6707.117       10112.159    
     29100   299.02187     -3245.2108     -3262.4881      17.27727       7109.5438      10112.159    
     29200   310.49467     -3244.9561     -3262.8963      17.94016       6890.6039      10112.159    
     29300   305.33792     -3246.1039     -3263.7461      17.642207      6641.7138      10112.159    
     29400   295.78517     -3247.0908     -3264.181       17.090255      6632.0176      10112.159    
     29500   288.20482     -3247.0625     -3263.7148      16.652269      6713.5267      10112.159    
     29600   293.03254     -3246.3075     -3263.2387      16.93121       6913.7577      10112.159    
     29700   327.12377     -3245.4055     -3264.3065      18.900977      6856.0248      10112.159    
     29800   293.53765     -3246.2049     -3263.1653      16.960396      6988.9504      10112.159    
     29900   297.3785      -3248.1576     -3265.3399      17.182317      6244.3326      10112.159    
     30000   277.7549      -3249.0921     -3265.1406      16.048479      6306.4025      10112.159    
     30100   285.28523     -3247.7013     -3264.1848      16.483577      6583.9218      10112.159    
     30200   306.64576     -3246.5586     -3264.2763      17.717772      6590.3973      10112.159    
     30300   297.59856     -3246.2255     -3263.4205      17.195032      6739.5415      10112.159    
     30400   311.29765     -3245.5274     -3263.5139      17.986556      6950.6082      10112.159    
     30500   297.11016     -3245.5165     -3262.6833      17.166813      6964.5689      10112.159    
     30600   318.27606     -3246.5402     -3264.93        18.389763      6475.7823      10112.159    
     30700   279.26714     -3248.077      -3264.2129      16.135856      6584.0641      10112.159    
     30800   285.72529     -3247.4598     -3263.9688      16.509003      6736.7319      10112.159    
     30900   283.61635     -3246.4867     -3262.8738      16.38715       6830.3128      10112.159    
     31000   305.06031     -3246.0144     -3263.6406      17.626167      6991.5077      10112.159    
     31100   313.43649     -3245.8885     -3263.9987      18.110136      6767.9391      10112.159    
     31200   291.24182     -3246.3117     -3263.1395      16.827744      6936.4234      10112.159    
     31300   293.46846     -3247.2835     -3264.2399      16.956398      6600.0912      10112.159    
     31400   276.95432     -3248.9164     -3264.9186      16.002222      6234.4282      10112.159    
     31500   293.48846     -3248.0812     -3265.0388      16.957553      6260.9098      10112.159    
     31600   302.23548     -3246.6717     -3264.1347      17.46295       6773.1326      10112.159    
     31700   295.81867     -3245.9415     -3263.0337      17.092191      6889.8239      10112.159    
     31800   287.76383     -3245.775      -3262.4018      16.626788      7285.3352      10112.159    
     31900   294.98947     -3246.3574     -3263.4017      17.044281      6860.8398      10112.159    
     32000   299.18932     -3247.8798     -3265.1668      17.286945      6468.7487      10112.159    
     32100   292.94828     -3248.1479     -3265.0742      16.926342      6191.3112      10112.159    
     32200   288.15625     -3247.5301     -3264.1796      16.649462      6668.3984      10112.159    
     32300   302.73698     -3246.7675     -3264.2594      17.491926      6471.4276      10112.159    
     32400   290.26053     -3246.5782     -3263.3493      16.771046      6862.1579      10112.159    
     32500   300.89022     -3245.9533     -3263.3385      17.385222      6870.4664      10112.159    
     32600   322.36828     -3244.8834     -3263.5096      18.626209      6956.6327      10112.159    
     32700   304.22561     -3245.3823     -3262.9602      17.577938      6951.269       10112.159    
     32800   293.8918      -3247.1347     -3264.1156      16.980858      6702.0575      10112.159    
     32900   276.93451     -3247.7529     -3263.754       16.001078      6560.2071      10112.159    
     33000   301.23266     -3246.8767     -3264.2817      17.405008      6749.1999      10112.159    
     33100   306.16729     -3246.0613     -3263.7514      17.690127      6706.3285      10112.159    
     33200   315.27535     -3245.0455     -3263.2618      18.216384      6910.8263      10112.159    
     33300   319.266       -3243.7965     -3262.2434      18.446961      7354.4579      10112.159    
     33400   296.31059     -3245.2078     -3262.3284      17.120614      7294.6864      10112.159    
     33500   305.71945     -3246.9628     -3264.627       17.664251      6645.368       10112.159    
     33600   287.44453     -3247.433      -3264.0413      16.60834       6627.2449      10112.159    
     33700   318.18439     -3246.4469     -3264.8314      18.384466      6497.878       10112.159    
     33800   298.12024     -3245.7892     -3263.0144      17.225174      6871.4692      10112.159    
     33900   308.81257     -3245.2109     -3263.0539      17.842969      7239.891       10112.159    
     34000   284.577       -3246.7635     -3263.2061      16.442656      6970.5813      10112.159    
     34100   298.3697      -3247.8816     -3265.1212      17.239588      6220.5428      10112.159    
     34200   299.43382     -3247.5606     -3264.8617      17.301072      6327.6554      10112.159    
     34300   294.38102     -3246.6362     -3263.6453      17.009125      6685.0235      10112.159    
     34400   287.09438     -3245.951      -3262.5392      16.588108      7020.6892      10112.159    
     34500   302.89802     -3245.9193     -3263.4205      17.501231      7161.633       10112.159    
     34600   314.97567     -3246.2062     -3264.4052      18.199069      6654.3957      10112.159    
     34700   309.78151     -3246.5086     -3264.4075      17.898954      6603.7471      10112.159    
     34800   284.04828     -3246.6715     -3263.0836      16.412107      6959.8111      10112.159    
     34900   300.01366     -3246.5018     -3263.8363      17.334574      6616.3065      10112.159    
     35000   306.98371     -3246.4178     -3264.1551      17.737299      6597.4629      10112.159    
     35100   298.64862     -3246.5015     -3263.7572      17.255704      6635.8415      10112.159    
     35200   300.60224     -3246.757      -3264.1255      17.368582      6532.4689      10112.159    
     35300   291.26985     -3246.9598     -3263.7892      16.829363      6660.7671      10112.159    
     35400   298.09355     -3246.6322     -3263.8558      17.223632      6848.6311      10112.159    
     35500   304.30178     -3245.9241     -3263.5064      17.582339      6716.3527      10112.159    
     35600   319.25447     -3245.405      -3263.8513      18.446295      6949.2189      10112.159    
     35700   294.84435     -3245.9078     -3262.9437      17.035896      6890.1116      10112.159    
     35800   298.68959     -3247.0965     -3264.3545      17.258071      6703.8356      10112.159    
     35900   287.10252     -3248.01       -3264.5986      16.588579      6313.9002      10112.159    
     36000   288.7569      -3247.5758     -3264.2599      16.684167      6526.3669      10112.159    
     36100   310.91294     -3245.6941     -3263.6584      17.964328      6875.104       10112.159    
     36200   303.81928     -3245.7893     -3263.3437      17.55446       7052.3157      10112.159    
     36300   301.95473     -3246.3397     -3263.7864      17.446729      6735.4615      10112.159    
     36400   282.9617      -3247.3723     -3263.7217      16.349325      6761.7975      10112.159    
     36500   302.40539     -3247.279      -3264.7518      17.472767      6612.9112      10112.159    
     36600   299.77677     -3246.0387     -3263.3596      17.320887      6917.3394      10112.159    
     36700   302.41826     -3244.6056     -3262.0791      17.473511      7318.2334      10112.159    
     36800   322.42075     -3244.8769     -3263.5061      18.62924       7010.1676      10112.159    
     36900   295.53377     -3245.9505     -3263.0262      17.07573       6855.575       10112.159    
     37000   304.70173     -3246.2857     -3263.8911      17.605448      6845.4738      10112.159    
     37100   297.35637     -3246.9155     -3264.0965      17.181039      6688.5913      10112.159    
     37200   289.14084     -3247.8003     -3264.5067      16.706351      6629.6564      10112.159    
     37300   280.94389     -3248.563      -3264.7957      16.232737      6560.3167      10112.159    
     37400   294.63877     -3247.4028     -3264.4268      17.024017      6460.2866      10112.159    
     37500   301.3171      -3245.9851     -3263.395       17.409886      7004.1586      10112.159    
     37600   316.65316     -3245.5518     -3263.8478      18.295993      6682.5532      10112.159    
     37700   303.0446      -3246.0911     -3263.6008      17.509701      6889.7507      10112.159    
     37800   281.62275     -3247.4565     -3263.7285      16.271961      6916.2512      10112.159    
     37900   280.91023     -3248.1801     -3264.4109      16.230792      6583.2312      10112.159    
     38000   294.30321     -3247.3309     -3264.3355      17.004629      6690.8844      10112.159    
     38100   308.97017     -3245.2003     -3263.0524      17.852076      7320.4292      10112.159    
     38200   304.12364     -3245.3375     -3262.9095      17.572047      7222.5975      10112.159    
     38300   300.27695     -3246.2839     -3263.6337      17.349787      6875.5684      10112.159    
     38400   297.2476      -3247.3015     -3264.4763      17.174753      6621.0501      10112.159    
     38500   291.46139     -3247.5668     -3264.4073      16.840431      6373.6367      10112.159    
     38600   294.37324     -3246.3711     -3263.3797      17.008675      6998.875       10112.159    
     38700   311.8611      -3245.1415     -3263.1606      18.019112      7020.7306      10112.159    
     38800   310.16585     -3245.4305     -3263.3516      17.921161      6983.0347      10112.159    
     38900   290.94623     -3246.4314     -3263.2421      16.810665      7027.2237      10112.159    
     39000   299.17541     -3247.0976     -3264.3837      17.286141      6551.9844      10112.159    
     39100   298.12569     -3247.2666     -3264.4921      17.225489      6479.1677      10112.159    
     39200   308.00305     -3245.6929     -3263.4891      17.796196      7105.8685      10112.159    
     39300   297.46902     -3244.7091     -3261.8966      17.187547      7321.9338      10112.159    
     39400   314.99607     -3245.1857     -3263.386       18.200248      6849.2316      10112.159    
     39500   307.96441     -3246.647      -3264.441       17.793963      6585.8082      10112.159    
     39600   284.37785     -3247.2479     -3263.679       16.431149      6678.6552      10112.159    
     39700   288.04582     -3246.6816     -3263.3247      16.643082      6952.4076      10112.159    
     39800   298.95575     -3246.0392     -3263.3127      17.27345       6910.091       10112.159    
     39900   316.65603     -3245.3043     -3263.6004      18.296159      7003.2039      10112.159    
     40000   309.79689     -3244.0876     -3261.9875      17.899843      7409.492       10112.159    
     40100   298.0804      -3245.1949     -3262.4178      17.222872      7064.2556      10112.159    
     40200   314.01176     -3246.0149     -3264.1583      18.143375      6733.8588      10112.159    
     40300   293.40904     -3246.9325     -3263.8855      16.952964      6659.7918      10112.159    
     40400   291.58842     -3247.2709     -3264.1187      16.84777       6355.2973      10112.159    
     40500   301.68435     -3246.7272     -3264.1583      17.431106      6766.2422      10112.159    
     40600   312.03937     -3244.9042     -3262.9337      18.029412      7127.1724      10112.159    
     40700   319.37935     -3244.6272     -3263.0807      18.45351       7133.4048      10112.159    
     40800   300.67197     -3245.728      -3263.1006      17.372612      7167.1959      10112.159    
     40900   306.68258     -3246.5967     -3264.3166      17.7199        6561.7477      10112.159    
     41000   288.58053     -3246.9418     -3263.6158      16.673977      6726.3658      10112.159    
     41100   302.33023     -3246.5459     -3264.0143      17.468425      6899.4501      10112.159    
     41200   316.47976     -3246.1257     -3264.4117      18.285974      6675.9067      10112.159    
     41300   281.38658     -3246.3564     -3262.6147      16.258315      6919.0291      10112.159    
     41400   307.79417     -3246.1227     -3263.9069      17.784127      7002.1918      10112.159    
     41500   290.2257      -3246.501      -3263.27        16.769033      6859.0172      10112.159    
     41600   300.75446     -3246.5972     -3263.9745      17.377378      6680.284       10112.159    
     41700   294.74029     -3246.9389     -3263.9688      17.029883      6882.3914      10112.159    
     41800   305.05624     -3247.0972     -3264.7231      17.625931      6434.3162      10112.159    
     41900   283.78469     -3246.7575     -3263.1544      16.396876      6994.5718      10112.159    
     42000   325.15917     -3245.4031     -3264.1906      18.787464      6598.2816      10112.159    
     42100   304.21946     -3245.2279     -3262.8055      17.577583      7302.4261      10112.159    
     42200   301.28388     -3246.0167     -3263.4246      17.407967      6878.5741      10112.159    
     42300   292.86234     -3247.6734     -3264.5948      16.921377      6638.3811      10112.159    
     42400   298.31117     -3247.6353     -3264.8715      17.236206      6241.2241      10112.159    
     42500   292.97922     -3246.9795     -3263.9076      16.92813       6595.6313      10112.159    
     42600   313.89546     -3245.7155     -3263.8522      18.136655      6511.468       10112.159    
     42700   300.89281     -3245.5231     -3262.9085      17.385371      7174.0243      10112.159    
     42800   293.1268      -3246.046      -3262.9827      16.936657      7016.9539      10112.159    
     42900   315.66174     -3246.4756     -3264.7143      18.23871       6520.6078      10112.159    
     43000   283.02237     -3247.4355     -3263.7883      16.35283       6640.3004      10112.159    
     43100   312.91575     -3246.7558     -3264.8358      18.080048      6602.2587      10112.159    
     43200   302.92574     -3244.7295     -3262.2323      17.502833      7303.8659      10112.159    
     43300   315.36486     -3244.4692     -3262.6908      18.221556      7270.779       10112.159    
     43400   315.39178     -3245.4302     -3263.6533      18.223111      6843.5505      10112.159    
     43500   289.11041     -3246.2582     -3262.9628      16.704593      7106.4779      10112.159    
     43600   303.1007      -3246.4543     -3263.9673      17.512941      6706.9137      10112.159    
     43700   280.42601     -3247.1189     -3263.3217      16.202814      7020.9315      10112.159    
     43800   303.09566     -3247.1188     -3264.6315      17.51265       6432.3181      10112.159    
     43900   305.55794     -3247.0357     -3264.6906      17.654919      6649.5131      10112.159    
     44000   288.44408     -3246.3234     -3262.9895      16.666093      6865.071       10112.159    
     44100   308.53707     -3245.291      -3263.1181      17.827051      7221.3726      10112.159    
     44200   318.31231     -3245.1281     -3263.5199      18.391858      6865.3954      10112.159    
     44300   293.37898     -3246.7694     -3263.7207      16.951228      6930.3289      10112.159    
     44400   287.88093     -3247.5602     -3264.1938      16.633554      6805.1634      10112.159    
     44500   295.854       -3247.3934     -3264.4877      17.094233      6728.9586      10112.159    
     44600   301.87094     -3246.4066     -3263.8485      17.441887      6720.3908      10112.159    
     44700   298.47634     -3245.5369     -3262.7826      17.245749      7328.9505      10112.159    
     44800   306.03135     -3245.8008     -3263.483       17.682273      6837.2508      10112.159    
     44900   301.69964     -3246.5184     -3263.9504      17.43199       6795.9217      10112.159    
     45000   306.08824     -3246.7649     -3264.4504      17.685559      6647.9364      10112.159    
     45100   282.6849      -3247.445      -3263.7784      16.333332      6608.0448      10112.159    
     45200   275.3563      -3248.5162     -3264.4261      15.90989       6480.6762      10112.159    
     45300   293.74802     -3247.6258     -3264.5984      16.97255       6424.9102      10112.159    
     45400   303.29527     -3246.2665     -3263.7907      17.524184      6582.8348      10112.159    
     45500   311.22904     -3245.5634     -3263.546       17.982591      6983.9014      10112.159    
     45600   313.23843     -3245.9188     -3264.0175      18.098692      6745.2788      10112.159    
     45700   275.99107     -3246.9531     -3262.8997      15.946567      6904.8556      10112.159    
     45800   298.84338     -3246.7881     -3264.0551      17.266956      6814.7439      10112.159    
     45900   310.97764     -3246.5422     -3264.5103      17.968066      6536.167       10112.159    
     46000   303.72526     -3246.4392     -3263.9883      17.549028      6662.511       10112.159    
     46100   293.2195      -3245.8875     -3262.8295      16.942013      7203.4926      10112.159    
     46200   324.83979     -3244.8064     -3263.5754      18.769011      6944.4867      10112.159    
     46300   296.90383     -3245.5873     -3262.7422      17.154891      7049.4032      10112.159    
     46400   317.8213      -3246.5627     -3264.9262      18.363488      6359.4151      10112.159    
     46500   283.16915     -3247.438      -3263.7993      16.361311      6559.8536      10112.159    
     46600   295.76353     -3247.1158     -3264.2048      17.089005      6663.5606      10112.159    
     46700   306.71265     -3246.592      -3264.3137      17.721638      6539.0632      10112.159    
     46800   300.82002     -3246.2605     -3263.6417      17.381166      6886.1097      10112.159    
     46900   292.09278     -3246.2329     -3263.1098      16.876912      6891.3187      10112.159    
     47000   308.15796     -3246.2266     -3264.0318      17.805147      6878.9607      10112.159    
     47100   302.55866     -3246.564      -3264.0456      17.481623      6770.9113      10112.159    
     47200   282.32507     -3247.3668     -3263.6793      16.31254       6832.6102      10112.159    
     47300   297.18507     -3248.167      -3265.3381      17.171141      6369.2689      10112.159    
     47400   281.47851     -3247.9734     -3264.237       16.263627      6491.1609      10112.159    
     47500   300.96044     -3246.2062     -3263.5955      17.389279      6942.3275      10112.159    
     47600   306.62228     -3245.6195     -3263.3359      17.716416      6983.0639      10112.159    
     47700   298.69498     -3246.0381     -3263.2965      17.258383      7061.805       10112.159    
     47800   311.07789     -3246.8356     -3264.8095      17.973858      6381.4375      10112.159    
     47900   274.97252     -3248.4718     -3264.3595      15.887716      6563.2912      10112.159    
     48000   285.33443     -3248.1709     -3264.6573      16.486419      6288.263       10112.159    
     48100   291.6087      -3247.5097     -3264.3587      16.848942      6673.762       10112.159    
     48200   298.92371     -3246.6854     -3263.957       17.271598      6513.6486      10112.159    
     48300   305.6725      -3245.9189     -3263.5805      17.661538      6831.9268      10112.159    
     48400   315.90112     -3245.3431     -3263.5956      18.252541      7063.4664      10112.159    
     48500   300.37914     -3245.497      -3262.8527      17.355692      7300.4483      10112.159    
     48600   289.16864     -3247.0706     -3263.7786      16.707957      6850.814       10112.159    
     48700   289.83844     -3247.6497     -3264.3963      16.746658      6637.0006      10112.159    
     48800   303.81734     -3247.153      -3264.7074      17.554348      6551.5429      10112.159    
     48900   306.18035     -3245.802      -3263.4929      17.690882      7026.2222      10112.159    
     49000   310.16347     -3244.8511     -3262.7722      17.921023      7228.5047      10112.159    
     49100   301.97011     -3245.3611     -3262.8087      17.447617      6847.8126      10112.159    
     49200   312.22496     -3245.7111     -3263.7513      18.040135      7097.087       10112.159    
     49300   288.79203     -3246.5548     -3263.241       16.686197      6872.3764      10112.159    
     49400   299.2622      -3246.9367     -3264.2279      17.291156      6766.9662      10112.159    
     49500   298.25721     -3247.4442     -3264.6773      17.233089      6442.6233      10112.159    
     49600   287.59657     -3248.3849     -3265.0021      16.617124      6330.2655      10112.159    
     49700   271.59758     -3248.2564     -3263.9491      15.692714      6504.5583      10112.159    
     49800   307.20937     -3246.5369     -3264.2872      17.750338      6908.3495      10112.159    
     49900   293.82411     -3246.1806     -3263.1575      16.976947      7198.0911      10112.159    
     50000   303.34466     -3245.708      -3263.235       17.527038      7069.74        10112.159    
     50100   311.40031     -3245.9229     -3263.9154      17.992487      7152.5229      10112.159    
     50200   306.71447     -3247.3351     -3265.0569      17.721743      6487.6185      10112.159    
     50300   283.23074     -3247.9311     -3264.2959      16.364869      6723.1024      10112.159    
     50400   293.17531     -3247.1155     -3264.055       16.93946       6739.0164      10112.159    
     50500   304.19158     -3246.5746     -3264.1506      17.575972      7008.5575      10112.159    
     50600   300.45036     -3246.3307     -3263.6905      17.359807      6904.6553      10112.159    
     50700   320.88082     -3245.959      -3264.4992      18.540264      6782.9761      10112.159    
     50800   288.38906     -3246.858      -3263.5209      16.662914      6874.9573      10112.159    
     50900   274.25085     -3248.2815     -3264.1275      15.846018      6710.9621      10112.159    
     51000   302.05253     -3248.1724     -3265.6247      17.452379      6220.9255      10112.159    
     51100   302.39901     -3246.5558     -3264.0282      17.472398      6872.9822      10112.159    
     51200   278.43613     -3246.2665     -3262.3543      16.08784       7291.302       10112.159    
     51300   311.76729     -3245.8289     -3263.8426      18.013691      6991.0826      10112.159    
     51400   308.12767     -3246.2743     -3264.0777      17.803396      6775.2466      10112.159    
     51500   290.47734     -3247.2554     -3264.039       16.783573      6719.4523      10112.159    
     51600   292.46606     -3247.646      -3264.5444      16.89848       6905.9552      10112.159    
     51700   292.06467     -3247.0238     -3263.8991      16.875288      6859.9304      10112.159    
     51800   301.25664     -3245.6612     -3263.0676      17.406393      7351.992       10112.159    
     51900   329.80999     -3245.043      -3264.0992      19.056186      7037.5074      10112.159    
     52000   300.80395     -3245.9183     -3263.2985      17.380237      6925.2451      10112.159    
     52100   289.63421     -3247.5174     -3264.2523      16.734858      6882.703       10112.159    
     52200   286.63399     -3247.6883     -3264.2498      16.561507      6753.4772      10112.159    
     52300   292.99377     -3247.0703     -3263.9992      16.92897       6949.0221      10112.159    
     52400   309.51509     -3246.237      -3264.1205      17.883561      7100.669       10112.159    
     52500   296.12415     -3245.8345     -3262.9443      17.109842      7019.1268      10112.159    
     52600   324.72203     -3244.5706     -3263.3328      18.762206      7351.6207      10112.159    
     52700   303.46646     -3244.3283     -3261.8624      17.534075      7366.4323      10112.159    
     52800   306.42045     -3245.9976     -3263.7023      17.704754      7328.4303      10112.159    
     52900   306.90119     -3246.9534     -3264.686       17.732531      6612.4927      10112.159    
     53000   282.60366     -3247.4172     -3263.7458      16.328637      6854.0498      10112.159    
     53100   311.62752     -3246.4742     -3264.4798      18.005615      6429.966       10112.159    
     53200   295.69263     -3245.8066     -3262.8915      17.084909      7318.0761      10112.159    
     53300   314.06674     -3244.6831     -3262.8297      18.146552      7424.3159      10112.159    
     53400   307.82251     -3243.8965     -3261.6823      17.785764      7820.7031      10112.159    
     53500   307.81946     -3245.6241     -3263.4097      17.785588      6919.7005      10112.159    
     53600   311.67653     -3246.6078     -3264.6162      18.008447      6536.8372      10112.159    
     53700   286.64778     -3247.1902     -3263.7525      16.562304      6758.5775      10112.159    
     53800   287.32071     -3246.8728     -3263.4739      16.601185      6860.0094      10112.159    
     53900   303.83668     -3245.6527     -3263.2081      17.555466      7160.4271      10112.159    
     54000   331.44765     -3244.5889     -3263.7397      19.150808      7069.9363      10112.159    
     54100   307.38231     -3245.6947     -3263.455       17.76033       7108.962       10112.159    
     54200   296.46614     -3246.8217     -3263.9513      17.129601      6842.1695      10112.159    
     54300   296.32886     -3246.9476     -3264.0693      17.12167       6708.5116      10112.159    
     54400   298.02055     -3246.4669     -3263.6863      17.219414      6925.672       10112.159    
     54500   306.6369      -3245.5524     -3263.2697      17.717261      7143.5422      10112.159    
     54600   302.35461     -3245.7276     -3263.1974      17.469833      7253.7401      10112.159    
     54700   289.95549     -3247.5059     -3264.2594      16.753421      6490.5009      10112.159    
     54800   289.10973     -3247.9209     -3264.6255      16.704554      6864.588       10112.159    
     54900   288.06992     -3247.1757     -3263.8201      16.644474      6970.9911      10112.159    
     55000   306.68138     -3246.1994     -3263.9192      17.719831      6939.7973      10112.159    
     55100   312.17212     -3246.1402     -3264.1773      18.037082      6890.0975      10112.159    
     55200   299.71447     -3246.3391     -3263.6564      17.317288      7053.0078      10112.159    
     55300   295.41064     -3246.4354     -3263.504       17.068616      7051.3019      10112.159    
     55400   284.69439     -3247.819      -3264.2684      16.449438      6684.781       10112.159    
     55500   289.18798     -3248.053      -3264.7621      16.709075      6506.8606      10112.159    
     55600   306.10807     -3246.7029     -3264.3896      17.686705      6888.4736      10112.159    
     55700   292.59946     -3246.1418     -3263.048       16.906188      7120.8965      10112.159    
     55800   318.72566     -3245.7174     -3264.1331      18.415741      6981.3848      10112.159    
     55900   290.82394     -3246.7487     -3263.5523      16.803599      6850.2469      10112.159    
     56000   291.09131     -3248.3456     -3265.1647      16.819048      6616.1893      10112.159    
     56100   283.03747     -3248.395      -3264.7487      16.353703      6515.4225      10112.159    
     56200   289.62811     -3247.658      -3264.3925      16.734505      6912.474       10112.159    
     56300   308.84852     -3246.6134     -3264.4584      17.845046      6958.6188      10112.159    
     56400   289.37994     -3246.1977     -3262.9179      16.720166      7259.1921      10112.159    
     56500   321.02319     -3245.3853     -3263.9338      18.54849       7051.8838      10112.159    
     56600   301.04539     -3245.9459     -3263.3401      17.394187      7183.7098      10112.159    
     56700   283.67323     -3247.5543     -3263.9447      16.390437      6868.7044      10112.159    
     56800   282.22557     -3247.7961     -3264.1029      16.306792      6936.5126      10112.159    
     56900   312.26366     -3246.7513     -3264.7936      18.042371      6632.9791      10112.159    
     57000   288.9122      -3246.1414     -3262.8345      16.69314       7348.4453      10112.159    
     57100   307.23009     -3245.9093     -3263.6608      17.751535      7039.3441      10112.159    
     57200   306.13937     -3246.0927     -3263.7812      17.688514      7116.4654      10112.159    
     57300   305.24442     -3246.5878     -3264.2246      17.636805      6961.1802      10112.159    
     57400   280.59609     -3247.8715     -3264.0841      16.212642      6618.4778      10112.159    
     57500   270.57145     -3248.3723     -3264.0057      15.633425      6899.2504      10112.159    
     57600   310.32946     -3246.4628     -3264.3934      17.930614      6830.9021      10112.159    
     57700   319.44971     -3245.59       -3264.0476      18.457576      7050.4313      10112.159    
     57800   287.62696     -3245.9348     -3262.5537      16.61888       7453.785       10112.159    
     57900   307.31571     -3246.4665     -3264.223       17.756482      6976.5337      10112.159    
     58000   285.58831     -3247.719      -3264.2201      16.501088      6758.9026      10112.159    
     58100   309.15763     -3247.3311     -3265.194       17.862907      6574.5138      10112.159    
     58200   300.81575     -3246.4106     -3263.7915      17.380919      7004.6016      10112.159    
     58300   300.796       -3244.6745     -3262.0543      17.379778      7614.7372      10112.159    
     58400   314.35719     -3244.9041     -3263.0675      18.163334      7647.1794      10112.159    
     58500   309.06325     -3246.0551     -3263.9125      17.857453      6882.9324      10112.159    
     58600   285.65619     -3246.9816     -3263.4866      16.505011      7051.9109      10112.159    
     58700   294.75774     -3246.8687     -3263.8996      17.030892      6965.3747      10112.159    
     58800   305.29605     -3246.5794     -3264.2192      17.639788      6968.2389      10112.159    
     58900   306.45512     -3245.9644     -3263.6712      17.706758      7040.1121      10112.159    
     59000   317.81849     -3244.4816     -3262.845       18.363325      7424.2482      10112.159    
     59100   305.64341     -3244.8875     -3262.5473      17.659858      7597.1092      10112.159    
     59200   294.54001     -3246.7978     -3263.8161      17.018311      7014.7917      10112.159    
     59300   293.71656     -3247.2595     -3264.2302      16.970733      6828.3073      10112.159    
     59400   286.75109     -3246.9793     -3263.5476      16.568273      6840.6241      10112.159    
     59500   321.54203     -3245.8634     -3264.4418      18.578468      6937.3123      10112.159    
     59600   289.79654     -3245.9601     -3262.7044      16.744237      7383.3105      10112.159    
     59700   313.06324     -3245.5285     -3263.617       18.08857       7114.9778      10112.159    
     59800   308.16479     -3245.6068     -3263.4124      17.805541      7178.283       10112.159    
     59900   303.16076     -3246.4215     -3263.9379      17.516412      6939.1814      10112.159    
     60000   288.89321     -3247.3943     -3264.0863      16.692043      6767.1812      10112.159    
     60100   291.2276      -3247.9318     -3264.7588      16.826922      6521.204       10112.159    
     60200   292.6282      -3247.3852     -3264.2931      16.907848      6719.2424      10112.159    
     60300   305.56705     -3245.6881     -3263.3436      17.655446      7094.3915      10112.159    
     60400   306.79071     -3245.5635     -3263.2897      17.726148      7333.8787      10112.159    
     60500   301.61046     -3246.3516     -3263.7785      17.426837      7176.0526      10112.159    
     60600   290.6343      -3247.5042     -3264.2968      16.792642      6948.9394      10112.159    
     60700   279.06103     -3247.7316     -3263.8556      16.123947      6846.6428      10112.159    
     60800   305.12664     -3245.5825     -3263.2125      17.629999      7074.5464      10112.159    
     60900   316.01478     -3245.0771     -3263.3362      18.259108      7193.2566      10112.159    
     61000   312.4378      -3246.0116     -3264.064       18.052432      6940.8949      10112.159    
     61100   298.36297     -3246.9029     -3264.1421      17.239199      6968.7831      10112.159    
     61200   287.99577     -3246.7323     -3263.3725      16.640189      7102.9288      10112.159    
     61300   297.02941     -3246.3263     -3263.4885      17.162147      7050.5842      10112.159    
     61400   314.65001     -3246.2736     -3264.4539      18.180252      6701.4945      10112.159    
     61500   309.18865     -3245.9986     -3263.8633      17.864699      7053.7986      10112.159    
     61600   291.04001     -3246.0962     -3262.9123      16.816083      6996.0735      10112.159    
     61700   303.6329      -3246.0556     -3263.5993      17.543692      7029.4781      10112.159    
     61800   292.72611     -3247.019      -3263.9325      16.913505      6983.1039      10112.159    
     61900   296.2616      -3247.4779     -3264.5957      17.117783      6647.3527      10112.159    
     62000   308.48029     -3246.6475     -3264.4713      17.823771      6918.2656      10112.159    
     62100   305.60884     -3244.9251     -3262.583       17.65786       7115.4571      10112.159    
     62200   313.13408     -3244.7347     -3262.8274      18.092663      7209.6852      10112.159    
     62300   310.6351      -3245.6606     -3263.6089      17.948274      6939.7583      10112.159    
     62400   303.23253     -3246.3533     -3263.8738      17.520559      7036.5659      10112.159    
     62500   293.76843     -3246.7612     -3263.7349      16.97373       6894.2094      10112.159    
     62600   295.71933     -3246.8449     -3263.9314      17.086451      6616.763       10112.159    
     62700   311.41698     -3246.2822     -3264.2757      17.99345       6826.6603      10112.159    
     62800   302.31062     -3245.7049     -3263.1722      17.467292      7038.3461      10112.159    
     62900   300.24825     -3245.5342     -3262.8824      17.348129      7150.4466      10112.159    
     63000   317.02877     -3245.919      -3264.2367      18.317696      6998.4076      10112.159    
     63100   291.25776     -3247.2711     -3264.0998      16.828665      6632.0633      10112.159    
     63200   291.8151      -3247.6046     -3264.4654      16.860868      6703.7636      10112.159    
     63300   296.54285     -3246.7416     -3263.8757      17.134034      6759.0339      10112.159    
     63400   313.08407     -3245.2017     -3263.2915      18.089774      7246.8314      10112.159    
     63500   310.64333     -3245.3757     -3263.3245      17.948749      7052.2672      10112.159    
     63600   309.91944     -3246.3934     -3264.3003      17.906924      6787.5608      10112.159    
     63700   285.34921     -3247.32       -3263.8072      16.487273      6945.2283      10112.159    
     63800   286.5901      -3247.2463     -3263.8053      16.558971      6699.9041      10112.159    
     63900   309.44284     -3246.3707     -3264.2501      17.879386      6961.4969      10112.159    
     64000   316.3719      -3246.1331     -3264.4128      18.279742      6866.7969      10112.159    
     64100   282.31167     -3246.6941     -3263.0059      16.311766      6918.1256      10112.159    
     64200   294.71038     -3246.6074     -3263.6355      17.028155      6936.8382      10112.159    
     64300   318.63106     -3245.8295     -3264.2398      18.410275      6826.6762      10112.159    
     64400   312.54486     -3244.2668     -3262.3254      18.058618      7544.616       10112.159    
     64500   293.66632     -3244.8579     -3261.8257      16.96783       7458.8943      10112.159    
     64600   315.83731     -3245.7129     -3263.9618      18.248854      7108.9737      10112.159    
     64700   301.56313     -3246.3744     -3263.7985      17.424102      6696.003       10112.159    
     64800   303.71265     -3246.7822     -3264.3305      17.5483        6667.7024      10112.159    
     64900   289.98264     -3247.2947     -3264.0497      16.754989      6671.1972      10112.159    
     65000   301.01029     -3246.9842     -3264.3764      17.392159      6694.1554      10112.159    
     65100   296.79194     -3245.9054     -3263.0538      17.148426      7190.4332      10112.159    
     65200   314.15643     -3244.8722     -3263.0239      18.151734      6919.4576      10112.159    
     65300   327.21089     -3245.1794     -3264.0855      18.906011      7098.3182      10112.159    
     65400   303.55522     -3246.7142     -3264.2534      17.539204      6658.0131      10112.159    
     65500   281.41383     -3247.0779     -3263.3377      16.25989       6924.4972      10112.159    
     65600   304.65965     -3246.5422     -3264.1452      17.603017      6981.3903      10112.159    
     65700   321.10429     -3245.8383     -3264.3915      18.553176      6733.1067      10112.159    
     65800   296.35096     -3244.8604     -3261.9833      17.122946      7265.4186      10112.159    
     65900   320.25586     -3244.021      -3262.5252      18.504155      7533.5212      10112.159    
     66000   297.24548     -3245.6572     -3262.8319      17.174631      7270.3824      10112.159    
     66100   303.00133     -3246.232      -3263.7392      17.5072        6936.3581      10112.159    
     66200   310.36161     -3246.5269     -3264.4594      17.932472      6594.8919      10112.159    
     66300   292.89464     -3246.9832     -3263.9064      16.923243      6867.2687      10112.159    
     66400   273.66342     -3247.6559     -3263.4679      15.812076      6846.9945      10112.159    
     66500   290.36892     -3247.5885     -3264.3658      16.777309      6629.4586      10112.159    
     66600   312.40607     -3246.1918     -3264.2424      18.050599      6872.1011      10112.159    
     66700   301.60255     -3245.5828     -3263.0092      17.42638       7115.7947      10112.159    
     66800   311.07459     -3245.3261     -3263.2997      17.973667      7148.3146      10112.159    
     66900   289.87454     -3246.7192     -3263.4679      16.748744      6975.4245      10112.159    
     67000   288.10232     -3247.7863     -3264.4327      16.646346      6716.0749      10112.159    
     67100   286.09694     -3247.8129     -3264.3434      16.530476      6758.2811      10112.159    
     67200   316.2199      -3246.4058     -3264.6768      18.270959      6533.3266      10112.159    
     67300   296.43087     -3245.8326     -3262.9601      17.127564      7184.5546      10112.159    
     67400   288.74384     -3245.7417     -3262.4252      16.683413      7346.1765      10112.159    
     67500   307.79771     -3246.1603     -3263.9446      17.784331      6890.6606      10112.159    
     67600   305.49677     -3247.0793     -3264.7307      17.651385      6528.5783      10112.159    
     67700   277.87569     -3247.4807     -3263.5362      16.055459      6730.1781      10112.159    
     67800   296.48056     -3247.0328     -3264.1632      17.130435      6778.9975      10112.159    
     67900   296.50729     -3246.5945     -3263.7265      17.131979      6859.9595      10112.159    
     68000   305.39461     -3245.7735     -3263.419       17.645482      7237.8818      10112.159    
     68100   302.61815     -3245.0525     -3262.5375      17.48506       7012.2698      10112.159    
     68200   332.34041     -3244.7687     -3263.9711      19.202391      7215.1648      10112.159    
     68300   284.98436     -3246.5189     -3262.9851      16.466193      6932.0254      10112.159    
     68400   310.88382     -3246.8033     -3264.766       17.962645      6529.8875      10112.159    
     68500   276.33322     -3247.5301     -3263.4964      15.966336      6701.7098      10112.159    
     68600   319.9798      -3246.5904     -3265.0786      18.488204      6413.7908      10112.159    
     68700   292.3366      -3245.7693     -3262.6603      16.891         7178.2395      10112.159    
     68800   320.30662     -3244.2988     -3262.8059      18.507088      7131.122       10112.159    
     68900   307.89153     -3244.1507     -3261.9404      17.789753      7371.1252      10112.159    
     69000   304.27365     -3246.176      -3263.7567      17.580714      6867.7426      10112.159    
     69100   308.31123     -3247.0494     -3264.8634      17.814002      6461.715       10112.159    
     69200   280.51447     -3247.5519     -3263.7598      16.207925      6713.702       10112.159    
     69300   289.8641      -3246.9095     -3263.6576      16.74814       6636.4472      10112.159    
     69400   316.8203      -3245.6026     -3263.9083      18.30565       6836.521       10112.159    
     69500   323.38189     -3244.7623     -3263.447       18.684774      6954.0325      10112.159    
     69600   291.03469     -3245.4315     -3262.2472      16.815776      7364.5409      10112.159    
     69700   312.75154     -3245.6893     -3263.7599      18.07056       7131.1405      10112.159    
     69800   301.64477     -3246.6479     -3264.0768      17.428819      6686.6331      10112.159    
     69900   285.17408     -3247.4352     -3263.9123      16.477155      6546.4741      10112.159    
     70000   294.61454     -3246.9497     -3263.9723      17.022617      6350.8627      10112.159    
     70100   328.53827     -3245.2374     -3264.2201      18.982706      6840.6753      10112.159    
     70200   295.75459     -3245.1419     -3262.2304      17.088489      7321.0886      10112.159    
     70300   311.72727     -3245.5351     -3263.5464      18.011378      7043.2596      10112.159    
     70400   294.13445     -3246.3955     -3263.3904      16.994878      6963.8061      10112.159    
     70500   311.08234     -3246.5911     -3264.5653      17.974115      6582.8665      10112.159    
     70600   273.16544     -3247.4993     -3263.2826      15.783304      6735.7487      10112.159    
     70700   297.64392     -3246.9603     -3264.158       17.197653      6836.2753      10112.159    
     70800   312.42936     -3245.276      -3263.328       18.051945      7061.5705      10112.159    
     70900   296.76641     -3245.453      -3262.5999      17.146951      7061.0966      10112.159    
     71000   320.75265     -3245.917      -3264.4499      18.532859      6517.5135      10112.159    
     71100   280.3316      -3247.3548     -3263.5522      16.197359      6577.7795      10112.159    
     71200   297.58401     -3247.6067     -3264.8009      17.194191      6383.0788      10112.159    
     71300   294.77375     -3247.3805     -3264.4123      17.031817      6580.2698      10112.159    
     71400   300.28309     -3245.2385     -3262.5887      17.350142      7348.2145      10112.159    
     71500   313.20413     -3244.9353     -3263.032       18.096711      7044.4401      10112.159    
     71600   299.56733     -3246.0517     -3263.3605      17.308786      6991.9107      10112.159    
     71700   302.52664     -3247.0013     -3264.4811      17.479773      6545.7501      10112.159    
     71800   273.43776     -3247.9422     -3263.7412      15.799038      6716.641       10112.159    
     71900   306.31127     -3247.1439     -3264.8423      17.698446      6663.1638      10112.159    
     72000   292.90401     -3246.1986     -3263.1223      16.923784      6796.6337      10112.159    
     72100   316.90618     -3245.3157     -3263.6264      18.310613      6964.3338      10112.159    
     72200   305.54034     -3245.5582     -3263.2121      17.653902      6992.0824      10112.159    
     72300   307.13997     -3246.1827     -3263.9291      17.746328      6943.8213      10112.159    
     72400   288.5798      -3247.3375     -3264.0114      16.673934      6407.6625      10112.159    
     72500   295.01013     -3247.5416     -3264.5871      17.045474      6627.8483      10112.159    
     72600   293.38033     -3246.4711     -3263.4224      16.951306      6721.8453      10112.159    
     72700   311.26451     -3245.0456     -3263.0303      17.984641      7096.2425      10112.159    
     72800   308.12783     -3245.4971     -3263.3005      17.803405      6999.6548      10112.159    
     72900   301.98282     -3246.7756     -3264.2239      17.448351      6821.2053      10112.159    
     73000   292.16444     -3247.1656     -3264.0466      16.881052      6482.3276      10112.159    
     73100   296.4164      -3246.7716     -3263.8984      17.126728      6815.9509      10112.159    
     73200   297.22382     -3246.4481     -3263.6215      17.17338       6793.9449      10112.159    
     73300   296.35236     -3245.4837     -3262.6068      17.123028      7366.1511      10112.159    
     73400   333.6359      -3243.9529     -3263.2301      19.277244      7203.8194      10112.159    
     73500   301.41335     -3245.2188     -3262.6342      17.415448      7319.9832      10112.159    
     73600   296.1999      -3246.2403     -3263.3545      17.114219      6896.1376      10112.159    
     73700   293.90127     -3247.1061     -3264.0875      16.981405      6560.281       10112.159    
     73800   289.31927     -3247.2721     -3263.9888      16.716661      6768.7662      10112.159    
     73900   307.2876      -3246.3725     -3264.1274      17.754858      6661.8155      10112.159    
     74000   300.61023     -3245.5565     -3262.9255      17.369044      7205.3891      10112.159    
     74100   317.62384     -3243.4469     -3261.799       18.352078      7550.0268      10112.159    
     74200   328.64018     -3243.9136     -3262.9022      18.988595      7278.0915      10112.159    
     74300   310.71367     -3245.1716     -3263.1244      17.952814      7123.948       10112.159    
     74400   308.78402     -3246.1975     -3264.0388      17.84132       6601.4905      10112.159    
     74500   290.50632     -3247.1108     -3263.896       16.785248      6563.1308      10112.159    
     74600   303.42013     -3246.995      -3264.5264      17.531398      6791.3242      10112.159    
     74700   295.48119     -3246.3109     -3263.3836      17.072692      7004.7968      10112.159    
     74800   309.18532     -3244.7963     -3262.6608      17.864507      7303.5885      10112.159    
     74900   318.52797     -3244.976      -3263.3803      18.404318      7054.5246      10112.159    
     75000   305.82942     -3246.1195     -3263.7901      17.670605      6824.8113      10112.159    
     75100   297.85816     -3246.7328     -3263.9428      17.210032      6876.1885      10112.159    
     75200   279.55296     -3246.9045     -3263.0568      16.15237       6963.8877      10112.159    
     75300   305.39726     -3246.1221     -3263.7677      17.645635      6964.308       10112.159    
     75400   320.20704     -3245.6175     -3264.1189      18.501334      6734.6813      10112.159    
[...]
    281800   306.86211     -3246.7018     -3264.4321      17.730274      6682.8185      10112.159    
    281900   302.54843     -3245.4419     -3262.923       17.481032      7132.4124      10112.159    
    282000   311.04517     -3245.4477     -3263.4196      17.971967      7079.2362      10112.159    
    282100   295.13133     -3246.2051     -3263.2576      17.052477      6990.9291      10112.159    
    282200   294.19555     -3246.3719     -3263.3703      16.998408      7111.2523      10112.159    
    282300   318.53231     -3246.4246     -3264.8292      18.404569      6711.8444      10112.159    
    282400   296.45193     -3246.7367     -3263.8655      17.128781      6733.0917      10112.159    
    282500   315.69601     -3245.8477     -3264.0884      18.24069       7165.049       10112.159    
    282600   299.35029     -3244.3828     -3261.6791      17.296245      7478.8809      10112.159    
    282700   322.24704     -3243.8141     -3262.4333      18.619203      7337.2453      10112.159    
    282800   327.62488     -3245.5635     -3264.4934      18.929931      6790.8578      10112.159    
    282900   292.44182     -3246.3821     -3263.2792      16.897079      6897.8691      10112.159    
    283000   280.67489     -3246.6428     -3262.86        16.217194      7263.2759      10112.159    
    283100   314.77111     -3246.5704     -3264.7576      18.18725       6588.3829      10112.159    
    283200   290.31544     -3247.0901     -3263.8644      16.774219      6730.5967      10112.159    
    283300   296.69001     -3247.2338     -3264.3763      17.142537      6709.0513      10112.159    
    283400   291.9862      -3246.6705     -3263.5413      16.870754      6831.5877      10112.159    
    283500   297.20084     -3245.4637     -3262.6358      17.172052      7492.2592      10112.159    
    283600   311.4918      -3245.3379     -3263.3356      17.997773      7162.9224      10112.159    
    283700   292.51471     -3246.6371     -3263.5384      16.901291      7200.9374      10112.159    
    283800   299.14691     -3247.5319     -3264.8164      17.284495      6394.6524      10112.159    
    283900   285.51286     -3247.7116     -3264.2084      16.496729      6601.9767      10112.159    
    284000   286.41608     -3247.2016     -3263.7506      16.548916      6786.7571      10112.159    
    284100   292.37224     -3246.4675     -3263.3606      16.893059      6988.2421      10112.159    
    284200   304.48503     -3245.7024     -3263.2953      17.592927      7076.6245      10112.159    
    284300   331.40769     -3245.0534     -3264.2019      19.148499      6823.0248      10112.159    
    284400   288.34692     -3246.3255     -3262.986       16.660479      6978.9244      10112.159    
    284500   276.06057     -3247.6642     -3263.6148      15.950582      6672.9177      10112.159    
    284600   298.48174     -3247.2809     -3264.527       17.246062      6532.3881      10112.159    
    284700   299.77159     -3247.0524     -3264.3729      17.320588      6653.6072      10112.159    
    284800   311.34794     -3246.1258     -3264.1153      17.989461      6804.6719      10112.159    
    284900   299.51744     -3245.7584     -3263.0643      17.305903      7115.412       10112.159    
    285000   285.28894     -3245.9914     -3262.4751      16.483791      6901.866       10112.159    
    285100   311.14934     -3245.8353     -3263.8133      17.977986      6898.5015      10112.159    
    285200   299.46468     -3247.1502     -3264.4531      17.302855      6630.4391      10112.159    
    285300   294.54379     -3248.0369     -3265.0555      17.018529      6317.6346      10112.159    
    285400   284.62007     -3247.6889     -3264.134       16.445144      6640.4044      10112.159    
    285500   295.59832     -3246.6354     -3263.7148      17.07946       6634.0477      10112.159    
    285600   311.88685     -3246.1684     -3264.189       18.020599      6727.5385      10112.159    
    285700   293.06924     -3246.2929     -3263.2262      16.933331      6704.2434      10112.159    
    285800   300.55297     -3245.8714     -3263.2371      17.365736      6955.9145      10112.159    
    285900   311.77513     -3245.1464     -3263.1605      18.014144      7028.9521      10112.159    
    286000   321.11517     -3245.0528     -3263.6066      18.553805      7045.7283      10112.159    
    286100   292.69988     -3246.4178     -3263.3298      16.91199       6728.0852      10112.159    
    286200   292.42527     -3247.1552     -3264.0513      16.896123      6691.06        10112.159    
    286300   295.64148     -3247.1398     -3264.2218      17.081953      6475.3852      10112.159    
    286400   308.19931     -3245.934      -3263.7416      17.807536      6748.758       10112.159    
    286500   314.62365     -3244.2222     -3262.401       18.178729      7089.6874      10112.159    
    286600   314.16764     -3244.5005     -3262.6529      18.152382      7237.3373      10112.159    
    286700   309.05324     -3245.6849     -3263.5418      17.856875      6689.0238      10112.159    
    286800   305.68316     -3246.3888     -3264.0509      17.662155      6700.1699      10112.159    
    286900   288.99549     -3246.9012     -3263.5991      16.697952      6567.7587      10112.159    
    287000   288.09528     -3246.942      -3263.588       16.645939      6779.7197      10112.159    
    287100   311.10937     -3246.1368     -3264.1125      17.975677      6709.6483      10112.159    
    287200   311.23565     -3245.0217     -3263.0047      17.982973      6990.6439      10112.159    
    287300   311.11583     -3244.7984     -3262.7744      17.97605       6963.3686      10112.159    
    287400   299.78849     -3246.3835     -3263.7051      17.321564      6836.786       10112.159    
    287500   289.01893     -3246.976      -3263.6753      16.699307      6628.6045      10112.159    
    287600   295.53178     -3247.001      -3264.0767      17.075615      6525.3395      10112.159    
    287700   292.71404     -3246.9995     -3263.9124      16.912808      6548.3671      10112.159    
    287800   325.06869     -3245.3361     -3264.1183      18.782236      6707.0294      10112.159    
    287900   298.39091     -3245.2049     -3262.4457      17.240813      7040.7308      10112.159    
    288000   304.6362      -3245.682      -3263.2836      17.601662      6907.4184      10112.159    
    288100   312.53056     -3246.4444     -3264.5022      18.057792      6843.2114      10112.159    
    288200   284.61474     -3247.1295     -3263.5743      16.444836      6770.0569      10112.159    
    288300   304.24104     -3246.8094     -3264.3882      17.57883       6450.3177      10112.159    
    288400   300.15272     -3246.5218     -3263.8644      17.34261       6606.7087      10112.159    
    288500   314.76585     -3245.6604     -3263.8473      18.186946      6774.2204      10112.159    
    288600   308.38209     -3245.1188     -3262.9369      17.818096      7170.813       10112.159    
    288700   303.18174     -3245.2294     -3262.747       17.517624      7198.9599      10112.159    
    288800   295.70839     -3246.9388     -3264.0246      17.085819      6688.0634      10112.159    
    288900   301.18508     -3247.5311     -3264.9334      17.402258      6347.537       10112.159    
    289000   290.55722     -3247.2079     -3263.9961      16.788189      6649.3274      10112.159    
    289100   309.59596     -3245.7889     -3263.6771      17.888233      6861.8482      10112.159    
    289200   296.03567     -3245.5787     -3262.6834      17.104729      7108.7201      10112.159    
    289300   311.79269     -3245.8487     -3263.8639      18.015159      6996.9012      10112.159    
    289400   294.23528     -3246.5962     -3263.5969      17.000704      6617.5083      10112.159    
    289500   318.23261     -3246.511      -3264.8983      18.387253      6442.6987      10112.159    
    289600   278.46621     -3246.9237     -3263.0133      16.089579      6934.2875      10112.159    
    289700   295.66273     -3246.415      -3263.4982      17.083181      6947.2563      10112.159    
    289800   318.335       -3245.6408     -3264.034       18.393169      6689.7539      10112.159    
    289900   317.75632     -3244.6276     -3262.9873      18.359733      7182.0065      10112.159    
    290000   315.15177     -3244.2578     -3262.4671      18.209244      7379.3294      10112.159    
    290100   307.17516     -3245.7845     -3263.5328      17.748361      6877.6832      10112.159    
    290200   289.73866     -3246.7652     -3263.5061      16.740892      7012.7335      10112.159    
    290300   296.30496     -3247.1012     -3264.2215      17.120289      6586.8986      10112.159    
    290400   304.60023     -3246.8695     -3264.4691      17.599583      6586.0197      10112.159    
    290500   306.02618     -3245.4228     -3263.1048      17.681974      6800.449       10112.159    
    290600   306.28469     -3244.2872     -3261.9841      17.69691       7644.764       10112.159    
    290700   317.15465     -3244.7511     -3263.0761      18.324969      7034.714       10112.159    
    290800   309.21387     -3246.8983     -3264.7644      17.866156      6456.4309      10112.159    
    290900   296.2432      -3247.3576     -3264.4743      17.11672       6635.0163      10112.159    
    291000   283.55989     -3247.1996     -3263.5835      16.383888      6826.8196      10112.159    
    291100   315.12167     -3245.9316     -3264.1391      18.207505      6803.5088      10112.159    
    291200   312.27018     -3245.4388     -3263.4815      18.042748      7013.4364      10112.159    
    291300   291.05101     -3246.0758     -3262.8925      16.816719      6949.3695      10112.159    
    291400   295.40773     -3247.6982     -3264.7666      17.068447      6425.4666      10112.159    
    291500   285.684       -3248.2942     -3264.8009      16.506617      6242.6625      10112.159    
    291600   286.0155      -3247.7548     -3264.2806      16.525771      6474.3024      10112.159    
    291700   288.15014     -3246.9605     -3263.6096      16.649109      6663.2287      10112.159    
    291800   313.36195     -3246.112      -3264.2178      18.105829      6788.5716      10112.159    
    291900   301.67595     -3246.0797     -3263.5104      17.430621      6880.7855      10112.159    
    292000   284.21947     -3246.6253     -3263.0473      16.421998      6959.4628      10112.159    
    292100   286.60814     -3248.1004     -3264.6604      16.560013      6344.2773      10112.159    
    292200   292.21075     -3248.5419     -3265.4256      16.883728      6245.8818      10112.159    
    292300   289.46621     -3247.3731     -3264.0982      16.725151      6426.7896      10112.159    
    292400   301.39555     -3246.5475     -3263.9619      17.414419      6726.5491      10112.159    
    292500   306.3708      -3246.2012     -3263.9031      17.701886      6930.3507      10112.159    
    292600   289.96505     -3246.1259     -3262.8799      16.753973      7374.3565      10112.159    
    292700   313.9318      -3245.949      -3264.0878      18.138755      6925.6878      10112.159    
    292800   282.97252     -3247.1799     -3263.5299      16.34995       6949.5569      10112.159    
    292900   303.77757     -3247.3777     -3264.9298      17.552051      6411.4675      10112.159    
    293000   292.8293      -3246.9673     -3263.8868      16.919467      6600.8335      10112.159    
    293100   297.33536     -3245.284      -3262.4639      17.179825      7251.2445      10112.159    
    293200   311.80615     -3244.9485     -3262.9645      18.015936      7019.1977      10112.159    
    293300   317.73698     -3245.6782     -3264.0368      18.358615      6646.7905      10112.159    
    293400   302.16125     -3246.5959     -3264.0546      17.458661      6554.7369      10112.159    
    293500   300.7635      -3246.8501     -3264.228       17.3779        6753.4797      10112.159    
    293600   289.53848     -3246.863      -3263.5924      16.729326      6833.9047      10112.159    
    293700   290.44398     -3246.4225     -3263.2041      16.781645      7001.9618      10112.159    
    293800   325.27264     -3245.2213     -3264.0153      18.79402       7001.4293      10112.159    
    293900   332.89772     -3244.0913     -3263.3259      19.234592      7179.7228      10112.159    
    294000   306.191       -3244.081      -3261.7725      17.691497      7493.1879      10112.159    
    294100   296.07731     -3246.0584     -3263.1655      17.107135      6966.273       10112.159    
    294200   310.02262     -3246.6531     -3264.566       17.912885      6667.671       10112.159    
    294300   292.98905     -3247.2855     -3264.2142      16.928698      6493.2526      10112.159    
    294400   292.4633      -3247.0218     -3263.9201      16.89832       6644.7622      10112.159    
    294500   314.74733     -3245.4765     -3263.6623      18.185875      6929.0158      10112.159    
    294600   296.02502     -3245.3575     -3262.4616      17.104114      7064.2625      10112.159    
    294700   311.87023     -3245.7657     -3263.7853      18.019639      6863.6423      10112.159    
    294800   302.5351      -3246.7314     -3264.2117      17.480262      6375.3261      10112.159    
    294900   291.61522     -3246.861      -3263.7103      16.849319      6587.5574      10112.159    
    295000   297.62535     -3246.3015     -3263.498       17.19658       6876.7129      10112.159    
    295100   321.45204     -3245.557      -3264.1303      18.573269      6669.8113      10112.159    
    295200   288.06974     -3246.3094     -3262.9538      16.644463      6935.9897      10112.159    
    295300   290.15028     -3247.4273     -3264.192       16.764676      6544.0938      10112.159    
    295400   287.35145     -3248.4403     -3265.0433      16.602962      6348.5409      10112.159    
    295500   286.02861     -3247.9199     -3264.4464      16.526529      6505.0395      10112.159    
    295600   297.20753     -3246.034      -3263.2064      17.172439      6820.5521      10112.159    
    295700   299.13605     -3245.3881     -3262.6719      17.283867      7104.073       10112.159    
    295800   324.42908     -3245.4331     -3264.1784      18.74528       6619.2225      10112.159    
    295900   292.10842     -3246.7646     -3263.6424      16.877816      6580.6501      10112.159    
    296000   302.50021     -3246.6154     -3264.0937      17.478246      6789.9895      10112.159    
    296100   299.02671     -3246.7456     -3264.0232      17.277549      6584.2818      10112.159    
    296200   290.57172     -3247.1411     -3263.9302      16.789026      6638.2815      10112.159    
    296300   296.02821     -3246.7005     -3263.8048      17.104298      6732.6636      10112.159    
    296400   306.30186     -3245.935      -3263.6329      17.697903      6921.7146      10112.159    
    296500   317.20235     -3245.2587     -3263.5864      18.327725      6990.244       10112.159    
    296600   301.86763     -3245.518      -3262.9597      17.441696      7006.2267      10112.159    
    296700   293.31062     -3246.9984     -3263.9457      16.947278      6518.3915      10112.159    
    296800   295.94162     -3247.7036     -3264.8028      17.099295      6628.6365      10112.159    
    296900   287.83658     -3247.2713     -3263.9022      16.630992      6535.6647      10112.159    
    297000   311.66851     -3245.985      -3263.993       18.007983      6671.7287      10112.159    
    297100   305.84397     -3245.8603     -3263.5317      17.671446      6898.5132      10112.159    
    297200   302.73191     -3246.1106     -3263.6022      17.491633      6971.7196      10112.159    
    297300   291.94559     -3246.7308     -3263.5992      16.868407      6670.3103      10112.159    
    297400   291.47942     -3247.6634     -3264.5049      16.841472      6607.3285      10112.159    
    297500   283.80599     -3248.8844     -3265.2825      16.398107      6231.3653      10112.159    
    297600   277.9443      -3248.4461     -3264.5055      16.059423      6472.9555      10112.159    
    297700   299.3793      -3246.7792     -3264.0771      17.297922      7003.8074      10112.159    
    297800   302.35216     -3246.4041     -3263.8738      17.469692      6608.2009      10112.159    
    297900   304.08565     -3246.0452     -3263.6151      17.569851      6965.1592      10112.159    
    298000   291.12881     -3245.7594     -3262.5806      16.821214      7345.1061      10112.159    
    298100   296.94085     -3245.7862     -3262.9433      17.15703       7146.6922      10112.159    
    298200   311.61544     -3246.5192     -3264.5241      18.004917      6574.3387      10112.159    
    298300   288.93537     -3247.9058     -3264.6003      16.694479      6640.4153      10112.159    
    298400   283.02724     -3247.6851     -3264.0382      16.353112      6652.6155      10112.159    
    298500   305.86798     -3246.4012     -3264.074       17.672833      6866.2386      10112.159    
    298600   296.65555     -3246.0705     -3263.2111      17.140546      7201.849       10112.159    
    298700   304.11222     -3245.8982     -3263.4696      17.571387      7039.8892      10112.159    
    298800   296.09065     -3246.7353     -3263.8432      17.107906      6798.5479      10112.159    
    298900   286.13255     -3248.2423     -3264.7748      16.532534      6541.8198      10112.159    
    299000   285.17523     -3247.944      -3264.4212      16.477221      6336.0705      10112.159    
    299100   297.05694     -3247.1235     -3264.2873      17.163738      6870.1961      10112.159    
    299200   291.66443     -3246.5954     -3263.4476      16.852162      6835.7291      10112.159    
    299300   305.15599     -3245.8466     -3263.4783      17.631695      7087.5376      10112.159    
    299400   312.88526     -3245.441      -3263.5192      18.078287      7133.6881      10112.159    
    299500   289.83245     -3246.137      -3262.8834      16.746312      6957.1935      10112.159    
    299600   288.16609     -3247.4477     -3264.0978      16.650031      6688.4779      10112.159    
    299700   289.16976     -3247.6821     -3264.3901      16.708022      6663.3936      10112.159    
    299800   298.52126     -3246.7678     -3264.0161      17.248345      6682.4413      10112.159    
    299900   306.91256     -3245.1787     -3262.9119      17.733188      7297.9389      10112.159    
    300000   319.1327      -3245.1561     -3263.5953      18.439259      6896.8711      10112.159    
Loop time of 2272.91 on 20 procs for 300000 steps with 448 atoms

Performance: 11.404 ns/day, 2.105 hours/ns, 131.989 timesteps/s, 59.131 katom-step/s
99.9% CPU use with 20 MPI tasks x 1 OpenMP threads

MPI task timing breakdown:
Section |  min time  |  avg time  |  max time  |%varavg| %total
---------------------------------------------------------------
Pair    | 1744.5     | 1999.2     | 2164.5     | 419.5 | 87.96
Neigh   | 20.267     | 28.372     | 34.513     | 120.4 |  1.25
Comm    | 72.871     | 242.16     | 505.16     |1246.5 | 10.65
Output  | 0.35525    | 0.59408    | 0.65867    |   8.1 |  0.03
Modify  | 2.1314     | 2.2969     | 2.525      |   6.7 |  0.10
Other   |            | 0.288      |            |       |  0.01

Nlocal:           22.4 ave          24 max          18 min
Histogram: 3 1 0 0 0 1 3 0 0 12
Nghost:          496.3 ave         522 max         466 min
Histogram: 4 0 0 6 2 0 0 0 0 8
Neighs:              0 ave           0 max           0 min
Histogram: 20 0 0 0 0 0 0 0 0 0
FullNghs:       1280.6 ave        1385 max        1027 min
Histogram: 3 1 0 0 1 0 3 0 0 12

Total # of neighbors = 25612
Ave neighs/atom = 57.169643
Neighbor list builds = 300000
Dangerous builds not checked
Total wall time: 0:37:53
