108
Lattice="10.9559999999999995 0.0000000000000000 0.0000000000000000 0.0000000000000000 10.9559999999999995 0.0000000000000000 0.0000000000000000 0.0000000000000000 10.6289999999999996" Properties=species:S:1:pos:R:3:forces:R:3 stress="32406.4827702104266791 -1517.0352972419152593 6788.8221197487082463 -1517.0352972419152593 19911.5549468310455268 -1075.1696131567298380 6788.8221197487082463 -1075.1696131567298380 22564.8954824189277133" pbc="T T T" energy=-1063.2762233430989909
Hf    1.949842609999999920589175417    1.612389480000000041570729081    2.246311500000000016541434888    0.262884675698826564271826101    2.338821375461280105412242847    4.023002118888575395772022603
Hf    3.231099480000000134793936013    7.291757800000000067086602940   10.610181889999999782503437018    2.368986506366698385761537793    0.261624492356966220629743702   -1.362385705846804961893781183
Hf    5.086749189999999920530626696    5.374359089999999561371168966    2.243068689999999865136715016    0.892248698993172384419381160    1.113931964059902801622570223    0.198802737376117200085445802
Hf    8.926571369999999561173353868    5.120659540000000120585355035    7.824784519999999687911440560    2.310065495752157804787429995    1.553610028873875004151727808    2.797702485957543228067834207
Hf    0.259272100000000005337597031    7.013375589999999881740677665    5.330541819999999653134636901   -0.146914650875337615687499238    5.056507402195385303400598787   -1.980687504433169543460735440
Hf   10.736598759999999685987859266   10.880092780000000018958417058   10.615321330000000443760654889    0.579687695025703053630650174    1.647382221426406445630163944    0.708812370519906975729895748
Hf    7.188178240000000052134510042    3.548039900000000024249402486    5.141905020000000270385953627   -0.946380068872770707777419830   -2.287561471754726571958826753    0.233052058012616941651273805
Hf    7.268007279999999958874923323    7.106965690000000002157776180    5.450533870000000113975602289   -1.596737598500093557873924510   -0.238399340070598375618260434   -0.612044839552146058281323349
Hf    1.649426459999999927674707578    5.283368300000000239435848925    2.643377239999999961383991831   -0.822365232323495565225357495   -0.166637808003938403533794599   -0.803740421060131771113788091
Hf   10.728394910000000450622792414    3.264657810000000104366790765    5.312207639999999564395238849    3.653926559238549032215814805    2.508587539406280875198262947   -3.087585162905712721226336726
Hf   10.823574170000000549407559447    3.635197509999999798679937157    0.193662289999999986944700936    0.057728304724392387470288668    0.407917382543393269855869221   -2.582751292525089503726576368
Hf    1.935424840000000035189486880    5.151987680000000402458226745    7.793367530000000265033577307    0.254702015777219070713499605    1.976021025802066510834720248   -0.854657515093846242848485417
Hf    8.946162779999999870028659643    9.047340889999999191672941379    8.007849059999999852266228118    0.493208435906777431512182375   -0.504622582253916207584154563    0.261102101492343363631221109
Hf    1.709807159999999992550101524    1.689404459999999996711039785    7.930354720000000412483132095    0.503763842994785382423117426    0.562955963649954593819302318    2.458651005682599421930945027
Hf    7.389370719999999614913122059    7.287011009999999622266386723   10.475857899999999389706317743   -2.251537746396949035698753505   -0.460698778056508717604344838    1.121296422075883203461899029
Hf    8.730777129999999885967554292    9.039344870000000753407221055    2.951338380000000150005234900    1.301234443304100540927947804   -0.723374750914160813408670947   -2.808102621544525057117880351
Hf    5.078994640000000337920482707    8.986125330000000133168214234    2.419384029999999796700649313    1.727706747764066408379335371    0.047518892829153919210583013    0.621058427209250862865985710
Hf    5.442605880000000340146470990    9.307152459999999294382178050    7.983922330000000400218596042   -4.836745033816962191508537217   -4.572686415726091802014252607    0.552635899030661903452710249
Hf   10.950757330000000067116161517   10.751653069999999701167325838    5.300467379999999728568127466   -1.408668257107541066375233640    0.660468728338160837587622609   -2.789632022325045923594188935
Hf    3.527675219999999889353148319    3.473559589999999808185293659    5.181676829999999789322373545   -0.841370622336132578666934023   -0.379347604071679556092533403   -1.206644320468002185009481764
Hf   10.953803869999999776041477162    7.294074010000000107822870632   10.325891739999999430210664286   -3.707076386443984183927113918   -2.685578280358361880075790395   -0.732727972414605854822866604
Hf    1.645627900000000032321167964    9.098723429999999723349901615    7.931848419999999677543200960    2.023458081435413724591398932   -0.622334040123769582919521781   -0.691117114848310842845080515
Hf    7.240641379999999571737134829    3.782527120000000131483375299    0.074847079999999996391402135    0.652731945230015320191796491   -3.078643198444217077280882222   -1.644637660127087785966182309
Hf    8.949955629999999828783074918    5.408037069999999779668087285    2.687265660000000000451336746    1.178216928278442043875884337    0.813786546675667965544676008   -0.766910581296037174858781782
Hf    3.823680369999999939523149806    6.990410719999999855645000935    4.813164610000000287470811600   -1.970753472507102976862825017    0.065807445863731217627901060    2.702862262266206183625172343
Hf    3.773733179999999798326371092    0.046673979999999996859383344    0.022074630000000001334159450   -2.968717747291363284745102646   -2.308833064795875689156900989   -0.441654457111405551739125031
Hf    7.199962629999999919050424069    0.072845460000000000766462449    5.242678149999999703823050368    2.278280224624275263067829655   -1.840810052725786016836195813   -1.779257029900152886625619431
Hf    5.669625810000000321053903463    1.624243869999999922981714917    2.625673690000000171096417034   -1.585863930519694875442837656   -1.821407558811993787628580321    1.268285631523335066361823920
Hf    5.349467930000000315260422212    1.725043019999999982516669661    7.581398270000000216839453060    1.691844684647382024422768154    0.653041925441512516314901404    2.028213115655488341104728534
Hf    1.425602280000000110504743134    8.986638729999999242181729642    2.579601010000000194111180463   -1.863544139480242556317080016    3.356962270504359580058917345   -0.787968079662197729007289126
Hf    3.329988769999999931314960122   10.934126239999999441465661221    5.250665520000000086042746261    3.541532844486221964785954697   -1.491888203237200283268748535   -1.166541877728386467083510070
Hf    3.735774800000000173128000824    3.610602720000000154243480210   10.216593100000000760019247537   -2.403570830456359885829442646   -1.079190146997088151081811702   -2.180297424081375279314443105
Hf    7.181718260000000242371243075   10.953563819999999395804479718   10.547285739999999520932760788    3.542859881043340486428405711    1.947668220925019566536207094   -2.061436005764934797923615406
Hf    9.036333499999999574470166408    1.791452480000000013760086404    2.522221519999999994610107024    0.929400671418380341926024357   -0.339018676703352006551739350    2.351683887055399768684083028
Hf    5.442805159999999808917436894    5.475869389999999725660018157    7.883840089999999634073901689   -1.853083988559179662303222358   -0.209487917812035018272354137   -1.146389868841347192685020673
Hf    9.049765450000000654995346849    1.700167640000000091049514594    7.771384630000000015570549294   -1.288889328923283006389510774   -0.223066273393531577795556586    3.189973174336266037443010646
O   10.505774900000000471322891826    9.584548079999999359301909863    1.647642320000000104585069494    0.980171511440710019336108871   -0.250989130823764394762065422   -1.031620084769526046741816572
O    5.069864789999999565850430372    7.108639110000000371769601770    3.365243969999999862352524360    2.950070516632746997487402041   -0.199782655349472204608929360   -2.457950018303233008509778301
O   10.824998340000000496274878969    5.572166600000000080683548731    4.057715560000000110107976070    0.463049293212708712452752025   -2.940825021839087227704112593   -0.928580754658265172807318777
O   10.520126610000000155764610099    1.731661099999999953169549372    4.229479139999999581789325021    1.115453889863955883043900030   -1.972974227045993123041967010   -0.033023087214806290390356480
O    1.762981340000000063383822635   10.869558259999999805245352036    3.884804799999999946891193758    0.029466062791437486190204709    1.322453222836510233761941890   -1.741955590517297647323857746
O    1.702418549999999974886577547    0.084679030000000002353921502    1.168723490000000087007947513   -0.664766206159460137925520939   -1.096985655971536299801982750   -2.931851914518577295609702560
O    2.122603059999999874918330534    3.981060900000000124521193356    0.674087349999999974059505803   -1.941739877850231721367890714   -1.072394225124894129308472657    1.552676829488096821307863138
O    0.449506379999999983176905971    1.935586440000000019168169274    9.725751620000000485788405058   -0.446118617084672930417355019   -0.893674408892861760200787558   -0.246506305302360950726381361
O    1.744104050000000016851231521   10.828521350000000822433321446    8.973917809999999661840774934   -0.239756617369728891597802090    0.366682272661780828126865117   -0.333682835046436920833912154
O    1.757487570000000109970983431   10.475639879999999237725205603    6.272265479999999726601345174   -4.102426244653647913196437003    1.452277478773045027438115540    1.120830809635101843468873994
O   10.954229399999999117198967724    1.810007230000000078007360571    6.749824539999999650774498150    0.769382619818515189891172668   -1.133793039224631371553186909    1.651728177147399723168064156
O    1.884323650000000016646595213    3.387104480000000084061184680    3.323790339999999954301301841   -1.176850607872043319446220266   -0.070015099777397005187395962    0.961522522948885849380928903
O    1.471964999999999967883468344    7.533258390000000304098648485    0.959705699999999994886934473   -0.482358930569912969232859723    0.936307078156641825472661367   -0.210663519313069813598815472
O    1.806305309999999941794612823    7.192859089999999788744844409    8.943021319999999718675098848   -0.280044121353309249933261071    1.600224724063160630649349514    0.074235412143215495639481105
O   10.728629149999999725650923210    2.286713419999999885590113990    1.623963349999999916661863608    4.206104237997648986890908418   -0.417433830745158274133643772    0.376117062251690725815933547
O    3.747839110000000140132669912    5.108256250000000164845914696    6.455353299999999627800661983   -1.791637129995893751299718133    2.794255634507959662471421325    2.193976157659518477771598555
O    3.510420620000000102578496808    1.652877710000000055501345742    6.734096059999999717149421485   -1.472963200274168826808818267    0.072410985999710852922817139    0.535084704504037333983035296
O    5.390971229999999891902007221    3.505739549999999926654936644    8.697857909999999748151822132   -0.430296074480439938447773329    0.924933823658067644224445303   -0.424853946528377712787971632
O   10.832870989999999977726474754    5.284404519999999827462033863    1.480132250000000038170355765    0.031981434791978180509630647    0.039556834257968839785313264    0.192267891508858146387694887
O    2.362215270000000089112290880    7.519582889999999686381215724    5.950428709999999732360720373   -3.933224206676561252038482053    0.172744314380662483676687202    1.492992937867443581367865590
O   10.852983580000000074505805969    8.615023479999999622691575496    6.894661560000000299908151646   -0.057600876247240417882267138    1.584230170713005092508751659    0.557947389416711958531891469
O    3.876222059999999913770807325    1.663074890000000083389863903    4.104410670000000038726284401   -1.069691414664447615123776814   -0.566866951757827308711057412    0.872890137176925762219070748
O    5.867386759999999590320385323   10.671627049999999670149009035    3.376312050000000120064669318    0.739010471758990705737346616    0.455110342246883403660717704    0.248657315762091990496429617
O    5.511657709999999710248630436   10.654014509999999660294633941    0.752216140000000033083438211   -1.653578516619687022171092394   -1.213116424744672183777538521    2.241818476556992401071966015
O    3.900288890000000119329115478    1.674056640000000095724885796    1.640563510000000002619913175   -1.919233691818256648531360042   -0.648190059938065332723056144   -2.390392744497660704183772395
O    3.614812999999999831857167010    1.621164360000000081996063273    9.540652789999999328074409277    0.631394766046938671344435079    1.018636830286414607371625607   -0.865331827220712890280651663
O    5.788870469999999990307060216    0.010757700000000000248312482    8.840197870000000790469130152   -0.844264047498346270614888454    1.840145581965646037758688180    0.225979253508450828036302482
O   10.896863350000000281170287053    9.156391100000000449199433206    9.644156830000000013569660950    0.392215875869663110897533898   -1.522887409000001301961901845   -1.445519227222964442347574732
O    3.484418849999999956423835101    5.083448579999999772383034724    3.793037729999999996266524249    0.828779604484244480921972809    0.885723893729793765317026555    0.917019501740646836296377842
O    5.592534569999999760625541967    3.369782279999999907715846348    3.371224160000000136250264404    0.052390512203235629906661330    4.032780144890432794113621640   -0.130073928146785700032950217
O    5.325381609999999987792307365    4.155090170000000249217464443    0.542552629999999980192626481    0.543129494593722506046162835    1.525473322682386889681538378    2.267185494912520749011264343
O    8.984033070000000620325408818    7.099243900000000273564637610    6.240616669999999643891896994    1.317250290354671449222223600   -0.433702641465353033733975963    1.741136298798442227919736069
O    3.514173149999999967718622429    5.488705000000000389093202102    9.191194440000000298596205539    2.366977258674182849063072354    0.645392829301134285380214806    1.227028304121841051355090713
O    5.300510720000000119966898637    3.745419580000000081554389908    6.023561759999999765113898320    3.123853517386728562144071475   -3.393149843969009538113823510   -0.068840658371199098253256921
O   10.942880849999999881561052462    5.458748560000000082936821855    9.191889789999999393899088318   -0.104805614644828515302776850   -0.546532525296594462460575414    0.716497530563862561336918588
O    9.159881029999999313417902158    0.083711510000000002862385884    6.438247200000000169950453710   -0.404990862615187352524515063   -2.327976991354984370730107912   -1.213439409026883186726308850
O    1.734713989999999927960061541    3.596683669999999999333795131    6.294625489999999601309355057   -0.294834218795496205700601422   -1.341029262755628614911529439   -1.269506226949261407099811549
O    6.620186880000000329005160893    1.937912840000000080920017353    0.956906119999999971170723256    1.148456743237643351562837779   -0.165644755908775476171967966    0.782808756873678346366318692
O    9.019277089999999219571691356    0.757089510000000021072708023    0.855259830000000054184283726   -1.478303978784225147791175914   -2.200360514122799315828160616   -1.584252865327908876835749652
O    7.325876540000000325392193190    8.717104040000000608756636211    4.383967079999999683082023694   -0.489512124046231344998147961    2.874674295338095042495751841   -0.400065218907728559205594365
O    7.500802010000000130673925014    1.907809260000000062262870415    3.908682530000000099335011328   -2.071592299911115819810447647   -2.633797787494990494394642155    1.583694645652728327789304785
O    3.511436349999999873006117923    9.568796969999999291189851647    7.256765439999999678377662349    2.773849920099504817727620321    0.042095556054123323130866652   -0.253740623949036681050728248
O    8.945128199999999196734279394    7.260508220000000179084054253    9.057303799999999682768248022    1.595159694349298273863269060   -0.352005989429762244924404513   -4.388703019629665469381052390
O    7.348457840000000018676473701    1.721818340000000002731894710    9.313388079999999291658241418    0.625092645673267499617509202    0.393566970199994925483366615   -0.202798419339858593257730490
O    7.714256330000000438928964286    9.094098689999999152178133954    9.645029779999999774986463308   -1.604827459713150883402477120    2.837604707205739984487991023   -1.034090958580025088053844229
O    5.844856400000000284933321382    7.278290799999999727276644990    8.696497510000000374930095859    0.514643632380902715794945834   -0.494793477233968437278832653    0.046258655106217488883757483
O    9.057191319999999379319888249    7.209691880000000274719695881    3.642728359999999998564135240   -0.129818470936960639328106026   -1.126784760539454532946024301   -0.276257252751758164421858055
O    5.149134840000000323811946146    7.411208770000000001232365321    6.171599180000000295365225611    2.708587474734003741616561456   -1.412679385916261187716713721    0.658285496033097938806122329
O    7.300659220000000004802132025    8.942661129999999403139554488    1.438412790000000107681898953   -0.589797047299371990369820651    0.796386939311393149409923353    1.495495397895609812621842138
O    9.089107679999999689357537136    7.300772509999999826391103852    0.667789030000000005671267900    3.999616918882561211745496621   -0.779418716354083995767609849    2.712548534472704719888724867
O    7.636225399999999829958596820    5.247418050000000278032530332    9.466307190000000204577190743   -1.454583312525273619542076631    1.108634184221134688641541288   -0.673601198826967895172401768
O    4.034540859999999895535438554    8.978513209999999133970050025    9.639727609999999557999217359   -1.271232033712451414686483986    0.814938688866905125429696000    1.726597799013277034774205276
O    9.323872850000000767067831475   10.899982299999999568740349787    9.031152309999999516776370001    0.034934289692049980136090426    0.521782702921173013876909863   -1.375787638813699365059051161
O    7.229691189999999600956925860    5.181592539999999580402345600    6.832519109999999784577084938   -0.837185818013895577394123393    0.269337149427422373193508065    1.628017437902300468266503231
O    5.481094190000000310192262987    0.416356269999999972775128754    5.907082800000000410989287047   -2.483560389466447748674227114   -0.590687665747914314451350037    0.750963922142904527490259170
O    0.415841010000000010915499615    5.613805319999999987601313478    6.492439690000000318548245559   -1.154043353106788405426641475   -2.468207493022209764177432589    3.178709210258053197151184577
O   10.861363609999999724209374108    9.207080239999999804467734066    4.036716270000000328366240865   -0.009668187068856193278065803   -1.382548797000553220115648401    2.164790242128618480421664572
O    1.581015110000000056800217862    7.323643050000000265242761088    3.451352689999999778791561766    1.165257632258851483442185781   -3.242075703474986081431552520    1.556689914583940570480535825
O    3.957490710000000078139237303    9.063814439999999805763764016    4.211261989999999677536379750   -0.966775749949854379394764692    1.251249806694077371105322527    0.011591424226583907364229731
O    3.236044909999999941163650874    5.997076110000000070954229159    1.548869250000000086231466412    1.125479382155673668819417799   -0.668804249527932159757881436    0.038470259275564723522311539
O    5.254545040000000000190993887    7.174171109999999629280864610    0.843935270000000015144792087   -0.900955556550419478512026217    0.682970475396353582375752467   -0.394625024278714819914171130
O    9.145986519999999231345100270   10.867650490000000829127202451    3.599925380000000174618435267   -2.297008615695230293596296178    0.383228426428959878524693750    0.789721066479395661374951487
O    9.196239500000000788304532762    3.383495359999999951838844936    9.050924379999999658252818335    0.847324548984883518798483237    1.012592509680350527645487091   -0.810906490043092675890079590
O    7.196184009999999631190803484    5.904384730000000303107299260    1.613017710000000048964352573   -0.398034426443481470503371611   -2.380195608537307272456473584    0.675893709942942066959403746
O    8.753334869999999767742338008    3.684850870000000000459294824    1.318678170000000093864400696   -0.115486778471853734906460431    0.041339908089719878958590016   -2.192341378322918643561934005
O    9.049475879999999250458131428    3.565999970000000018899299903    3.558829419999999910118049229    0.447514475700437563965294885    2.828700677026340759567801797    2.337436818523944470626929615
O    7.136762169999999905201093497    5.261333600000000387808540836    4.541404359999999584829311061    0.540809040068427004932516411    4.237909482444209174900606740   -3.568621268158451265151143161
O    3.241881170000000089714831120    9.305131190000000884765540832    1.632974090000000044753392103    2.003951507552990118909974626   -0.554382766190890885482644990   -0.592653268097124263924513343
O    9.115554369999999906326593191    3.486788960000000159311639436    6.245700839999999587348611385   -2.587610311132238383180492747    1.247509812401259798875230445    2.502091725258533294606877462
O    7.293438779999999788117293065    1.709359279999999925436782178    6.760675789999999629742433171   -0.431796448913387698187449359    0.808845761572542176764955002   -1.421423325209695498472228792
O    2.127792920000000087554781203    3.527886889999999997513668859    8.786461790000000604550223215   -0.305031703449434976604948133   -1.644526940853773933071124702   -0.711247285152257213702853278
O    6.925965670000000073969204095    9.283918619999999677361302020    6.824914910000000389800334233    5.064396230442239854596664372    0.377499215943306098974829865   -1.232714130038388589127862360
108
Lattice="10.9559999999999995 0.0000000000000000 0.0000000000000000 0.0000000000000000 10.9559999999999995 0.0000000000000000 0.0000000000000000 0.0000000000000000 10.6289999999999996" Properties=species:S:1:pos:R:3:forces:R:3 stress="-7054.4201506289373356 -5131.1050268929102458 -4776.7265997799167963 -5131.1050268929102458 18585.7805754462569894 -3007.8694433836990356 -4776.7265997799167963 -3007.8694433836990356 16413.7274779458603007" pbc="T T T" energy=-1063.9419974221978009
Hf    1.875591957992584601910834863    1.660261431078815519413183210    2.397013923984049554860575881    1.196740809171437991409447932    1.924136835648450283287047569   -0.124268848796312642024375350
Hf    3.494832367730512867609604655    7.245338586813475423298314126   10.529117872725993976246172679   -2.019597410504732515335035714    1.117678733653965750249881239   -0.208375043589957786860367150
Hf    5.048292127298849685246295849    5.260486540078082917659685336    2.319970983393663921390270843    1.483793839764296906835738810   -1.857060587993229372472114846    2.394458003040253579740692658
Hf    9.086215421239007383746866253    5.362807783221691160235877760    7.945335196835531910153349600   -2.054617792754488192485951004   -2.520119879772549698060402079   -0.371126073122574007268070773
Hf    0.103130240631343045309975537    7.070432036366857353471004899    5.424728539123094606111408211   -0.792331272329168223578221841   -0.572030200392878995785395091   -0.052695278100310716240528564
Hf   10.719002381621477226758543111   10.904739874161379020733875223    0.051356131171413139935300052   -0.276972495419542941164081640    0.406260956587345622992302197    1.036721626771337279038220913
Hf    7.260545115498422852340354439    3.384281703592775247813051465    5.012225175147309030876385805   -4.776356568819128511904636980    2.036968654889309338074099287    0.827462238583189013674257239
Hf    7.352119024366030153316842188    7.112310646852693096775510639    5.500546159853710648235392000    0.423004018110023527476926120   -1.028196821939884264551778870   -1.356573890116547609352437576
Hf    1.660060931218862334546315651    5.255885161209868705611825135    2.738788947953719521422044636    2.324701692551483844795257028   -1.006034150550777717114669940    0.881018954444472424114565001
Hf   10.499029368220782032494753366    3.490605477829028302494407399    5.059606857431425019910875562   -0.122787578063010327511506148   -2.387965852823970003271369933    5.420450259575518181520692451
Hf   10.894648527418654637699546583    3.453457532566783338978666507    0.126488515223813074994652084    1.531089864430274838369427925    0.519350345860619677651470738   -1.555745153430012184259112473
Hf    1.799513832385311928874216392    5.264994880876473715147767507    7.539844296413678037538375065    0.120805833695639908142993590    0.166252653832004382294940115    0.578392932454776298456522454
Hf    9.042980109984997127980932419    9.048301278804480318740388611    8.233805970603661705808917759   -0.763863459758404417243582429    2.749132942200952722799911498   -2.527450397731497488962304487
Hf    1.928048047383136953669691138    1.803559640141590758588563403    7.985126429508503598242441512   -2.373139647022219911320917163    0.019935036988868726215429206   -0.596599422371099974427011148
Hf    7.179056482874188738207976712    7.247491914398711543299214100   10.531911197634341803563984286   -1.176610548850091531036810011    0.164754331638113704627812695   -3.395373584092381769039548089
Hf    8.714692555331367884718929417    8.870395601568601406938796572    2.935879620581549165336809892    1.233918186145167794620647328    0.325038979041172571005091640   -2.480643699396079426833239268
Hf    5.296506960309722344959482143    9.005921022401190967343609373    2.555963529498133546269400540   -0.099634716180847293642841578    1.908818814808545871741785049   -0.669974205687444146484210705
Hf    5.469084202737272804029089457    9.123005249974079688968231494    7.760265826120501309048904659    0.653164154049397205348270745   -1.401452784334724865900057011    2.165532758486986786294892227
Hf    0.088272304358211831076808096   10.717161465718762158871868451    5.064753185938503321494863485   -0.454329852886940166456497536   -0.429558858484828443025094202    2.279017868723684614451485686
Hf    3.586612743041220241480004916    3.582240519459243266453540855    5.301514078581342381824015320   -1.555682809054586446251278176   -1.048795250868284956169418365   -1.777229773013340619058908487
Hf   10.689440758500079908799307304    7.013794283854172029180062964   10.236256500090286536419625918    3.146715582773941477512380516    0.998627549531588498687995070    2.582590419096107758889502293
Hf    1.770399823858807453191843706    9.098485436868243070307471498    7.925260916361295038257139822   -0.493686312386500514293175002   -0.351601729737643808881841778    0.981260729391154495893090370
Hf    7.339063201391492263780946814    3.646606875619748056038815776    0.006966074674747991905821021   -0.411717706630687796387491062   -2.453165943008863703056476879    0.612457141939400817598482263
Hf    8.979530124015788317137776176    5.487173324732618873156297923    2.254404831212713400390157403    0.052092944336162794183309188    0.005263803113644494047207445    2.000375385075425782588354195
Hf    3.798671835397839036119194134    7.258597459124827899756837724    4.800596145833791794643730100   -1.510230130082581334605151824   -0.789025192221860183217074791    4.544185333049535202576407755
Hf    3.693716131144438197253521139    0.030431718410939313790297689   10.576736746191446769671529182   -0.088796342500792366236872510    0.142027776353620960314572130    0.146838491179705710187874956
Hf    7.284262976947384338188840047   10.811639356574925585618984769    5.157891792956607268649804610    1.355064423950167240562336701    0.117366988019737369941530858    1.915222877235615017710301800
Hf    5.398674183952121730101225694    1.513592156465051408176236691    2.752755398968216304922407289   -0.488631059254390875956630680    1.439537299446259854818208623   -0.772207283576145653292144289
Hf    5.431217308470470683801067935    1.887017683845594540059664723    7.861755182101255456927901832    1.332118816219886703322572430   -1.097777083475480974783522470   -0.707028151385228342817867997
Hf    1.467078255676586673317274290    9.132963585195698286156584800    2.420076086990960106959391851   -0.130240457234378936846042052   -1.393466299732752489148879249   -1.163916081853966222325880153
Hf    3.529943427030468150462638732   10.800071484689292233838386892    5.171793099021251727265280351    1.474356999450355365510745287    2.136491094012588298767241213    0.807109591836146500476445453
Hf    3.634665465007278939424395503    3.766549774589127874691030229   10.051410145131798756779062387   -1.131443631285103723627116779   -0.580203277570505160376512777    2.405522555535037021456901130
Hf    7.218708756156576811235936475   10.928839730547894149026433297    0.108431930320502883935418481   -0.044928943400380116912629092   -0.554028421019443939599113946   -0.440866252602824415518512069
Hf    9.060435435730996189818142739    1.812212292048563044843945136    2.524688305842178959181865139   -3.502958968125650773828283491   -1.187142085042933281613386498    3.094285074857483053278883744
Hf    5.367185888150696193577005033    5.563097787023330020872435853    7.869687982526697211937971588    2.142807418157548049464367068    2.924255537076643207683446235    0.962116910169984462797287961
Hf    9.095649055106692415506586258    1.754094875494015992600793652    7.871950787403153348975592962   -0.491910052813021803075343996    0.138658586372933934072193551   -1.281218910100348384872859242