ITEM: TIMESTEP
0
ITEM: NUMBER OF ATOMS
95
ITEM: BOX BOUNDS xy xz yz pp pp pp
-1.7900940000000001e+00 1.0284637999999999e+01 0.0000000000000000e+00
0.0000000000000000e+00 1.0390295000000000e+01 -1.7900940000000001e+00
0.0000000000000000e+00 1.0500584999999999e+01 0.0000000000000000e+00
ITEM: ATOMS id type x y z fx fy fz
   1 1    3.002855320000000105551407614    2.816144829999999821268374944    4.066676220000000618881585979   -0.118582735995334337397721924   -0.693338754601450446557464602    1.293456581805998428791326660
   2 1    2.088944580000000605934928899    2.833691850000000123088739201    9.430208600000000274121703114   -0.363086070867237431514240598   -0.602126203260632597569212976   -0.827402813187390617777339230
   3 1    3.093468189999999395922714029    7.951715519999999592926087644    4.133715310000001252888068848   -0.753642560471716849157530760    0.766253781314495618914861552    0.413715628726474049514649778
   4 1    2.134042690000000241923316935    8.017186640000000252825884672    9.443042000000000157911017595   -0.575408921814461682409103105   -0.116416814495203357893160501    0.101693814680273802997234611
   5 1    8.170782940000000493796505907    2.746381889999999881268877289    4.154404509999999994818153937   -0.453370622826700930829701974    0.903359374560689043498484807    0.602082932144272109376004209
   6 1    7.268080600000000224270024773    2.813115540000000081022335507    9.469311100000000536169864063    0.477791026435015586670829180   -0.287844055485995897747386607   -1.844902073275924703210648659
   7 1    8.110676619999999559240677627    7.994529039999999753263182356    4.206693010000001287096438318    0.646169087574152367636770578    0.612181780122969532165200235   -1.013544822768318365291406735
   8 1    7.284573929999998753714862687    8.068309069999999749711605546    9.376674839999999733208824182   -0.619803453076195554061200710   -0.616582019548910453821122246    0.753982303628064398637320664
   9 1    0.767390010000000288847843422    0.175845459999999981226537216    3.737108110000000316119894705    0.369674288305543718990975322   -0.105285934253696034090808098   -0.110787012428735204272456372
  10 1   -0.036595629999999657044895685    0.180021839999999988535250850    8.947254360000000517061380378   -0.422781009269316054854925824   -0.243781220672440457342133868   -0.044416051485096405548880227
  11 1    0.806696559999999673884474305    5.492649489999999801170815772    3.700983060000000435252331954   -0.967294580527748415477162780   -1.108830830907455933242999890    0.070931979984075882450511585
  12 1   -0.124227239999999738984115538    5.432658420000000099037151813    8.957590610000000452828317066    0.030076910993700911589598945    0.809288686186919514753412841   -0.598149972176049926630980735
  13 1    5.935429740000000009558789316    0.133662940000000007856328921    3.676190330000001171839585368    0.130468348152877944290395362    0.429900866382440849378099301   -0.105850770864128918002933233
  14 1    4.997817549999998831822267675    0.301864880000000002091553597    8.979890069999999724359440734    0.845327490838368889036757992   -0.480610820330019894441875294    0.013755855239129033407152747
  15 1    5.950728380000000150573669089    5.410889820000000405286755267    3.663423299999999827036845090    0.213951205272441047355869159   -0.714514838149146180867887779    0.691217287025411075696013086
  16 1    4.969502930000000873178578331    5.344786449999999078386281326    9.033815719999999771516741021    1.173662448269657598842741209    1.729203423296159503053104345   -0.958269267210130948342339252
  17 1    1.209567059999999916186652626    2.375467689999999798544649821    1.073911000000000059984017753    0.154236789329323054076326116   -0.160328206996968924968882675   -0.062472093529264832723058021
  18 1    0.276819320000000423931396654    2.355895700000000037022118704    6.324399750000000430816271546    1.187131095881672093739211959    0.788057883287304639097214931   -0.266144128526945855650609474
  19 1    1.263391219999999925960310065    7.619893969999999683295754949    1.072773680000000284806560558   -1.045348208330949102418117036   -0.611291212046807697078065758    0.564978515958941329699882772
  20 1    0.415011410000000191544700101    7.564390780000000091831680038    6.274902310000001648404577281   -1.258383768873764907425538695    0.460819641130209123325300880    0.909900429788201181580120647
  21 1    6.305011989999999677536379750    2.382452039999999993113988239    1.077908260000000284506427306    1.098598875701031207796631861   -1.164692883685002344762438042    0.714789045460886840466230296
  22 1    5.473821400000000281238499156    2.446110369999999978318783178    6.299388100000001600164978299    0.637907973382106363580135167   -0.896461958514156886934642898    0.007261896137793134864413247
  23 1    6.374538519999999763854248158    7.584793679999998872176547593    1.079138930000000051734332374    0.367867925336979095796152706    0.866811500021054337494774700   -0.502395061239040874312422602
  24 1    5.490844929999999735059645900    7.526486669999999712388216722    6.430144850000001355283529847   -0.110969139126807919693007420   -0.307002113704463064358662905   -0.607009142228203790736529299
  25 1    3.473554829999999871148474995    4.974917200000000150339474203    1.516604740000000006716618373   -0.508185229494953594198136670    1.285890054320308006907680465   -0.353021495214703717735460486
  26 1    2.549212330000000470420218335    4.954587229999999564711288258    6.799204180000002040173967544   -0.004540370221882916723643575   -0.146899304165484245743300562   -0.215642473811957335882993902
  27 1    3.421988010000000191013214135   10.188572100000000020258994482    1.561000060000000244642137659    0.088807066477926355219096877   -1.132313336152491967112609927   -0.519790349320601974270061874
  28 1    2.582532220000000044990429160   10.170791499999999984993337421    6.823941350000000127806742967   -0.097403015082168975524723464    0.255978561614473409946413085   -0.641393328125325901112319116
  29 1    8.546628099999997729696588067    4.987044649999999634815139871    1.594461120000000065033418650    1.006796499891861262909742436    0.442594607533552619749173118   -0.545225818212936585993588778
  30 1    7.657694300000001064177013177    4.982375140000000257600731857    6.836772019999999727701833763    0.765253125210444640202922528   -0.129705109669224105672924452   -0.634185056562618809650189178
  31 1    8.663609489999995361131368554   10.256923929999999245410435833    1.532940500000000483282747155   -1.568649861172074277959609390   -1.290069027205630547427972488   -0.567012247820225523398107725
  32 1    7.743916429999996964284036949   10.191675890000000848090166983    6.812091130000001548694399389   -0.192682285667872710277492843   -0.329027100428883501059829086   -1.127301554281169071458634789
  33 2    2.393312449999999813599060872    1.275167759999999983477891874    2.637556679999999875718685871   -0.510760033444961680793028336    0.711007555321807371839781808    1.315978542137950180190841820
  34 2    1.526770110000000180150436790    1.251925710000000080412974057    8.060788150000000484851625515   -0.265456302918047226668818439    0.415547110795221885659600503   -0.270172047147165916847200151
  35 2    2.393249659999999501280854020    6.499490379999999234428287309    2.767361030000000887696387508    0.790168844740694931161328896   -0.394985597744087257865430729   -0.688759397231124337324104090
  36 2    1.514711549999999018467633505    6.449178909999999653734903404    8.047833260000002653100636962   -0.172808969301246007077565991    0.372638814297652776197367075   -0.676059989852229814566442201
  37 2    7.430709989999996878395904787    1.336537520000000034414711081    2.708835810000000510200379722    0.639122837036294133561398212   -0.177943392256561083719645922    0.144711964050031616224600839
  38 2    6.641746099999998875773599138    1.253061470000000010571739040    7.933359030000000089444256446   -0.213531553171548593716977393    1.047750941913953015571792093    1.164274217312468939766745279
  39 2    7.472383940000000279724190477    6.564404889999999603844571539    2.753227240000000186626039067    0.255084331671317054990311135   -0.694678601406675033658189022   -0.195100054393509469985446003
  40 2    6.646446199999999748797563370    6.470686190000000337363417202    8.066391780000001787698238331   -0.500562752356533025022145011    0.363999150299099294425531070   -0.621213374442665777763750157
  41 2    1.461927579999999782245367896    3.991706129999999852486780583    5.150495150000000244006059802   -0.110490778966798264271176322    0.010582864352888132764007878   -0.711274836669092969110295144
  42 2    0.656281340000000046330796977    4.048530030000000223822098633   10.374892579999999142614797165    0.212154131478935414900632850   -0.925120253572675466102737118    0.693090729531715021849436198
  43 2    1.428803640000000152454617819    9.192564129999999167353053053    5.179449459999999838544226805    0.445495252917456951990970992   -0.466292919603053357402444590    0.206075455872069351892506006
  44 2    2.302326349999999965945107760    9.094205340000000248323885899    0.005989530000000000721505078    0.122963402276367983478877477    1.497985218770837123614114716   -1.273969300936264037460432519
  45 2    6.583885640000000094573806564    3.949569119999999600167939207    5.150583990000001222142600454   -0.140134426630771247168638638   -0.006539312411432171567859939   -0.262476207132769034924280049
  46 2    5.676093130000000819279648567    3.858323210000000003105924407   10.293245590000001499220161350   -0.722649230720527224747229411    0.811544329432331679186063411    1.831297780859191481894754361
  47 2    6.614933860000000720447133062    9.118981420000000781556082075    5.108196590000000369968802261   -1.006035770040977661565761991    0.190440065765596633351464106    0.486416725855422393820504112
  48 2    5.564826299999998227008290996    9.237808360000000718059709470   10.343017110000001679281922407    0.934136464064422966657730285   -0.936740498825276546313034487    0.379016562232650788821786136
  49 2    1.883085660000000327585212290    3.848036510000000021136656869    2.455366699999999902104264038   -0.343965329045602952184879086   -0.318992947933267434468262991    0.240278673067855497169631462
  50 2    1.015470799999999895746327638    3.745746749999999902769332039    7.780497289999999566134647466   -0.052542186249732503178222487    0.504317735263721256266933324   -0.130719998123902447773048152
  51 2    1.778720359999999889311084189    8.974566389999999671545083402    2.640795269999999916876731731    0.356616058654900980329216509    0.192428631213024725621352218   -1.053848815939438576805287084
  52 2    1.015718640000000227985310630    9.007402839999999244469108817    7.768490080000000297388851322    0.026878664690263898151556532   -0.175872712353577487220945841    0.224031454398814305895015764
  53 2    7.032152670000000327377165377    3.794587060000000011683596313    2.571992180000000516315594723   -0.442368551373352791866722100    0.219168625810290201849639402   -1.226355297227194274256589779
  54 2    6.126764190000000276370428764    3.853428969999999953444103085    7.777985450000000966497282207   -0.037608174480932843319891390   -0.517626196093397328290564019    0.080839764581891460082374579
  55 2    7.115070149999998427858827199    9.019942470000000156460373546    2.469595309999999876993115322   -0.846317492867262100020298021    0.178436484590271449146570149    0.290145423043892680681210550
  56 2    6.221716999999999941906025924    9.015378950000000557452040084    7.775828100000000908664787858   -0.931092610107753460013668700   -0.183228134036435896803141077   -0.422643275471687451805280489
  57 2    2.843276969999999792548805999    1.287441400000000069070438258    0.168624379999999990387138382   -0.320801626378810045281397834    0.569136698719867384355097784   -0.940978464634422029355675932
  58 2    1.954790189999998872849573672    1.319574839999999804618369126    5.333490530000000617860678176    0.097766451400712883756938254   -0.538620474633436430167421349    0.295625351773067757132906763
  59 2    2.840092160000000642838813292    6.569927429999999013432443462    0.141427229999999987120062883   -0.624235398518660944411351466   -0.983797455245640994903055798   -0.042055950747147963220129441
  60 2    1.958725819999999728793227405    6.485670350000000361490037903    5.335467470000001100061126635    0.008842511581653278440739996   -0.014366017639062395039317721    0.443518632618704333747672308
  61 2    7.934387159999999106219092937    1.307328419999999935541268314    0.079192890000000001893276647   -0.024086521091089718726863111    0.494362080465263642459206039    0.561931547932326802552438494
  62 2    7.160569159999999655497049389    1.271896899999999996921928869    5.455494930000000408654159401   -0.669441641620344363161621004    0.353774589485221058193786803   -1.454054859961638301868447343
  63 2    7.925369289999998123619207036    6.532069669999999383946942544    0.086370780000000021980888221   -0.033092645401811227046096064   -0.847939773311943922884381664    0.697971517954453002374748394
  64 2    6.993963539999999312612999347    6.444847819999999671836121706    5.359016290000000459770035377    0.612835997117804454070721931    0.170636995360941984278824179    0.533243316161613689629916735
  65 2    3.785008040000000129055024445    3.534895039999999877267100601    5.972431069999999841968474357    0.086984794079158267443574459   -0.525905687879912875359877944   -0.389139102675772119432906493
  66 2    4.580228999999997441250343400    8.497134620000000637674020254    0.946397770000000138068685374   -0.128223755068727074402090693    0.692603947554073950954034444   -0.690850892702142838075474174
  67 2    3.809562100000000395283450416    8.613046779999999458254933415    6.052173449999999732540345576   -0.361132857563130960087960375    0.448027780504688943885582830    0.309437794250189468492351352
  68 2    9.783499530000000277141225524    3.519864749999999542495743299    0.804647120000000048989363677    0.381555966188183881548923182   -0.420913008727339221781704737   -0.150021660438391102321276094
  69 2    8.847089979999999798110366100    3.379066700000000089687546279    6.104761220000002097663127643   -0.037158166807065962089495770    0.685086231965561953671794981   -0.098905190636952355909272683
  70 2    9.814879189999993869264471869    8.759107000000000198269844986    0.785691780000000172812235633    0.071940703072338130219520735   -0.611882138247611728765207317   -0.799944909707426488054693436
  71 2    8.948551789999999783731254865    8.755578350000000398267729906    5.906427850000000034924596548    0.691650471629745799972965870   -0.451859648365371791012279346    1.033272928181063532449002196
  72 2    0.051721800000000150987489178    0.886271180000000047272123993    1.778026680000000414594296672    0.616421273217426568535870501    0.578685291799064138729136175    0.307524067413350810085148623
  73 2   -0.755602619999999669531121071    0.819079729999999894829443292    6.953127010000000218781224248   -0.113847141993112410673916202   -0.666930356011537162075342167    1.166136390372512821045347664
  74 2    0.094474760000000101989314771    6.016699499999999645183379471    1.788464050000000415963086198   -0.582477565349394765803481278    0.488760170912513780550057163    0.030672175727633393949034257
  75 2   -0.847014240000000029340299079    6.101351619999999975618720782    7.031458960000000146806087287    0.070706839015054145924921158   -0.173870756632606981995081696   -0.053350354322986404120854331
  76 2    5.216662620000001027165126288    0.756701390000000029267823720    1.713185350000000495285235047    0.163019149230622939494850243    0.793493835576506767459648017    0.097187112305664846712005556
  77 2    4.243589000000000055479176808    0.945819309999999968674444517    7.160872470000001044354576152    0.239882302084724080559752224    0.462814577446708064201175148   -1.201395713496125061681141233
  78 2    5.331005719999998504476934613    5.922302629999999901144747128    1.658352660000000033946321309   -0.724536298348172680405809842   -0.733324182931274437535762445    0.050017003616419308809071254
  79 2    4.339279519999999834567461221    5.918599839999999723261225881    7.068546180000000234144863498    0.252299413363358426831695169    1.220987915788901423397305734   -0.222711818577542297603599764
  80 2   -0.309669269999999940967683187    1.821727410000000046963464229    4.374742070000000815355178929   -0.440825296698574953246918540   -0.282280464723509594282546686   -0.438790531444013476303211974
  81 2   -1.299382019999999915427224551    1.619027610000000061418745645    9.642067779999999643791852577   -0.066735243330186100330081445    0.621974979353182910735142741    0.550441321263904770333397209
  82 2   -0.398077879999999828530832247    6.941633279999999572851265839    4.452985919999999708807081333    0.137812523503636707999930877   -0.197319952517099328481720022   -0.480785157749104408164697588
  83 2   -1.349849199999998861088101876    6.883780739999999731537627667    9.610268010000000415971044276    0.576179229335373244147433525    0.437252659320734260450791453    1.009714635795638582038691311
  84 2    4.842723709999997794284354313    1.709508690000000052933160077    4.322595009999999682293037040   -0.739881458090999810650600921    0.419699422708435909701307764    0.690626124531053875443831203
  85 2    3.791798209999999613728505210    1.787184670000000030753994906    9.755888549999999881379153521   -0.107028101682514781289867756    0.142888703146840878588363921    0.009800330097679443852598524
  86 2    4.775420479999999301412572095    6.889881400000000155614543473    4.371534239999999904568994680   -0.117157081748063426895889449   -0.078811106700418770421023851    0.186105648492139924554678032
  87 2    3.760282240000000442137206846    6.961378469999999651918187737    9.621826640000000097074916994    1.645933394679364170087865205   -0.993859116998124791919622112    0.120725200490791287344372051
  88 2    4.240936060000000118463958643    4.226740730000000390020886698    3.264668309999999795678604642    0.573662729564398232717792325    0.059401704918398377797128518    0.246903941106876051447827081
  89 2    3.358544820000000097337533589    4.261756540000000370582711184    8.694980949999999708666109655   -1.283992599416308166837552562   -0.510035675701745683241483675    0.349168228866853835867800626
  90 2    4.174445999999999656893123756    9.470551280000000460290721094    3.317988179999999953651013129    0.812159096989661599685916826    0.242616111579899484951283739    1.558274694902899826232101077
  91 2    3.288495399999999513340753765    9.601201030000000358199940820    8.734065920000000815548446553   -0.283477661879029285696418583   -0.502235724777936098917052732    0.061615620156722505917912258
  92 2    9.235478210000000132140485221    4.408428439999999781662154419    3.444413760000000213068460653    0.778551816464741031076357558   -0.208331346262470407104672177    0.295122178150945491115209052
  93 2    8.486793799999999166061570577    4.330005410000000054537849792    8.668013979999999563119672530   -0.194371347587226184217001901   -0.796920350415560196921660463    0.447559275765689212889242299
  94 2    9.314260319999998927187334630    9.543487100000000111776898848    3.366233750000000135571553983    0.635777523797403154581786566    0.171844280928489578919027281    0.833265909128808046624214967
  95 2    8.563233370000000732602529752    9.393276789999999820679477125    8.532273970000000318236743624    0.778636072169350157423650671    0.554109883100554201362797357    0.960708223349016066094918642
ITEM: TIMESTEP
50
ITEM: NUMBER OF ATOMS
95
ITEM: BOX BOUNDS xy xz yz pp pp pp
-1.7900940000000001e+00 1.0284637999999999e+01 0.0000000000000000e+00
0.0000000000000000e+00 1.0390295000000000e+01 -1.7900940000000001e+00
0.0000000000000000e+00 1.0500584999999999e+01 0.0000000000000000e+00
ITEM: ATOMS id type x y z fx fy fz
   1 1    2.996809065432536112183470323    2.686836780677047897825104883    4.108866078348968997602241870    1.358139987812045479387279556    1.586579941987097619460200804   -0.703357023081960686106128833
   2 1    2.134128691757276818918853678    2.603730797184519829556847981    9.324860972674443360119767021   -0.995506948995252272105460634    1.125695398221078891154434132   -0.697155562787416083203595463
   3 1    2.892390099884984966394085859    7.923348877055761185772553290    4.255688826896363075036333612    0.018158761894439379158683323    0.388678751019277568534704415   -1.653693768493024851551354004
   4 1    2.124773400156563685214905490    8.139362118230486942138668383    9.447864136259816802976274630    0.504418676467833448917588157   -0.175059174284027313506229007    1.037278920017650651885787738
   5 1    8.077399862585487255728367018    2.702791802537865883948597912    4.219859966278516338888948667    0.939886587249643801200704729   -0.051351856148681318536830531   -2.037580744777182317761798913
   6 1    7.142184095698544510355532111    2.900625943960636554663778952    9.482689129373982339643589512    0.679518705843701331659190146    0.552911932159136920716946406    1.010678436307143268635400091
   7 1    8.297651080352382635396679689    7.889445966893993578139543388    4.156406220346820390432185377    0.834967364973932313354509915    0.338761577896593335523789392    1.612027087310479611659275179
   8 1    7.382682780262107336000099167    8.006997235420222125412692549    9.514051809223436961815423274   -0.819880832458951380736777992   -1.190938475908686733362173982   -1.545711277125900950935033507
   9 1    0.866235861181293587129914613    0.205715681072727973877078966    3.893836065998867113080450508   -1.123242682402494807547554956   -1.718677645111968077529240873   -3.001716011764763436531211482
  10 1   -0.401559971818410910149310666    0.373296906872820244416288915    8.789815157115842936264016316    2.205133039869624944628867524   -0.220418947126825803817240512    1.000614491993796040247843848
  11 1    0.775621739234695461995272581    5.305961103579774018612624786    3.760034170981295442715008903    0.641885413958574235770981886    0.813153887463649915900987253   -0.409308683591348587693659056
  12 1   -0.176374299101003634282491817    5.314302198197776050392349134    8.767661643802814097625741852    1.263781644624858868652950150   -0.204799227218213308887584390    2.496289480663343329780445856
  13 1    5.860666866772440641852881527    0.102058099413910474684286100    3.897346089512143230138008221    0.510942461151035143274157235   -0.368856365236889027769962013   -2.756219244561486814149020574
  14 1    5.355204532528131444735208788    0.227562873277068006272472189    8.917649778787406944502436090   -2.159965702159015066285974171    1.497181488341735811076205209    0.184119222758425959973749286
  15 1    5.806879978452799129229333630    5.381818461181654633662674314    3.660893888348490943229762706    1.508796272750001721263402032   -1.562989433317817589141895951   -0.638239431696658865433846586
  16 1    4.872465653575099864269759564    5.300452547552178650391851988    9.064915532632769057386212808    2.682043214179593348944763420    2.711014414073552813988499111   -1.053222419223007744193409962
  17 1    1.239655411939245999164427303    2.389191759857506092146195442    1.171063263629655182285205228    0.180382255688167791873866008   -2.193046343980721957223067875   -0.657984225420256807481678152
  18 1    0.433552784941163005250075457    2.399969053961659604112810484    6.106703570652207702096347930   -2.961712025376094459261366865    2.614653940319952241111423064    3.594134291661363000969231507
  19 1    1.354401929220890865579463025    7.582518282998339742562166066    1.061729844842952408257019670    0.370544190461593814234220190   -0.548275791024197878265056261   -0.308221756365533505750420318
  20 1    0.412614431050230379138810122    7.693221460578444137468068220    6.606662744151613253507093759   -2.144240661888345389485266423   -0.745800570912109606069861911   -4.106083714004379103812425456
  21 1    6.206094104098114350165360520    2.277101663564087719038298019    0.986488687199914782155474313    2.964509130128975211704300818   -0.371496333805119149928941624    2.338335802650537864622037887
  22 1    5.444454061379073728232924623    2.424941856280119267808004224    6.260498891661392839580457803    0.624987090423926749949146142    0.343445561058536963372489481    1.920853839289228259801234344
  23 1    6.375616679957023080760336597    7.640619350861383551887229260    1.098216358921641599977192527    0.120851752009926483033552813    0.314986306973605467707244543   -1.299188510195836698812854593
  24 1    5.458791047154989861667218065    7.569602894163360851109700889    6.158632751300138430394781608    0.994216183756278071292911136    1.066594605886091340352095358    2.227427796449051200511348725
  25 1    3.496168906726477398905217342    5.242777452074637523082856205    1.395857283053464792388353999   -1.386488688212294650980993538   -1.405611397833257836254006179    0.084249284849687189336009396
  26 1    2.617674413790405996138588307    5.037566500623739784714416601    6.769521846471188375460315001   -0.207300063968443443185307729   -0.020555172000850052693721182   -0.268451751509155955854879494
  27 1    3.470025804439948569068974393   10.132112215727786974639457185    1.609275869828927785221139857   -1.940048589230380704506728762   -0.211444308911048040044988738   -0.713930298004498142816487416
  28 1    2.549458531565545804653538653   10.119637658237468968991379370    6.972547184028828226587393146    2.482735481121964404849222774    1.154542028351143612141527228   -0.700882402192901765580757001
  29 1    8.648497811988113070924555359    5.146040326537733022860265919    1.729564099313811276203978196    0.441780193641326701659011178   -1.835321614784329202763046851   -1.342426370580634964468913495
  30 1    7.724301817432954742059791897    5.090904324118423751599493698    6.706231411933079478160379949   -1.543887286544308734548280881   -1.780578794955114174669574822    0.695724585013274721134735046
  31 1    8.599475600623662785437772982   10.094918111691713491495647759    1.506984126156848402544596865    0.591689599420291312270592243    1.612837255450451756644270063    2.156955904675519342106326803
  32 1    7.756565739788603863757998624   10.244804264288710271557647502    6.625992638228228592822688370    1.250243762858002316562533451   -4.059968352281186909635835036    2.835651918267434012932426413
  33 2    2.457113369504005273569191559    1.242324446016856320795795909    2.710429171242737744762507646   -1.347077328364755244294315162   -0.219675259677063861030177350    1.961894529260951092197728940
  34 2    1.364160154059180785068861042    1.378736834833787172627239670    7.973160953737043143974005943    0.098073879518857542958443219   -0.301730227995194166812353842   -0.579623473635407338022673684
  35 2    2.477461330825571295122244919    6.341334446526306400926387141    2.719612559373808746698841787    0.212831879605725193815857210    0.595875678905138816965347814   -0.193467623573532199188207414
  36 2    1.338763137032359384903656974    6.698182701249002946042310214    8.001228480089700667576835258    2.035327991256447699441878285   -1.482958974468027157911365066    0.585437107719152138862739321
  37 2    7.635074261255801353343031224    1.286340365460173496003903892    2.688750664385538780010165283   -1.500844590287712776444095653   -0.854487509120945287754977926    1.247382706434962074126815423
  38 2    6.797550518156953103243722580    1.598613104963856113016618110    8.096748354815865411637787474   -0.824264927629823951349408162   -2.455117874666634225633288224   -1.188159741103912869775172112
  39 2    7.482702551382288014281130017    6.585893614302459120324328978    2.706666951310418678389169145    0.224731979275489046621316902   -0.195017643473372692675127382   -0.814634699155739494536021539
  40 2    6.677409864497539260241865122    6.574863311484998362743681355    7.937416788757072794169289409    0.109983766526239756800009673    0.331007730539812139447519712   -0.672447557843748322525812000
  41 2    1.587730591518724532207329503    3.849500553348384812579752179    5.086947934789840530811488861   -0.763442642094993351165044260    0.972684631627852125390631954   -1.053184515637210383331989760
  42 2    0.837831450395465582303700103    3.947854117589133515764387994   10.242940527397156103006636840   -0.161381395317246378873221602    0.870982984436846519038510905    0.598402741720392095103875363
  43 2    1.279365249478815469430514895    9.059171491362569383909431053    5.197934638701998899534828524    1.483616839247488439212929734    0.631811166417682867901817190    1.129988880894922997910612139
  44 2    2.346629843743386345522594638    9.484997450177692357442538196   -0.136757358934155137664134827   -0.160780501239350115394444174   -0.816666775611857853611752489    0.205148489480992346489784950
  45 2    6.632134103587588924710871652    3.853823724805282235905679045    5.222302329581820501402944501   -0.258627513403660080903989638    1.202316037781126389916153130   -1.169344211240292974451904229
  46 2    5.462001558626392139217387012    3.828219823148981681981695147   10.372115798999525182466641127    0.951611917231119375237824443    1.051641928583830321031200583    0.734215399821457892493015152
  47 2    6.696502418475582807388946094    9.100613218375981361418780580    5.197056146497372353110222321   -0.265622547476900949803280128   -0.277312374408373474299338568   -1.405976048051175153474900981
  48 2    5.756530595246479364845981763    9.119081877422427595547560486   10.381696933917186953522104886    0.297301240939890520920130257    0.091522048220800927831319882    0.303072595591442783824476237