ITEM: TIMESTEP
0
ITEM: NUMBER OF ATOMS
108
ITEM: BOX BOUNDS pp pp pp
0.0000000000000000e+00 1.0956000000000000e+01
0.0000000000000000e+00 1.0956000000000000e+01
0.0000000000000000e+00 1.0629000000000000e+01
ITEM: ATOMS id type x y z fx fy fz
   1 1    1.949842609999999920589175417    1.612389480000000041570729081    2.246311500000000016541434888    0.262884675778256471367910763    2.338821375391831214329840805    4.023002118780266478381690831
   2 1    3.231099480000000134793936013    7.291757800000000067086602940   10.610181889999999782503437018    2.368986506432312122427674694    0.261624492369875061292816554   -1.362385705828704551834107406
   3 1    5.086749189999999920530626696    5.374359089999999561371168966    2.243068689999999865136715016    0.892248698887550983904759505    1.113931964121984030668954802    0.198802737360551373679840026
   4 1    8.926571369999999561173353868    5.120659540000000120585355035    7.824784519999999687911440560    2.310065495994231277165908978    1.553610028941906584520893375    2.797702485933065030820898755
   5 1    0.259272100000000005337597031    7.013375589999999881740677665    5.330541819999999653134636901   -0.146914650817040026709037193    5.056507401996801931431946286   -1.980687504544034860387569097
   6 1   10.736598759999999685987859266   10.880092780000000018958417058   10.615321330000000443760654889    0.579687695036776418078261486    1.647382221481267450258201279    0.708812370585667594902190558
   7 1    7.188178240000000052134510042    3.548039900000000024249402486    5.141905020000000270385953627   -0.946380068785583450363674274   -2.287561471866641937822350883    0.233052057951367325161484700
   8 1    7.268007279999999958874923323    7.106965690000000002157776180    5.450533870000000113975602289   -1.596737598400918001217974052   -0.238399339946837512949073812   -0.612044839567061238483347552
   9 1    1.649426459999999927674707578    5.283368300000000239435848925    2.643377239999999961383991831   -0.822365232305642956944780053   -0.166637808032358003540451818   -0.803740420866857041559683239
  10 1   10.728394910000000450622792414    3.264657810000000104366790765    5.312207639999999564395238849    3.653926559134101470505129328    2.508587539260338949986817170   -3.087585162890647882960593051
  11 1   10.823574170000000549407559447    3.635197509999999798679937157    0.193662289999999986944700936    0.057728304782076689249947776    0.407917382662238647839103578   -2.582751292797174080817512731
  12 1    1.935424840000000035189486880    5.151987680000000402458226745    7.793367530000000265033577307    0.254702015659203695463475015    1.976021025704005618095493446   -0.854657515174528925605557106
  13 1    8.946162779999999870028659643    9.047340889999999191672941379    8.007849059999999852266228118    0.493208435841244852149145572   -0.504622582115360152066330102    0.261102101500823691182517905
  14 1    1.709807159999999992550101524    1.689404459999999996711039785    7.930354720000000412483132095    0.503763843011979517427789688    0.562955963726538000102550541    2.458651005580371418091090163
  15 1    7.389370719999999614913122059    7.287011009999999622266386723   10.475857899999999389706317743   -2.251537746396623074218723559   -0.460698777985888985320173106    1.121296422108781776216801518
  16 1    8.730777129999999885967554292    9.039344870000000753407221055    2.951338380000000150005234900    1.301234443326226397630307474   -0.723374750905133256928536412   -2.808102621555725431079508780
  17 1    5.078994640000000337920482707    8.986125330000000133168214234    2.419384029999999796700649313    1.727706747445507451388380105    0.047518892945105528635707515    0.621058427498414888923150556
  18 1    5.442605880000000340146470990    9.307152459999999294382178050    7.983922330000000400218596042   -4.836745033714263897195451136   -4.572686415628213651984879107    0.552635899017888010398280585
  19 1   10.950757330000000067116161517   10.751653069999999701167325838    5.300467379999999728568127466   -1.408668257067932527704101631    0.660468728321937259551077659   -2.789632022418635948213250231
  20 1    3.527675219999999889353148319    3.473559589999999808185293659    5.181676829999999789322373545   -0.841370622521932953752354933   -0.379347604066067434214204468   -1.206644320490372068732654043
  21 1   10.953803869999999776041477162    7.294074010000000107822870632   10.325891739999999430210664286   -3.707076386423334479758295856   -2.685578280263418715634315959   -0.732727972351230993908188793
  22 1    1.645627900000000032321167964    9.098723429999999723349901615    7.931848419999999677543200960    2.023458081455178358964985819   -0.622334040161128365653553374   -0.691117114869368664997750784
  23 1    7.240641379999999571737134829    3.782527120000000131483375299    0.074847079999999996391402135    0.652731945192828955093489185   -3.078643198505888189941970268   -1.644637660017210345486660117
  24 1    8.949955629999999828783074918    5.408037069999999779668087285    2.687265660000000000451336746    1.178216928337031621509822799    0.813786546668264221260358227   -0.766910581310230599072497171
  25 1    3.823680369999999939523149806    6.990410719999999855645000935    4.813164610000000287470811600   -1.970753472587015497907714234    0.065807445879120296527986511    2.702862262132061044184183629
  26 1    3.773733179999999798326371092    0.046673979999999996859383344    0.022074630000000001334159450   -2.968717747422593422612635550   -2.308833064796774525717637516   -0.441654457232779296127489488
  27 1    7.199962629999999919050424069    0.072845460000000000766462449    5.242678149999999703823050368    2.278280224675565790448672487   -1.840810052714201283663442155   -1.779257029849818927402793634
  28 1    5.669625810000000321053903463    1.624243869999999922981714917    2.625673690000000171096417034   -1.585863930517992459456877441   -1.821407558927311987062580556    1.268285631486812281565335070
  29 1    5.349467930000000315260422212    1.725043019999999982516669661    7.581398270000000216839453060    1.691844684583389213372583981    0.653041925352438212826200470    2.028213115599275084832697758
  30 1    1.425602280000000110504743134    8.986638729999999242181729642    2.579601010000000194111180463   -1.863544139515075359625484452    3.356962270480472021461082477   -0.787968079680357535998780349
  31 1    3.329988769999999931314960122   10.934126239999999441465661221    5.250665520000000086042746261    3.541532844391067413880591630   -1.491888203228448395165628426   -1.166541877838487062390981919
  32 1    3.735774800000000173128000824    3.610602720000000154243480210   10.216593100000000760019247537   -2.403570830469472507928685445   -1.079190147075206995808116517   -2.180297424147620954926196646
  33 1    7.181718260000000242371243075   10.953563819999999395804479718   10.547285739999999520932760788    3.542859881216989137442396895    1.947668220888394863266057655   -2.061436005784509362115386466
  34 1    9.036333499999999574470166408    1.791452480000000013760086404    2.522221519999999994610107024    0.929400671396771294041627698   -0.339018676674598562481577346    2.351683887108804160703812158
  35 1    5.442805159999999808917436894    5.475869389999999725660018157    7.883840089999999634073901689   -1.853083988639922408125926268   -0.209487917774193871389698529   -1.146389868836835246312944037
  36 1    9.049765450000000654995346849    1.700167640000000091049514594    7.771384630000000015570549294   -1.288889328897156127951006965   -0.223066273521222296905008875    3.189973174330709593249366662
  37 2   10.505774900000000471322891826    9.584548079999999359301909863    1.647642320000000104585069494    0.980171511428709951729842942   -0.250989130794581072336768557   -1.031620084745685117511015960
  38 2    5.069864789999999565850430372    7.108639110000000371769601770    3.365243969999999862352524360    2.950070516662885555803086390   -0.199782655317704838093817443   -2.457950018442615736091738654
  39 2   10.824998340000000496274878969    5.572166600000000080683548731    4.057715560000000110107976070    0.463049293197909328512196225   -2.940825021783622261750679172   -0.928580754629773519326363385
  40 2   10.520126610000000155764610099    1.731661099999999953169549372    4.229479139999999581789325021    1.115453889817424659725020319   -1.972974227039508754444341321   -0.033023087045733090505450491
  41 2    1.762981340000000063383822635   10.869558259999999805245352036    3.884804799999999946891193758    0.029466062854880847865501892    1.322453222863638089279447740   -1.741955590508186713094573861
  42 2    1.702418549999999974886577547    0.084679030000000002353921502    1.168723490000000087007947513   -0.664766206094766110012983518   -1.096985655866564268734464349   -2.931851914387614499446499394
  43 2    2.122603059999999874918330534    3.981060900000000124521193356    0.674087349999999974059505803   -1.941739877700427330253774016   -1.072394225171635628868216372    1.552676829382534817725058929
  44 2    0.449506379999999983176905971    1.935586440000000019168169274    9.725751620000000485788405058   -0.446118617140683682009694166   -0.893674409028351934836109649   -0.246506305454484209160881392
  45 2    1.744104050000000016851231521   10.828521350000000822433321446    8.973917809999999661840774934   -0.239756617288379630936745457    0.366682272686399746142171807   -0.333682834967018449034981131
  46 2    1.757487570000000109970983431   10.475639879999999237725205603    6.272265479999999726601345174   -4.102426244691159240574052092    1.452277478849930858473271655    1.120830809529143934355488454
  47 2   10.954229399999999117198967724    1.810007230000000078007360571    6.749824539999999650774498150    0.769382619747742468874207589   -1.133793039155344573032380140    1.651728177097234073755771533
  48 2    1.884323650000000016646595213    3.387104480000000084061184680    3.323790339999999954301301841   -1.176850607841862794700205086   -0.070015099762217369860906047    0.961522522792060296836780253
  49 2    1.471964999999999967883468344    7.533258390000000304098648485    0.959705699999999994886934473   -0.482358930715312439474473649    0.936307078227961886440766648   -0.210663519399869381132361923
  50 2    1.806305309999999941794612823    7.192859089999999788744844409    8.943021319999999718675098848   -0.280044121372756027454897776    1.600224723971846563230769789    0.074235412087816476933710419
  51 2   10.728629149999999725650923210    2.286713419999999885590113990    1.623963349999999916661863608    4.206104237959038094629704574   -0.417433830977243625071082533    0.376117062422538728228005311
  52 2    3.747839110000000140132669912    5.108256250000000164845914696    6.455353299999999627800661983   -1.791637130040043768275381808    2.794255634523712394923222746    2.193976157709752516922208088
  53 2    3.510420620000000102578496808    1.652877710000000055501345742    6.734096059999999717149421485   -1.472963200190751997809002205    0.072410985990872839268561734    0.535084704532142962918328521
  54 2    5.390971229999999891902007221    3.505739549999999926654936644    8.697857909999999748151822132   -0.430296074572847686567911296    0.924933823594034865145374624   -0.424853946550883154742450643
  55 2   10.832870989999999977726474754    5.284404519999999827462033863    1.480132250000000038170355765    0.031981434846981904307483546    0.039556834429607723446764567    0.192267891666913853798703826
  56 2    2.362215270000000089112290880    7.519582889999999686381215724    5.950428709999999732360720373   -3.933224206679958090404625182    0.172744314382580921307663857    1.492992937922218432689192014
  57 2   10.852983580000000074505805969    8.615023479999999622691575496    6.894661560000000299908151646   -0.057600876276894030780795219    1.584230170647783264570307438    0.557947389362846268845430586
  58 2    3.876222059999999913770807325    1.663074890000000083389863903    4.104410670000000038726284401   -1.069691414627718994978522460   -0.566866951829673393348230093    0.872890137213690575634927882
  59 2    5.867386759999999590320385323   10.671627049999999670149009035    3.376312050000000120064669318    0.739010471693857917685477332    0.455110342024918956838064332    0.248657315722472904706563668
  60 2    5.511657709999999710248630436   10.654014509999999660294633941    0.752216140000000033083438211   -1.653578516562957068103401070   -1.213116424749704602703559431    2.241818476684798611131554935
  61 2    3.900288890000000119329115478    1.674056640000000095724885796    1.640563510000000002619913175   -1.919233692021774295710656588   -0.648190059989159794717750174   -2.390392744450788420351727837
  62 2    3.614812999999999831857167010    1.621164360000000081996063273    9.540652789999999328074409277    0.631394765948178449121996891    1.018636830474024979054092910   -0.865331827203831061012806458
  63 2    5.788870469999999990307060216    0.010757700000000000248312482    8.840197870000000790469130152   -0.844264047659597616224402827    1.840145581902386417993966461    0.225979253515480760228228974
  64 2   10.896863350000000281170287053    9.156391100000000449199433206    9.644156830000000013569660950    0.392215875915575551413638777   -1.522887409028383265408024272   -1.445519227225177560924862519
  65 2    3.484418849999999956423835101    5.083448579999999772383034724    3.793037729999999996266524249    0.828779604527480562303765055    0.885723893755633540081362298    0.917019501701617611999495239
  66 2    5.592534569999999760625541967    3.369782279999999907715846348    3.371224160000000136250264404    0.052390512215307077914516753    4.032780145013625805461288110   -0.130073928144798539596749265
  67 2    5.325381609999999987792307365    4.155090170000000249217464443    0.542552629999999980192626481    0.543129494381053179452578661    1.525473322654735230941014379    2.267185494938566581168970515
  68 2    8.984033070000000620325408818    7.099243900000000273564637610    6.240616669999999643891896994    1.317250290200854045963296812   -0.433702641499363883426099164    1.741136298720305397580432327
  69 2    3.514173149999999967718622429    5.488705000000000389093202102    9.191194440000000298596205539    2.366977258681867368750317837    0.645392829208566221055320966    1.227028304153193971615110058
  70 2    5.300510720000000119966898637    3.745419580000000081554389908    6.023561759999999765113898320    3.123853517467684692832108340   -3.393149843915871155530794567   -0.068840658405198762448407024
  71 2   10.942880849999999881561052462    5.458748560000000082936821855    9.191889789999999393899088318   -0.104805614651148557014970208   -0.546532525255280621223619164    0.716497530573321106395212610
  72 2    9.159881029999999313417902158    0.083711510000000002862385884    6.438247200000000169950453710   -0.404990862588182509718137680   -2.327976991304987031128348463   -1.213439409068048924211780104
  73 2    1.734713989999999927960061541    3.596683669999999999333795131    6.294625489999999601309355057   -0.294834218853176011077010799   -1.341029262767348573248682442   -1.269506226810175331110031038
  74 2    6.620186880000000329005160893    1.937912840000000080920017353    0.956906119999999971170723256    1.148456743348218456191034420   -0.165644755910950791655267267    0.782808756787790382958291957
  75 2    9.019277089999999219571691356    0.757089510000000021072708023    0.855259830000000054184283726   -1.478303978751568159566431859   -2.200360514076334261801548564   -1.584252865305598723111302206
  76 2    7.325876540000000325392193190    8.717104040000000608756636211    4.383967079999999683082023694   -0.489512124008225080196154977    2.874674295278878410897505091   -0.400065218771787911578030617
  77 2    7.500802010000000130673925014    1.907809260000000062262870415    3.908682530000000099335011328   -2.071592299924470470529058730   -2.633797787524316813545510740    1.583694645652131027802056451
  78 2    3.511436349999999873006117923    9.568796969999999291189851647    7.256765439999999678377662349    2.773849920183784512062175054    0.042095556014888291240794160   -0.253740623947721344322303594
  79 2    8.945128199999999196734279394    7.260508220000000179084054253    9.057303799999999682768248022    1.595159694338902811594493869   -0.352005989511759320720329924   -4.388703019590131759741780115
  80 2    7.348457840000000018676473701    1.721818340000000002731894710    9.313388079999999291658241418    0.625092645834971150087255864    0.393566970147445127636842699   -0.202798419269836799339046252
  81 2    7.714256330000000438928964286    9.094098689999999152178133954    9.645029779999999774986463308   -1.604827459749980089753762513    2.837604707166349715663500319   -1.034090958538855353765484324
  82 2    5.844856400000000284933321382    7.278290799999999727276644990    8.696497510000000374930095859    0.514643632376898474412030282   -0.494793477180399399184551612    0.046258655054158138997255634
  83 2    9.057191319999999379319888249    7.209691880000000274719695881    3.642728359999999998564135240   -0.129818470900450289029492978   -1.126784760555546993643361020   -0.276257252724559254630776195
  84 2    5.149134840000000323811946146    7.411208770000000001232365321    6.171599180000000295365225611    2.708587474773928249760501785   -1.412679385956335575968978446    0.658285495963935374241771115
  85 2    7.300659220000000004802132025    8.942661129999999403139554488    1.438412790000000107681898953   -0.589797047297045851088626023    0.796386939377218494584553810    1.495495397871757559116190350
  86 2    9.089107679999999689357537136    7.300772509999999826391103852    0.667789030000000005671267900    3.999616918883444505183888396   -0.779418716364360220083540298    2.712548534568827829360770920
  87 2    7.636225399999999829958596820    5.247418050000000278032530332    9.466307190000000204577190743   -1.454583312507226056098375011    1.108634184274661649283189035   -0.673601198845126147851658516
  88 2    4.034540859999999895535438554    8.978513209999999133970050025    9.639727609999999557999217359   -1.271232033686087170565315319    0.814938688921406972909267097    1.726597798773718883680317049
  89 2    9.323872850000000767067831475   10.899982299999999568740349787    9.031152309999999516776370001    0.034934289654284744752743563    0.521782703064990194263828016   -1.375787638800823886597868295
  90 2    7.229691189999999600956925860    5.181592539999999580402345600    6.832519109999999784577084938   -0.837185818122962555065669221    0.269337149482315740822713224    1.628017437891526419946330861
  91 2    5.481094190000000310192262987    0.416356269999999972775128754    5.907082800000000410989287047   -2.483560389381942901110278399   -0.590687665745308509990252332    0.750963922052613530588871527
  92 2    0.415841010000000010915499615    5.613805319999999987601313478    6.492439690000000318548245559   -1.154043353028249008218608651   -2.468207492922323442741117105    3.178709210233155779690150666
  93 2   10.861363609999999724209374108    9.207080239999999804467734066    4.036716270000000328366240865   -0.009668187079872048173001531   -1.382548796846357008760719509    2.164790242210771875619457205
  94 2    1.581015110000000056800217862    7.323643050000000265242761088    3.451352689999999778791561766    1.165257632289693923155482480   -3.242075703585181489785327358    1.556689914608812674856608282
  95 2    3.957490710000000078139237303    9.063814439999999805763764016    4.211261989999999677536379750   -0.966775749897511915698089524    1.251249806718464974153448566    0.011591424180391191045558230
  96 2    3.236044909999999941163650874    5.997076110000000070954229159    1.548869250000000086231466412    1.125479382097477554225406493   -0.668804249596774424979628293    0.038470259465854986236088564
  97 2    5.254545040000000000190993887    7.174171109999999629280864610    0.843935270000000015144792087   -0.900955556429062554002484831    0.682970475338740223847366906   -0.394625024263791424061764701
  98 2    9.145986519999999231345100270   10.867650490000000829127202451    3.599925380000000174618435267   -2.297008615695702360426366795    0.383228426454261306144388755    0.789721066492664824920666433
  99 2    9.196239500000000788304532762    3.383495359999999951838844936    9.050924379999999658252818335    0.847324549035788909812083602    1.012592509590177547451617102   -0.810906490127559442804283663
 100 2    7.196184009999999631190803484    5.904384730000000303107299260    1.613017710000000048964352573   -0.398034426445033839847553736   -2.380195608550184971363705699    0.675893710041248541031677632
 101 2    8.753334869999999767742338008    3.684850870000000000459294824    1.318678170000000093864400696   -0.115486778444518795039286374    0.041339908019746331169219644   -2.192341378320660894019056286
 102 2    9.049475879999999250458131428    3.565999970000000018899299903    3.558829419999999910118049229    0.447514475740849959617406739    2.828700677037719213302580101    2.337436818580381547860724822
 103 2    7.136762169999999905201093497    5.261333600000000387808540836    4.541404359999999584829311061    0.540809040123600093252775878    4.237909482539640393383706396   -3.568621268167107896118750432
 104 2    3.241881170000000089714831120    9.305131190000000884765540832    1.632974090000000044753392103    2.003951507739777149197379913   -0.554382766202414778433649190   -0.592653267959862839475704277
 105 2    9.115554369999999906326593191    3.486788960000000159311639436    6.245700839999999587348611385   -2.587610311029114651404370306    1.247509812367885606576578539    2.502091725184996118258595743
 106 2    7.293438779999999788117293065    1.709359279999999925436782178    6.760675789999999629742433171   -0.431796448915476249741374204    0.808845761564098264528865911   -1.421423325215546817901213217
 107 2    2.127792920000000087554781203    3.527886889999999997513668859    8.786461790000000604550223215   -0.305031703467728509959755456   -1.644526940735891118450240356   -0.711247285039070975543040731
 108 2    6.925965670000000073969204095    9.283918619999999677361302020    6.824914910000000389800334233    5.064396230267801612967559777    0.377499215936231202750406055   -1.232714129938128788666062974
ITEM: TIMESTEP
1
ITEM: NUMBER OF ATOMS
108
ITEM: BOX BOUNDS pp pp pp
0.0000000000000000e+00 1.0956000000000000e+01
0.0000000000000000e+00 1.0956000000000000e+01
0.0000000000000000e+00 1.0629000000000000e+01
ITEM: ATOMS id type x y z fx fy fz
   1 1    1.948289515540279515093402551    1.610031572659942789016440656    2.246832561476319156668068899    0.222097985622924709581127445    2.403292973687591427278675837    3.960261217512078157909627407
   2 1    3.233648162000111181413330996    7.289467137311232747265421494   10.609832294780900951991498005    2.497174341781719597577193781    0.180812008982036032112006296   -1.502182052315400140329870737
   3 1    5.082941562272108804165782203    5.370938138840217312974800734    2.244534618442503681734478960    0.910332900756087415317097111    1.017164460225776112523021766    0.069744122651095530329712346
   4 1    8.927313477888496606738044647    5.125525141378067139896756998    7.823553623536435353003071214    2.193011398445607440521598619    1.422230253077043871101636796    3.045070685841918756153745562
   5 1    0.257255993312640873771357519    7.010893224314142635478219745    5.334473940779682621382562502   -0.061763571064465505600082906    5.469972433815423862313309655   -2.070831149774953860998039090
   6 1   10.734226792544165007825540670   10.880212436033591671957765357   10.617557693682060815376644314    0.600561342773771711378572036    1.773144962309110006515311397    0.741935136911868964304517249
   7 1    7.190996986047212935488914809    3.543485451756146709101358283    5.139148401239157948339197901   -0.906732768172532233030835869   -2.420027996137180448243952924    0.136997795009835443558188217
   8 1    7.271308739842146984244664054    7.107727511475155246500889916    5.454620647977552749807728105   -2.096979505796077614121486477   -0.349436349166666770926781282   -0.841061877001285540522701467
   9 1    1.651334238784990748882819389    5.285061264090732180420673103    2.646883064545337838069372083   -0.930200951197431402661663924   -0.245772601205864027473779743   -0.942167698494099647987809476
  10 1   10.718591156400242070390049776    3.268797033626198000888507522    5.306731693819572548420637759    3.876844711254229025598760927    2.215884808568615582657912455   -3.060994855053241980868961036
  11 1   10.824195456248965285794838564    3.630256985873994146629684110    0.194555493353684105795053938   -0.027041373361506249040076000    0.466730049258333723471992016   -2.562469459883217837159463670
  12 1    1.933156045794898636458469809    5.150488581593569037408997247    7.788704469136962238451360463    0.385842726041512595891447290    2.256497497156923159877806029   -0.921927071761274974370792279
  13 1    8.945963251893877199449889304    9.044626953011288605921436101    8.014552874240200353028740210    0.532584131174609898273786257   -0.353474023466955555861090943    0.262979570683382735118982509
  14 1    1.716000817910723341697121214    1.691973307980143559348107374    7.931686093981119789475542348    0.318548424678910313545543431    0.588872488431373741768481977    2.206870288617882369663902864
  15 1    7.386941673467598334923422954    7.286663521051974790054828190   10.475773261600764385548245627   -2.282500797047998464250895267   -0.540208126594752036098157078    1.139981861673845742188859731
  16 1    8.727649413596942906679032603    9.035423241061138810437114444    2.953323222459101948800253012    1.462249620528112803441445067   -0.332114275199367980917486420   -2.797910631476848042353822166
  17 1    5.080123879023225264006669022    8.984616189593598534202101291    2.422409704816481212930057154    1.785041840660580358957076896    0.165606452641855583785002182    0.573672624606146652759264271
  18 1    5.444749519403447202137158456    9.306917294358237668916444818    7.978867947122309622898228554   -4.942308540326394883379634848   -4.895609660965926757114630163    0.486501394550339028022278853
  19 1   10.955638393292652210675441893   10.748715248253640552889009996    5.297139422340922720877642860   -1.452880821025854363170992656    0.803216526013045717391491962   -2.742885939637139891544848069
  20 1    3.529612200118195985965030559    3.477869532874636959718372964    5.186453060476440946047205216   -0.805361501490318376639265807   -0.512722981903601882081034091   -1.337192832281910215286302446
  21 1   10.949242598744755028405961639    7.290557839318900335001671920   10.322923985980370531478911289   -3.473935553361013450768268740   -2.737410809569836622756611177   -0.482459807116941086224670698
  22 1    1.647084499701175541730435725    9.098999166372729874296965136    7.932623419956414956288881513    2.084643469004803240096634909   -0.540818298147798026676014160   -0.686642342962489493629618664
  23 1    7.241159797791721253190644347    3.781583027773201433063832155    0.076619174337507256478119189    0.990887478970544521850172259   -2.997886924945772246786646065   -1.833007858050032634622539263
  24 1    8.949048588975195173134125071    5.407772700824935441232810263    2.679026849211821215135387320    1.215610281473231690796410476    0.865845518845422490450403075   -0.819306330621929146396098531
  25 1    3.825122159493798967844213621    6.995053743509310528736477863    4.809326966036696404671602068   -2.042056804338856057512430198    0.081971889635384417860386463    2.690850403099877663493089130
  26 1    3.774166177810092115407769597    0.048838343305705696206775457    0.021714936685307051345006357   -2.716462907660635028861406681   -2.275300729356989126728194606   -0.321962741873816071791480908
  27 1    7.201254229625662084401938046    0.071328867472752938150293289    5.241861936569346624992249417    2.101293340287369915131421294   -1.749139614338988346631253989   -1.761803314495687500240705958
  28 1    5.666838241206131776550591894    1.622977773645772892052718817    2.629093380438780602759152316   -1.578669390452926535317601520   -2.022852878378533336700684231    0.973847490194492682036297992
  29 1    5.350892825073453096251796524    1.728574646893047850326752268    7.587300584221523536143649835    1.498703419321729457536207519    0.600287805308510225010820704    1.731649338962934603358689856
  30 1    1.427477399237471189508141833    8.988924012111075612097010890    2.577919162488028881341506349   -1.867912526779043069780072983    3.218629865584544003098699250   -0.714660406812405835097479212
  31 1    3.331559478421425080085782611   10.931092757731095232998086431    5.248622092220822210606456792    3.582389133647199574994601790   -1.344727876624482565404150591   -1.268806408204689262220199453
  32 1    3.736853439514395525122836261    3.614941714056595145621031406   10.212655131957488308103165764   -2.575448662111701647603467791   -0.938369997071220485196363370   -1.962763284872426350347041080
  33 1    7.181993696302427565569814760   10.951290596986178016436497273   10.552907566950946005590594723    3.557635885294981648030443466    2.007446795296302877176231050   -2.128129913266673778338144984
  34 1    9.035654137560609200363614946    1.792481852405264808325568993    2.520745252803126668084132689    0.878431980486123031859335697   -0.450335668745784623023808990    2.215977261952756460772206992
  35 1    5.442274913479504760971394717    5.476374103024381767568229407    7.885108123337452035173100739   -1.845779737969723166557400873   -0.238187773573764305368172245   -1.193111749122291564972897504