ITEM: TIMESTEP
0
ITEM: NUMBER OF ATOMS
108
ITEM: BOX BOUNDS pp pp pp
0.0000000000000000e+00 1.0956000000000000e+01
0.0000000000000000e+00 1.0956000000000000e+01
0.0000000000000000e+00 1.0629000000000000e+01
ITEM: ATOMS id type x y z fx fy fz vx vy vz
   1 1    1.949842609999999920589175417    1.612389480000000041570729081    2.246311500000000016541434888    0.293402833063486800924124509    2.239146379115609875043446664    3.580599125812593541695605381   -0.349055715573849068000811258   -0.540776824404237244081627978    0.094872844030720715480242688
   2 1    3.231099480000000134793936013    7.291757800000000067086602940   10.610181889999999782503437018    2.501936631996757309792656088    0.307913102115127457203413996   -1.481139367011550245223361344    0.554781682048225643910654981   -0.514068681013705508497935170   -0.069220314897371820750393567
   3 1    5.086749189999999920530626696    5.374359089999999561371168966    2.243068689999999865136715016    0.985963386545445907849227751    1.262312973900377333080768949   -0.072487873330562280216327053   -0.857370303894087637530674328   -0.772576966974476864180587654    0.328229659257063044464075574
   4 1    8.926571369999999561173353868    5.120659540000000120585355035    7.824784519999999687911440560    2.286952886142450402928716358    1.810723931535053399244361572    2.977849220988382228370028315    0.152118725946934096882046106    1.077038082590901613144751536   -0.293234024940383586343983779
   5 1    0.259272100000000005337597031    7.013375589999999881740677665    5.330541819999999653134636901   -0.543594443692203332929580029    4.861722021239648583446069097   -1.715949444360290954136871733   -0.447529842007313549689939691   -0.584456600258126290903248901    0.889619608633345881898435437
   6 1   10.736598759999999685987859266   10.880092780000000018958417058   10.615321330000000443760654889    0.232376775227769782894426953    1.527268671953426082410487652    0.694939003519862374957938300   -0.531792461202096000683070542    0.017525558562634345471931141    0.495866123122871371720066236
   7 1    7.188178240000000052134510042    3.548039900000000024249402486    5.141905020000000270385953627   -0.800288358943190281102886274   -2.297890908236698503941397576    0.372105461978516016685603063    0.635127474942878467167872714   -1.004517838686829867000938066   -0.618647585138826450190663309
   8 1    7.268007279999999958874923323    7.106965690000000002157776180    5.450533870000000113975602289   -1.746547060340881030171544808   -0.141205158268610131422349241   -0.573534145788687999001354001    0.748784458541680963961084672    0.171201861231879221003637781    0.917297601337876300497953252
   9 1    1.649426459999999927674707578    5.283368300000000239435848925    2.643377239999999961383991831   -0.764459724820051977900448037    0.115110359890095770296625233   -0.669451999832345823193691103    0.431212465294659563763701726    0.377862587285640150192023157    0.787972162841680701106383822
  10 1   10.728394910000000450622792414    3.264657810000000104366790765    5.312207639999999564395238849    3.615854810890025916592094291    2.568934985752908684020212604   -2.897095773887392589074352145   -2.214039067050920461809937478    0.910032684221885435071897064   -1.206949630789138749875633039
  11 1   10.823574170000000549407559447    3.635197509999999798679937157    0.193662289999999986944700936    0.249308763262170662855510272    0.591322008741874904913515820   -2.150931094053168290969324516    0.137417082833309639466889962   -1.108308548078735800146432666    0.212725910203526380470862023
  12 1    1.935424840000000035189486880    5.151987680000000402458226745    7.793367530000000265033577307    0.208403997049662698115568560    2.413213285143746222871641294   -0.679656795932556789807676978   -0.508577336865394413756291669   -0.349793315927756198746578775   -1.038584469850684977032528877
  13 1    8.946162779999999870028659643    9.047340889999999191672941379    8.007849059999999852266228118    0.630809516313511897678267815   -0.442214082897706584063257651    0.125487106146339705281533838   -0.048428260325105720873750670   -0.604182152905728409031382853    1.498260029338068788362647865
  14 1    1.709807159999999992550101524    1.689404459999999996711039785    7.930354720000000412483132095    0.205739046434882055791604216    0.550114779854265045777594878    2.215433408384097191401451710    1.383700588011761656304088319    0.571087145556905761978327973    0.284314871753014897226563562
  15 1    7.389370719999999614913122059    7.287011009999999622266386723   10.475857899999999389706317743   -2.196435899147128445463295066   -0.263566395328455271851453290    1.076394770686859736485985195   -0.529876731048686044900364323   -0.076107976377497749131961768   -0.025431121636050997569800103
  16 1    8.730777129999999885967554292    9.039344870000000753407221055    2.951338380000000150005234900    1.162208991531975321720437933   -0.935307863517994553248513512   -2.698055954762396346779951273   -0.706402684233909727851141724   -0.871250174807780553010161384    0.460130489898824712735603271
  17 1    5.078994640000000337920482707    8.986125330000000133168214234    2.419384029999999796700649313    1.684557264487202221658890267   -0.625105723806161028832661941    0.431412996699443773707116634    0.242324573872840648425253107   -0.333676106150881557343979011    0.673954128767094928775804874
  18 1    5.442605880000000340146470990    9.307152459999999294382178050    7.983922330000000400218596042   -4.855198587304126789376823581   -4.779782179960356813808175502    0.763208956233431878857231823    0.508675675298596030593500927   -0.023697096992488817651656419   -1.134806970988085250695576178
  19 1   10.950757330000000067116161517   10.751653069999999701167325838    5.300467379999999728568127466   -1.304826932016540874670340600    0.428037626096495649186124410   -2.426319950196631047845130524    1.099324906698952553085746331   -0.659503841336970153541585660   -0.729490020771968672441687431
  20 1    3.527675219999999889353148319    3.473559589999999808185293659    5.181676829999999789322373545   -0.495331986851880956557181435   -0.122787809212773574296662105   -1.191473118231244576747940300    0.436115556307710205974359496    0.964474616583000265990222033    1.075198500645087706928393345
  21 1   10.953803869999999776041477162    7.294074010000000107822870632   10.325891739999999430210664286   -3.631564936565358170383888137   -2.526096787089058715025657875   -1.021359714750101232993984013   -0.997983193188849759813763285   -0.770972711288002487961534825   -0.657437187639131392913327545
  22 1    1.645627900000000032321167964    9.098723429999999723349901615    7.931848419999999677543200960    1.696801701713824606088110158   -0.887895356984136796540951764   -0.772838187948353461109718410    0.315450645151360231643877796    0.067022694840548652228662263    0.177966055742107248649475082
  23 1    7.240641379999999571737134829    3.782527120000000131483375299    0.074847079999999996391402135    0.608236820980355918919713076   -3.226373492381370056136802305   -1.631082539713686330173914030    0.112245745304424451860292322   -0.191606226698723819401593005    0.406110103272336153690247329
  24 1    8.949955629999999828783074918    5.408037069999999779668087285    2.687265660000000000451336746    0.974024687757209406413494435    0.874399103187728066188810772   -0.667258019504386012954455509   -0.208707245783009531781004853   -0.064399344947855291509952735   -1.838221394572124189892292634
  25 1    3.823680369999999939523149806    6.990410719999999855645000935    4.813164610000000287470811600   -1.883916039446585699579372886    0.467137126644807887387855772    2.689600570221337694221119818    0.333779743100610093442526249    1.035388385119274889945018003   -0.874378399366067426967674692
  26 1    3.773733179999999798326371092    0.046673979999999996859383344    0.022074630000000001334159450   -2.842628053235568774681496507   -2.386081331100141422751903519   -0.361959831114929242446009994    0.114001226798675137086291898    0.498387092492275141086821577   -0.078242295945785370059333275
  27 1    7.199962629999999919050424069    0.072845460000000000766462449    5.242678149999999703823050368    2.065397679905474070949367160   -1.952139432735967794485532067   -1.497596003088059291030731401    0.276327825472778065840628869   -0.327322265859318783931541930   -0.173459860088244405273982807
  28 1    5.669625810000000321053903463    1.624243869999999922981714917    2.625673690000000171096417034   -1.448893696106053452510309398   -1.418712970232643977297470883    0.922935928026240359756116050   -0.614562661906355334195950491   -0.274533484873955624383512486    0.759088086324931299309071164
  29 1    5.349467930000000315260422212    1.725043019999999982516669661    7.581398270000000216839453060    1.924702668496034885237122580    0.665321491223405114823208351    1.768679439531375185978845366    0.306983911251743457615503985    0.785674781145287659533948954    1.309108225730847063772444017
  30 1    1.425602280000000110504743134    8.986638729999999242181729642    2.579601010000000194111180463   -1.924285320134241361600402342    3.211294501696999592610382024   -0.728699215801467348185838091    0.430919199017399390250204760    0.491596534696800313568587626   -0.371668501648607374487909283
  31 1    3.329988769999999931314960122   10.934126239999999441465661221    5.250665520000000086042746261    3.444621102026864001288686268   -1.784176906115870542279822075   -1.263009699991300527344151305    0.330402845709762471582138232   -0.667524237582704738080963125   -0.449291098459704052459073864
  32 1    3.735774800000000173128000824    3.610602720000000154243480210   10.216593100000000760019247537   -2.351832789761225228630792117   -0.757803815171418371221534471   -2.027382626622499461888082806    0.255404884585385627548959064    0.974808500540214395435612005   -0.868303544166666663173259622
  33 1    7.181718260000000242371243075   10.953563819999999395804479718   10.547285739999999520932760788    3.886770464302180538851416713    1.751753887273373111455043727   -2.169945948062711238435440464    0.038098979682530204060597612   -0.518895182498029239326342577    1.270193210504438896535361891
  34 1    9.036333499999999574470166408    1.791452480000000013760086404    2.522221519999999994610107024    0.891340209199350752555801591    0.073680518099119435282418067    1.946413984689267184791106047   -0.157297046726044859044080226    0.229729364755715953494430437   -0.341866910312249472347900792
  35 1    5.442805159999999808917436894    5.475869389999999725660018157    7.883840089999999634073901689   -1.837659362043655653096152491    0.173655602867949926393364990   -1.154557610718852878051166044   -0.107460476289760270551809640    0.111807741904248081343808963    0.290518666502582789679109965
  36 1    9.049765450000000654995346849    1.700167640000000091049514594    7.771384630000000015570549294   -1.169521821239732695119073469   -0.431289452930965877541780173    3.340006929159557991226847662    0.329564371475095041486014225    0.176214342230854553728036649    0.096629312700826849868995794
  37 2   10.505774900000000471322891826    9.584548079999999359301909863    1.647642320000000104585069494    0.979024580854801262930209305   -0.357809761056678388158047710   -1.010232558981144723730949408    0.064877744423521260808129796   -2.461354701114312426568631054    4.481072468349124982012199325
  38 2    5.069864789999999565850430372    7.108639110000000371769601770    3.365243969999999862352524360    2.978970631120247070100504061   -0.168781711921178190216608073   -2.179643560428702109277310228   -1.348571583084015479414574656   -1.375792682486513207607004006   -2.853023924755534679320589930
  39 2   10.824998340000000496274878969    5.572166600000000080683548731    4.057715560000000110107976070    0.539253594917838974254209461   -2.986329713234999516657808272   -0.922541672044617233616747853    2.818442739576100919407508627    5.195788235341012750723166391   -1.089560199241687454829730086
  40 2   10.520126610000000155764610099    1.731661099999999953169549372    4.229479139999999581789325021    1.235501522531729623466389967   -1.929916454469372322222397997   -0.012490556007788589099050114    0.661061778753299855715397371    2.155237969412802101487613982   -3.654269901478695015129005697
  41 2    1.762981340000000063383822635   10.869558259999999805245352036    3.884804799999999946891193758    0.142188526026554962200521004    1.419441320359279945506614240   -1.674997702872196736478827006   -2.469192798654553655524068745   -2.205444216169217597212082183   -3.109549512774327784114802853
  42 2    1.702418549999999974886577547    0.084679030000000002353921502    1.168723490000000087007947513   -0.630099315274198934488936175   -0.773626192086625086297146936   -2.725300382943903976240562770    0.509382899242187048294283613   -1.507276312040636723210695891   -0.303307363313090994072496187
  43 2    2.122603059999999874918330534    3.981060900000000124521193356    0.674087349999999974059505803   -2.101466300240333318072316615   -1.404944968880693201285225769    1.262597743731082911011753822   -2.422024702419427466537626970   -3.385025362188228026383285396    5.962809409500700930095717922
  44 2    0.449506379999999983176905971    1.935586440000000019168169274    9.725751620000000485788405058   -0.482277699950307892073908533   -0.880419454445556248778359532   -0.393653929643811961724964021   -0.005393199886988384213204473   -0.092863000347226679065393284    1.342080745211109427117435189
  45 2    1.744104050000000016851231521   10.828521350000000822433321446    8.973917809999999661840774934   -0.278695357443992097756790827    0.293017076592609670981914860   -0.163782634868010257278569952    0.101767492721469537952927453    4.356744971522505949224068900   -3.315425250391634381941230458
  46 2    1.757487570000000109970983431   10.475639879999999237725205603    6.272265479999999726601345174   -4.030348463821182392052833166    1.458435554366459552255719245    1.146169883643669340500537146    1.144312844463710066023054424    2.166386819447244871383873033    0.003671886174108783887359841
  47 2   10.954229399999999117198967724    1.810007230000000078007360571    6.749824539999999650774498150    0.831103069795072868508611919   -1.013303815082383652068642732    1.537691165452607089392245143   -2.109645873355872947030320574    0.599834817930033126209821148    0.808237394670097475390946329
  48 2    1.884323650000000016646595213    3.387104480000000084061184680    3.323790339999999954301301841   -1.180450493517645860208631348   -0.420556708505333887160304585    1.020718356228710321786934401    0.932711603790029375460335359   -0.205795644597440402501220547    0.097851422842888086117696389
  49 2    1.471964999999999967883468344    7.533258390000000304098648485    0.959705699999999994886934473   -0.305318167375416393838349904    0.948773796865646890097423238    0.044459113114077020156855724    4.603027114488313920048767613   -2.630943940186843299500196736   -0.933615162542606791262755905
  50 2    1.806305309999999941794612823    7.192859089999999788744844409    8.943021319999999718675098848   -0.115927374116829740025025330    1.581800358119075156082544709   -0.015886460709519198419847896   -3.239890579743358145492493350   -1.640540385618159069380794790   -3.465971199148494275021903377
  51 2   10.728629149999999725650923210    2.286713419999999885590113990    1.623963349999999916661863608    4.157334061158064031360481749   -0.435274320503823863859338417    0.408804753153839239843136966   -0.844782557911520459725807086    0.631481062954656668928521412    2.164377295182498883718835714
  52 2    3.747839110000000140132669912    5.108256250000000164845914696    6.455353299999999627800661983   -2.048631200285551567930042438    2.781154653586924929697943298    2.419756362926384074540919755   -2.613985622692060584171258597   -0.683735539196392072547325824    0.067968875927167868300493581
  53 2    3.510420620000000102578496808    1.652877710000000055501345742    6.734096059999999717149421485   -1.571582665022581704050708140    0.157739771443350246249437419    0.335049393522060701133824523   -2.581785912474570565677822742    0.560638693359808093497065329   -0.248729748214236073833305340
  54 2    5.390971229999999891902007221    3.505739549999999926654936644    8.697857909999999748151822132   -0.399720259249398746081993750    0.844611939116185483911181109   -0.308832332391999420106998286   -1.680362356503645182570494399    5.297948294531825474962261069    0.566253823914013576512616055
  55 2   10.832870989999999977726474754    5.284404519999999827462033863    1.480132250000000038170355765   -0.014675557337199274243744185   -0.025287839716971016734703426   -0.081569787145270744588287926   -2.446261035929735427885134413    2.107285540807048107581067597   -1.241978236816204450576606177
  56 2    2.362215270000000089112290880    7.519582889999999686381215724    5.950428709999999732360720373   -3.901498456830813310602934507    0.052727751619076057565393967    1.496996379248148434371046278    0.462649144743671192347989063   -2.914588637969773632363512661    1.119668767335840087184806180
  57 2   10.852983580000000074505805969    8.615023479999999622691575496    6.894661560000000299908151646    0.080104108903908732841614437    1.576986225075691416819267943    0.520407474544013592954172509    0.878970905835237070746757126    0.226652987668459177106328184    3.618593523217055629714877796
  58 2    3.876222059999999913770807325    1.663074890000000083389863903    4.104410670000000038726284401   -1.155876278773175558356456349   -0.349369077608877531826436780    0.744518515493984400777094379    3.638649286727600351554201552   -1.021454087918474140650459958   -2.380201260852723876837444550
  59 2    5.867386759999999590320385323   10.671627049999999670149009035    3.376312050000000120064669318    0.853833199887040095177326293    0.669943787849371030773681923    0.193123277992920283629985079   -1.897850822284802285722093984    3.808403780168729824140427809   -0.155871180972132511444172565
  60 2    5.511657709999999710248630436   10.654014509999999660294633941    0.752216140000000033083438211   -1.964035687081170600265522808   -1.047175225616173932507990685    2.238567234772175673640504101    2.191990476979923663236604625    3.112419393873433026698194226    4.001440120877717276925977785
  61 2    3.900288890000000119329115478    1.674056640000000095724885796    1.640563510000000002619913175   -1.993570148496136118509980406   -0.587544094220589396826426309   -2.171913425333818370432936717   -0.663358272134193738267526896   -1.824242553406868028176290863   -0.524227737739087484847289033
  62 2    3.614812999999999831857167010    1.621164360000000081996063273    9.540652789999999328074409277    0.693299460314961146778500733    0.885519877379884690071776276   -0.954017444771130485037247126   -2.073037912131655780001437961    0.398327823822384630148008000   -3.197540848908760668933837223
  63 2    5.788870469999999990307060216    0.010757700000000000248312482    8.840197870000000790469130152   -1.116529215583740075601326680    1.800981006747661261613302486    0.127113729311689294121379135   -3.323933544290531116871534323   -1.812506158577308568169428327   -1.799832627744074375897298523
  64 2   10.896863350000000281170287053    9.156391100000000449199433206    9.644156830000000013569660950    0.343983335807172663223241216   -1.317977933393256195770959494   -1.441895239238783155144574266   -3.509261853262197750069617541    0.959162292984525266525963616    2.426366405292895045420209499
  65 2    3.484418849999999956423835101    5.083448579999999772383034724    3.793037729999999996266524249    0.776182295824482615387296391    0.593183379803397969887157615    0.960672243910007384037896827   -0.716362228675295087398922078    0.215249193063546312432166019   -3.712098607991069609823853170
  66 2    5.592534569999999760625541967    3.369782279999999907715846348    3.371224160000000136250264404    0.000165213978917166937065986    3.790846797916043620091386401    0.044305756439568175220067303   -1.630281295365524130147605320   -2.977047435839947908675640065   -2.142408373912217278700609313
  67 2    5.325381609999999987792307365    4.155090170000000249217464443    0.542552629999999980192626481    0.523795483197090905314041720    1.466830414555996942027604746    2.066033346949523341606891336    3.330596258817719590439310196   -1.474228271130325840232444534   -1.906628523909897898747090039
  68 2    8.984033070000000620325408818    7.099243900000000273564637610    6.240616669999999643891896994    1.248834427735050045527032125   -0.590670321860838676286675764    1.791131570456740984553789531   -2.063754723658781209394419420    1.396189914477457660879622381   -3.425834421856265965544707797
  69 2    3.514173149999999967718622429    5.488705000000000389093202102    9.191194440000000298596205539    2.200067881473315445362004539    0.488073669550226019175909187    0.887176964054900984990581492    1.536392924506214674451598512    2.000670627702902049094291215    0.512626795417532310494834746
  70 2    5.300510720000000119966898637    3.745419580000000081554389908    6.023561759999999765113898320    3.215655721055799443064415755   -3.839502138034888378825826294    0.026755580410583401640423062    2.136648069522400383846161276   -2.252610869711883623267567600    0.312862636865479437631165638
  71 2   10.942880849999999881561052462    5.458748560000000082936821855    9.191889789999999393899088318   -0.098719111757582300725744062   -0.890804340055728616221131233    0.537252736009313558440680936   -2.161162419147202307101451879   -0.723291012465254734564723549    2.362327457678965902942991306
  72 2    9.159881029999999313417902158    0.083711510000000002862385884    6.438247200000000169950453710   -0.394106239192721474751124333   -2.080563202632526476065777388   -1.152337463623611668595003721    6.592573883444649673890580743    2.914595146969122918534367273   -0.484433506035522265520398832
  73 2    1.734713989999999927960061541    3.596683669999999999333795131    6.294625489999999601309355057   -0.197731290872223880450420097   -1.475050941937857462704641875   -1.177761364743166172530663971    3.450336103472593229923859326   -1.816291750592548437381879012   -0.117777643074194554584366301
  74 2    6.620186880000000329005160893    1.937912840000000080920017353    0.956906119999999971170723256    1.024827822354941186944188303   -0.200354233422951999443739624    0.950444863118905081122989031    1.298224421548687779193187453    2.021361510051390641962143491    1.581267579396563371929573805
  75 2    9.019277089999999219571691356    0.757089510000000021072708023    0.855259830000000054184283726   -1.251798668617125187552119314   -2.127007213728595580448654800   -1.450202179664596524588660031    1.436293837491658731408961103    2.362950074413010081997299494   -3.590783863786056961941994814
  76 2    7.325876540000000325392193190    8.717104040000000608756636211    4.383967079999999683082023694   -0.557184626630653156986738850    2.980157449389960522267983833   -0.330596353319407509907534859    0.251804331910572332109410354   -1.297128701212424184419091944   -1.094528724642087169627302501
  77 2    7.500802010000000130673925014    1.907809260000000062262870415    3.908682530000000099335011328   -2.275287668242518712702349148   -2.826744291421271260134062686    1.551838114098417209518743221    1.126702106524663404840680414   -0.713938427637140438086760241   -3.884653137392615196432643643
  78 2    3.511436349999999873006117923    9.568796969999999291189851647    7.256765439999999678377662349    2.897914501533689790591097335    0.263259827340923013849760537   -0.367426011314183231792895867    1.463499310536469755206212540   -2.349459084878401160523253566    1.995185058803100597302204733
  79 2    8.945128199999999196734279394    7.260508220000000179084054253    9.057303799999999682768248022    1.469708759926481977942103185   -0.418066465352659066834206669   -4.313539318171764058718054002   -0.829609543506053204175998417    1.097940155556960784011266696    0.489230126894675210191820725
  80 2    7.348457840000000018676473701    1.721818340000000002731894710    9.313388079999999291658241418    0.623927613333795982875074060    0.549430484116347539469416006   -0.137108783413633861236746725    2.675593018138652023907297917    5.052679195081352325757961808    0.935986911111612029934292423
  81 2    7.714256330000000438928964286    9.094098689999999152178133954    9.645029779999999774986463308   -1.865922458508532333354423827    2.745021111961387649813559619   -1.056023816881437538128807319   -1.618020028452375136396312882   -0.330911542895697685651157371    0.720433528686466151391698531
  82 2    5.844856400000000284933321382    7.278290799999999727276644990    8.696497510000000374930095859    0.565112620847459168338389190   -0.716248062509361460570289637   -0.014002706974597156630579775   -1.978197384215733212187160461   -4.512704752030662014306017227    0.181161466164374951315352291
  83 2    9.057191319999999379319888249    7.209691880000000274719695881    3.642728359999999998564135240   -0.161504942581992771977184020   -1.073180824261870336400193082   -0.393410018848824205583980529    0.670581542145040843116987617    1.368175568811428544080399661   -0.324135414742852179248444600
  84 2    5.149134840000000323811946146    7.411208770000000001232365321    6.171599180000000295365225611    2.838812515370667366454426883   -1.543715969189739745104361646    0.439904169938329425715295429   -3.216136306625554830418423080    2.985246024944943066259384068   -0.209845918643511597512230082
  85 2    7.300659220000000004802132025    8.942661129999999403139554488    1.438412790000000107681898953   -0.534909357474592006553848478    0.803578825354375192446809706    1.481696621838811456228768293    1.595791098034890609369540471   -0.217894490805594781557275041   -2.658868146359898432251611666
  86 2    9.089107679999999689357537136    7.300772509999999826391103852    0.667789030000000005671267900    3.938590709827450186963915257   -0.773022823956657889610255552    2.762320201062002489322821930    0.057575587907213954252938493    1.767545614965217337655190022   -0.551574933900266795028244360
  87 2    7.636225399999999829958596820    5.247418050000000278032530332    9.466307190000000204577190743   -1.328612674991068276497685474    1.041519095032448216642251282   -0.641493563037536351778555854   -1.147895290724112227209730008    3.164072988537596220481873388    0.008774949871292337527650673
  88 2    4.034540859999999895535438554    8.978513209999999133970050025    9.639727609999999557999217359   -1.247091122750117353490395544    0.949858319187125044180675104    1.644261995692052336082156216    1.389680853801484650134057119   -0.545702534677735884294236257    2.204094985497144776331879257
  89 2    9.323872850000000767067831475   10.899982299999999568740349787    9.031152309999999516776370001    0.185165381975921028434584059    0.496912951373489841788710919   -1.479658604299314728081071735   -1.323214641848642791899237636    0.503748522365700224234785765   -1.493143425893939779669494783
  90 2    7.229691189999999600956925860    5.181592539999999580402345600    6.832519109999999784577084938   -0.850700832772183779262320513    0.293385679726770043362904516    1.630653653351699761131499145    0.546744315759527421683117154    1.554520588320840612794881963   -1.222008550914640556683821160
  91 2    5.481094190000000310192262987    0.416356269999999972775128754    5.907082800000000410989287047   -2.319985962835994008912621211   -0.625801548187079226259754705    0.977756125918615270897760183   -2.027777022904757586729829200   -4.617712298167759854550240561    1.296225991429629909035270430
  92 2    0.415841010000000010915499615    5.613805319999999987601313478    6.492439690000000318548245559   -1.137343924705948028375246395   -2.530659326386532015362718084    3.065179933326990457942429202    1.714054937998590100178830653    0.578489350027649340546531675   -0.997825193263755405581605373
  93 2   10.861363609999999724209374108    9.207080239999999804467734066    4.036716270000000328366240865   -0.116565109386411125402815969   -1.252715679634224699157130090    2.169134973272878408323549593   -1.827170422095967694531282177    1.521511649104313690372691781    0.361558704488339599514290512
  94 2    1.581015110000000056800217862    7.323643050000000265242761088    3.451352689999999778791561766    1.142640821341047496773057901   -2.947043459391485153986423029    1.527124555794950877540827605   -4.060704924626620027083845343   -1.321874658398956237093102573   -1.166356230687375150623097397
  95 2    3.957490710000000078139237303    9.063814439999999805763764016    4.211261989999999677536379750   -0.845545418654807590108646309    1.417669592063365069378733097    0.161489154713915950001279498    0.338233565050660434092577589    1.187887503564066804528920329    0.812866214559816224749511093
  96 2    3.236044909999999941163650874    5.997076110000000070954229159    1.548869250000000086231466412    0.873409268887406553538710341   -0.777630463978219221843346531    0.180604454158287408560568110    0.048914836121187382778074948    0.594735873757809119233286310    0.872542506419764163361207920
  97 2    5.254545040000000000190993887    7.174171109999999629280864610    0.843935270000000015144792087   -0.935241478405881787594466914    0.869297052521850854844842615   -0.409753833749598173064043749   -0.135121393837278530591916592    0.135885574774482265070219000    0.414651675346381642928150768