LAMMPS (27 Jun 2024)
# necessary preliminaries
units metal
atom_style charge
dimension 3
boundary p p p

read_data relaxed_orthog_Hf_15_9_9_singleOint_DATA
Reading data file ...
  orthogonal box = (0 0 0) to (47.496082 49.359376 46.322428)
  1 by 1 by 1 MPI processor grid
  reading atoms ...
  4861 atoms
  read_data CPU = 0.010 seconds

# neighbor parameters
neighbor 2.0 bin
neigh_modify every 1 delay 0 check no

# interatomic potential parameters
pair_style comb
pair_coeff * * ffield.comb Hf O
Reading comb potential file ffield.comb with DATE: 2011-02-22

#set up some qeq diagnostics
group type1 type 1
4860 atoms in group type1
compute charge1 type1 property/atom q
compute q1 type1 reduce ave c_charge1

group type2 type 2
1 atoms in group type2
compute charge2 type2 property/atom q
compute q2 type2 reduce ave c_charge2

thermo 100
thermo_style custom step temp etotal pe ke evdwl ecoul press vol c_q1 c_q2

# dump output
dump 1 all custom 50 1500K_nvt.lammpstrj id type q x y z
dump_modify 1 sort id

# set up qeq and NVT fixes
fix qeq all qeq/comb 1 0.003
fix 1 all nvt temp 1500.0 1500.0 0.1

# run
run 10000

CITE-CITE-CITE-CITE-CITE-CITE-CITE-CITE-CITE-CITE-CITE-CITE-CITE

Your simulation uses code contributions which should be cited:

- Type Label Framework: https://doi.org/10.1021/acs.jpcb.3c08419

@Article{Gissinger24,
 author = {Jacob R. Gissinger, Ilia Nikiforov, Yaser Afshar, Brendon Waters, Moon-ki Choi, Daniel S. Karls, Alexander Stukowski, Wonpil Im, Hendrik Heinz, Axel Kohlmeyer, and Ellad B. Tadmor},
 title = {Type Label Framework for Bonded Force Fields in LAMMPS},
 journal = {J. Phys. Chem. B},
 year =    2024,
 volume =  128,
 number =  13,
 pages =   {3282–-3297}
}

CITE-CITE-CITE-CITE-CITE-CITE-CITE-CITE-CITE-CITE-CITE-CITE-CITE

Neighbor list info ...
  update: every = 1 steps, delay = 0 steps, check = no
  max neighbors/atom: 2000, page size: 100000
  master list distance cutoff = 14
  ghost atom cutoff = 14
  binsize = 7, bins = 7 8 7
  1 neighbor lists, perpetual/occasional/extra = 1 0 0
  (1) pair comb, perpetual
      attributes: full, newton on
      pair build: full/bin/atomonly
      stencil: full/bin/3d
      bin: standard
Per MPI rank memory allocation (min/avg/max) = 22.42 | 22.42 | 22.42 Mbytes
   Step          Temp          TotEng         PotEng         KinEng         E_vdwl         E_coul         Press          Volume          c_q1           c_q2     
         0   0             -33950.793     -33950.793      0             -33942.603     -8.1903744      61.091614      108597.23      0.00030850194 -1.4993194    
       100   0.70274415    -33951.074     -33951.516      0.4414669     -33944.182     -7.3335827      22.050719      108597.23      0.00031139003 -1.5133555    
       200   0.42053487    -33951.226     -33951.49       0.26418182    -33944.184     -7.3063693      23.93065       108597.23      0.00031064527 -1.509736     
       300   0.4190299     -33951.163     -33951.426      0.26323638    -33944.053     -7.373372       24.459361      108597.23      0.00031296863 -1.5210275    
       400   0.4660695     -33951.076     -33951.369      0.29278686    -33944.007     -7.3618841      29.967665      108597.23      0.00031211578 -1.5168827    
       500   0.51021641    -33951.007     -33951.328      0.32052015    -33943.967     -7.3607713      25.704149      108597.23      0.00031273828 -1.519908     
       600   0.53871808    -33950.898     -33951.237      0.33842501    -33943.906     -7.3302028      35.081711      108597.23      0.00031157044 -1.5142323    
       700   0.64815294    -33950.765     -33951.172      0.40717247    -33943.829     -7.3432503      30.712116      108597.23      0.00031303544 -1.5213522    
       800   0.82257989    -33950.561     -33951.077      0.51674823    -33943.726     -7.3518617      43.474127      108597.23      0.00031202581 -1.5164455    
       900   1.0824949     -33950.312     -33950.992      0.68002799    -33943.599     -7.3931278      39.38856       108597.23      0.00031395609 -1.5258266    
      1000   1.448943      -33949.97      -33950.88       0.9102322     -33943.487     -7.3935066      54.438011      108597.23      0.00031302327 -1.5212931    
      1100   1.7671081     -33949.562     -33950.672      1.1101049     -33943.287     -7.3853887      53.204522      108597.23      0.00031325632 -1.5224257    
      1200   2.1296063     -33949.041     -33950.378      1.3378278     -33943.039     -7.3391329      73.060875      108597.23      0.00031177354 -1.5152194    
      1300   2.6730213     -33948.292     -33949.971      1.6792035     -33942.624     -7.3473836      80.805469      108597.23      0.0003123502  -1.518022     
      1400   3.4314114     -33947.364     -33949.52       2.1556274     -33942.201     -7.3188374      107.36092      108597.23      0.00031135349 -1.513178     
      1500   4.4307465     -33945.997     -33948.78       2.783414      -33941.465     -7.3146394      128.38514      108597.23      0.00031171768 -1.5149479    
      1600   5.9475654     -33944.296     -33948.032      3.7362862     -33940.683     -7.3489613      168.6553       108597.23      0.00031215714 -1.5170837    
      1700   8.1275773     -33941.888     -33946.993      5.105779      -33939.645     -7.3482748      207.41049      108597.23      0.00031270233 -1.5197333    
      1800   10.532078     -33938.834     -33945.45       6.6162969     -33938.05      -7.3994079      277.94909      108597.23      0.00031297884 -1.5210772    
      1900   13.949279     -33934.527     -33943.29       8.7629973     -33935.942     -7.3479573      354.96563      108597.23      0.00031248302 -1.5186675    
      2000   19.865263     -33928.819     -33941.298      12.479444     -33933.871     -7.4271269      459.04454      108597.23      0.00031351619 -1.5236887    
      2100   25.397462     -33921.274     -33937.229      15.954795     -33929.861     -7.3682309      616.59728      108597.23      0.00031216529 -1.5171233    
      2200   32.802834     -33910.891     -33931.498      20.606882     -33924.008     -7.4897276      837.49873      108597.23      0.00031498662 -1.530835     
      2300   45.955757     -33896.543     -33925.412      28.869605     -33918.023     -7.3891026      1110.9399      108597.23      0.00031145475 -1.5136701    
      2400   62.56667      -33877.676     -33916.981      39.304652     -33909.414     -7.5662962      1460.9788      108597.23      0.0003162521  -1.5369852    
      2500   83.773928     -33851.999     -33904.626      52.627142     -33897.228     -7.398044       1971.6412      108597.23      0.00031108224 -1.5118597    
      2600   115.1077      -33816.748     -33889.059      72.31115      -33881.456     -7.6032563      2630.3985      108597.23      0.00031545136 -1.5330936    
      2700   157.48357     -33769.707     -33868.639      98.931857     -33861.236     -7.4030681      3525.783       108597.23      0.00031124916 -1.5126709    
      2800   205.17848     -33706.844     -33835.738      128.89401     -33828.065     -7.6727734      4820.0317      108597.23      0.00031602402 -1.5358767    
      2900   270.27609     -33621.908     -33791.697      169.7886      -33784.224     -7.4728352      6582.0973      108597.23      0.00031136124 -1.5132156    
      3000   366.76432     -33509.309     -33739.712      230.40292     -33731.853     -7.8588631      8720.177       108597.23      0.00031745952 -1.5428533    
      3100   489.66139     -33364.045     -33671.652      307.60739     -33664.048     -7.603994       11442.21       108597.23      0.00031130691 -1.5129516    
      3200   660.5872      -33177.218     -33592.202      414.98372     -33584.223     -7.9789504      14679.108      108597.23      0.00031970429 -1.5537629    
      3300   875.59602     -32948.401     -33498.454      550.05319     -33490.498     -7.9565285      18410.093      108597.23      0.00031314191 -1.5218697    
      3400   1045.5113     -32687.355     -33344.15       656.79468     -33335.752     -8.3977775      22721.392      108597.23      0.00031439015 -1.5279361    
      3500   1299.5132     -32400.316     -33216.676      816.35981     -33208.313     -8.363196       26287.218     