(written by ASE)

4861 atoms
2 atom types

0.0      47.496081794731396  xlo xhi
0.0      49.359376101810554  ylo yhi
0.0      46.322427954443121  zlo zhi

Masses

     1      178.48999995408445 # Hf
     2      15.998999995884349 # O

Atoms # charge

     1   1 -6.72915516325343e-05      3.1793951271962002      1.8506236726013101      1.2357867124444499
     2   1 -6.72986548992385e-05      1.5961923271565801     0.93656114327944995      3.8092549982541102
     3   1 -6.73346568371628e-05    0.012989573688653999        3.67874871452045      3.8092549625211301
     4   1 -6.75379974938185e-05        1.59619232138578      4.5928112856748902      1.2357866951282801
     5   1 -6.60354669766051e-05      3.1793949028376498      1.8506235921771701        6.38272309529306
     6   1 -6.89071124611844e-05      1.5961921307550599     0.93656112432758298      8.9561913325690803
     7   1 -6.60672636044715e-05    0.012989540759535101      3.6787484707620899      8.9561913046536095
     8   1 -6.44442499015762e-05        1.59619220277074      4.5928110797170403      6.3827230698611501
     9   1 -6.11441898069093e-05      3.1793947519601802      1.8506236670398799      11.529659476972499
    10   1 -6.22182277677667e-05      1.5961920581314299     0.93656113942839403        14.1031276827003
    11   1 -6.09855078384602e-05      0.0129896102973804        3.67874843125893        14.1031277144006
    12   1 -6.33434067673222e-05        1.59619234011309        4.59281107977709      11.529659534097499
    13   1 -6.15994868640945e-05        3.17939491287795          1.850623875793        16.6765960007682
    14   1 -5.7973534062119e-05        1.59619217084695     0.93656116933884803      19.250064179438201
    15   1 -6.08431063178258e-05    0.012989704860697299        3.67874861453239      19.250064216800901
    16   1 -6.83296555198563e-05        1.59619262944466      4.5928113653255904      16.676596072979901
    17   1 -6.47563764646424e-05      3.1793950899846002        1.85062398883117      21.823532468114799
    18   1 -5.72795371040221e-05        1.59619220856526     0.93656117567521802      24.397000708401499
    19   1 -6.13085793804871e-05    0.012989725116708499      3.6787486735985202      24.397000694770799
    20   1 -7.22571062611408e-05      1.5961927550006001      4.5928115572848798      21.823532486533399
    21   1 -6.32154070930023e-05      3.1793950150101402      1.8506239521996499        26.9704689004732
    22   1 -5.90575562566237e-05        1.59619208744862     0.93656115244045601      29.543937237499801
    23   1 -6.01308507219022e-05    0.012989651445080901      3.6787485036452301      29.543937191683799
    24   1 -7.11181668543938e-05      1.5961927186128599      4.5928114946878198      26.970468853389399
    25   1 -5.96327530703173e-05      3.1793947841718002        1.85062376451734        32.1174054280227
    26   1 -6.57002523648362e-05        1.59619205191458     0.93656112621020404        34.6908736731137
    27   1 -6.30165771163974e-05      0.0129895485273538      3.6787483976357298      34.690873669614803
    28   1 -6.52508856102061e-05      1.5961924838194901      4.5928112035025599      32.117405342416099
    29   1 -6.32013491759236e-05      3.1793947817394499        1.85062358825769      37.264341900985798
    30   1 -6.96686946567409e-05        1.59619224301917     0.93656113353123904      39.837809965180199
    31   1 -6.79392193203997e-05    0.012989548228411901      3.6787485962319901        39.8378100086194
    32   1 -6.25630656820979e-05      1.5961922102778301      4.5928110117904097      37.264341886442402
    33   1 -6.76570642039299e-05         3.1793950476655      1.8506236314986499      42.411278226075403
    34   1 -6.50143810631049e-05        1.59619238872806     0.93656115305916998      44.984746409218999
    35   1 -6.61779560662797e-05    0.012989600272939101      3.6787487955442102         44.984746423314
    36   1 -6.64415107674621e-05      1.5961922595206299      4.5928111934478997        42.4112782683072
    37   1 -6.53638335125652e-05      3.1793948720102798      7.3349987082739903        1.23578663164069
    38   1 -6.51760500191906e-05      1.5961922100797299      6.4209362029766899      3.8092548072472301
    39   1 -6.34411255558067e-05      0.0129895591046029      9.1631237093654008      3.8092546802701199
    40   1 -6.67890829532904e-05      1.5961920968924901        10.0771862577324        1.23578659965191
    41   1 -6.46930559144202e-05      3.1793951008395198      7.3349988217499398      6.3827231524432397
    42   1 -6.14584685034661e-05      1.5961924589855101      6.4209361469330304      8.9561913177184191
    43   1 -5.79999949239483e-05      0.0129897809090263      9.1631238159999295      8.9561913250075094
    44   1 -6.32545877131605e-05      1.5961925822215699        10.0771863770105      6.3827230988433001
    45   1 -7.83786505685397e-05      3.1793956842470599      7.3349991549794202        11.5296599106586
    46   1 -7.06084718657789e-05      1.5961929517509901      6.4209364627960301      14.103127936183601
    47   1 -7.83371785673422e-05      0.0129898853857937      9.1631243870261105        14.1031281058898
    48   1 -7.56955901823006e-05      1.5961930303743901        10.0771867229607      11.529659941885701
    49   1 -7.38506415693303e-05      3.1793956093725599      7.3349990011781196        16.6765961538268
    50   1 -7.75384256802412e-05      1.5961930319728399      6.4209366873824498        19.2500643508947
    51   1 -8.94897243391028e-05    0.012989667029454701      9.1631246136177307      19.250064445597499
    52   1 -7.04666992306524e-05        1.59619234803021         10.077186578189        16.6765961743791
    53   1 -6.24132121772429e-05      3.1793952492202799      7.3349986848306399      21.823532473228301
    54   1 -7.88636050009163e-05      1.5961930102159201      6.4209367271142304      24.397000652139798
    55   1 -9.05136912753687e-05    0.012989601409850501      9.1631246199071708        24.3970006201614
    56   1 -5.92991922987267e-05        1.59619165233436      10.077186274876301        21.8235324727674
    57   1 -6.74507740328612e-05        3.17939541429925      7.3349988282379703         26.970468896084
    58   1 -7.60416847382063e-05        1.59619307434382      6.4209366247004898        29.5439369765589
    59   1 -8.69913787830292e-05      0.0129898448598956      9.1631245780226394      29.543936823926099
    60   1 -6.32505787942114e-05        1.59619192574574        10.0771863972664      26.970468894984698
    61   1 -8.13216354926103e-05      3.1793957968561002      7.3349992004525904        32.1174050555204
    62   1 -6.51981912076588e-05      1.5961927277388399      6.4209362815132103      34.690873512433498
    63   1 -6.70469883972388e-05      0.0129899085555096      9.1631240997889201      34.690873396424003
    64   1 -7.7747019913993e-05      1.5961928679971999      10.077186761267299      32.117405026547303
    65   1 -7.19730110319737e-05      3.1793954139802501      7.3349990147231097      37.264341561566702
    66   1 -6.10305588199989e-05      1.5961922391000301      6.4209361075370701        39.8378101419692
    67   1 -5.62514929222434e-05      0.0129896205193838      9.1631236594797105      39.837810243467302
    68   1 -7.03882638185984e-05        1.59619293837419      10.077186588463199      37.264341556649804
    69   1 -6.23077437713582e-05      3.1793948922948698      7.3349987001094696      42.411278374146498
    70   1 -6.88172230308801e-05      1.5961922266506201      6.4209362920477897      44.984746491220299
    71   1 -7.10092069997469e-05      0.0129895135883909      9.1631237981110392      44.984746545608502
    72   1 -6.25116742543481e-05        1.59619222409297      10.077186255626801      42.411278443412797
    73   1 -6.03372447410461e-05      3.1793947913778502      12.819373810433101        1.23578682280132
    74   1 -6.39464600590354e-05        1.59619242102082        11.9053113577218      3.8092548106772002
    75   1 -6.05961357877251e-05      0.0129897061147391      14.647498914225499      3.8092547609927099
    76   1 -5.95744920586418e-05        1.59619217455681        15.5615613366591        1.23578674664796
    77   1 -8.00008246275429e-05      3.1793957823877799      12.819374236537399      6.3827235558008999
    78   1 -7.46626883878177e-05        1.59619303197465        11.9053117284748      8.9561916649482196
    79   1 -8.44856070501284e-05    0.012989819699375699        14.6474994649538      8.9561919301752706
    80   1 -7.67377473113674e-05      1.5961930650476099        15.5615617309715      6.3827235432037304
    81   1 -4.57890748838845e-05      3.1793946569562799         12.819373534875        11.5296591709028
    82   1 -6.74830206480393e-05         1.5961918584118        11.9053114991884        14.1031279288477
    83   1 -8.10397759755206e-05      0.0129889135494542        14.6474991608028        14.1031281080928
    84   1 -5.84080825006833e-05        1.59619141749697      15.561561424425699      11.529659510672699
    85   1 -2.23726689930955e-05      3.1793929365704199        12.8193727279402      16.676595223615902
    86   1 -4.63943491587283e-05        1.59619031422055         11.905310886655        19.2500641344378
    87   1 -4.12773971290719e-05    0.012988201301327299        14.6474982091482        19.2500640877956
    88   1 -3.57487786084136e-05        1.59618950606274        15.5615608020506      16.676595406437599
    89   1 -4.17639216940406e-05      3.1793927965477402        12.8193728126358      21.823532287463099
    90   1 -4.09712285241042e-05      1.5961899773028101        11.9053107188341        24.3970007469694
    91   1 -3.09015958585399e-05    0.012988066122332999      14.647497953723599      24.397000774863901
    92   1 -4.65458521623727e-05      1.5961895530502299      15.561560735983999      21.823532295734001
    93   1 -2.90369738743307e-05          3.179392680741      12.819372668249001      26.970469410942599
    94   1 -5.34667118146301e-05      1.5961909568561601      11.905311145749801      29.543937205741699
    95   1 -5.88829662098809e-05      0.0129884174364288        14.6474986509986      29.543937167183401
    96   1 -3.77816716851654e-05        1.59618933763006        15.5615606858289      26.970469339139299
    97   1 -1.92787705839387e-05        3.17939349778199        12.8193729178517      32.117406253548197
    98   1 -7.79284329810366e-05      1.5961927630758801      11.905311768190501      34.690873238516197
    99   1 -9.34851985401908e-05    0.012989540848056501        14.6474995132165      34.690872942961903
   100   1 -3.53856038165402e-05        1.59619008213127        15.5615609848718      32.117405935544902
   101   1 -7.31250731572177e-05      3.1793956523723801      12.819374112724001      37.264341578086402
   102   1 -6.84912584364031e-05      1.5961928618260901        11.9053115604083      39.837809910697999
   103   1 -6.88785095521834e-05    0.012989912053321199      14.647499194614801      39.837809826184902
   104   1 -7.60371178614461e-05         1.5961927213753      15.561561745027999      37.264341395821397
   105   1 -7.22349213050359e-05      3.1793953135536301        12.8193740610199      42.411277905783102
   106   1 -6.34513546256391e-05      1.5961920682545401      11.905311242195401      44.984746545477897
   107   1 -6.03811724046816e-05    0.012989500028161601        14.6474987550409      44.984746588039201
   108   1 -6.87083789924149e-05      1.5961927002273899        15.5615615364657      42.411278035826903
   109   1 -6.75567531950979e-05      3.1793952734722102      18.303749088523301      1.2357870924929699
   110   1 -7.0698951728136e-05      1.5961928154388401      17.389686614040802      3.8092552351552098
   111   1 -6.95816419198957e-05    0.012989815885003701        20.1318741756359      3.8092552544252398
   112   1 -5.97504211301889e-05        1.59619253989146        21.0459365472041      1.2357869670202499
   113   1 -6.28034925098222e-05      3.1793952216797199        18.3037490322445      6.3827231015028296
   114   1 -6.81742168188172e-05      1.5961919824066699      17.389686563770098      8.9561915212120802
   115   1 -8.94868349881616e-05      0.0129892889319043      20.131874263457401      8.9561920136892308
   116   1 -7.6405742126529e-05      1.5961925817606399        21.0459367308904      6.3827235518571497
   117   1 -2.78433052389337e-05      3.1793926844634899      18.303748313952202        11.5296582152236
   118   1 -3.68249399280761e-05        1.59618945132704      17.389685877099499        14.1031272158289
   119   1 -2.55472324558668e-05    0.012988150171512201         20.131873340978      14.103127140480201
   120   1 -3.75895342447003e-05      1.5961896220788101        21.0459363579673      11.529658727467099
   121   1 -0.000137678362207789      3.1793948964396299      18.303749236661201      16.676596450855602
   122   1 -6.19414630563895e-05      1.5961902047488901      17.389686057653801      19.250063954610098
   123   1 2.68265794200955e-06    0.012988677927546001      20.131872868500199      19.250063552376599
   124   1 -7.84582861107228e-05      1.5961907436967899      21.045936320249201        16.6765956103043
   125   1 -0.000197090893133721        3.17939757446177      18.303750109529702      21.823532822640299
   126   1 -7.55682049391878e-05        1.59619078981896      17.389686235555899      24.397000733119601
   127   1 -7.45336564478416e-07      0.0129889569947016      20.131872872823902        24.3970009228929
   128   1 -0.000130305658365122        1.59619353732054      21.045936519228501        21.8235325017828
   129   1 -0.000190671564311603      3.1793967892489001      18.303749877567899      26.970468030395399
   130   1 -4.11487201298104e-05      1.5961893304847501        17.3896857970235        29.5439376749529
   131   1 8.44040739079765e-07      0.0129880439591073      20.131872952693101      29.543938067297098
   132   1 -0.000117945775550517      1.5961924618460599      21.045936458599702        26.9704688444371
   133   1 -7.47991844215839e-05      3.1793930757119702        18.3037485512064        32.1174059926987
   134   1 -4.18935133124367e-05      1.5961903941423701      17.389686112713701      34.690873937768202
   135   1 -6.13454506943956e-05      0.0129885067968168      20.131873845791901      34.690873548326799
   136   1 -4.31587597754042e-05      1.5961892690589199      21.045936218964201         32.117406297894
   137   1 -2.37690782497974e-05      3.1793936616055198        18.3037485256372      37.264342981192002
   138   1 -8.06013521916111e-05        1.59619300614399      17.389686759960199      39.837809548542701
   139   1 -9.00996168482881e-05      0.0129898952139925      20.131874360806499      39.837809271970002
   140   1 -5.13867439650901e-05         1.5961910934398      21.045936565108502        37.2643420976204
   141   1 -7.94487091647618e-05      3.1793957153739401        18.3037492247649      42.411277521496601
   142   1 -5.90848975374046e-05      1.5961923314091899      17.389686436321799      44.984746365012803
   143   1 -5.24695221142784e-05      0.0129896297649667        20.1318739884431      44.984746414763997
   144   1 -7.64280218306074e-05      1.5961929953926901      21.045936692802499      42.411277610558997
   145   1 -7.49105623446049e-05      3.1793956450651102      23.788124192360598        1.23578711673014
   146   1 -7.45183992072091e-05      1.5961928946380799      22.874061681501299        3.80925552141938
   147   1 -7.43270652276952e-05      0.0129898279510868      25.616249218803901        3.80925550708085
   148   1 -6.07049464587475e-05        1.59619266358934        26.5303116966308      1.2357870099185699
   149   1 -4.34927559316909e-05      3.1793943515273999        23.7881241365322      6.3827225518995103
   150   1 -5.26302798109635e-05      1.5961907638157899        22.8740615130755      8.9561910164384297
   151   1 -8.31670992179636e-05    0.012989044441995499        25.6162490891519        8.95619185869365
   152   1 -7.44137574386225e-05      1.5961923021114599      26.530311743314002      6.3827234825823096
   153   1 -6.65588729234227e-05      3.1793930582611898      23.788123861881701        11.5296587468991
   154   1 -5.44116672239331e-05        1.59618979976322      22.874061516378699        14.1031270652252
   155   1 -7.28215940767517e-06      0.0129881766940974      25.616248954179401        14.1031266089014
   156   1 -3.68857369222608e-05      1.5961893878736699      26.530311853870099        11.5296586666935
   157   1 -0.000192997980820311      3.1793982009646999      23.788123998556401      16.676597759579401
   158   1 -0.000126838538434877      1.5961937619259801      22.874062142293798      19.250064352997999
   159   1 -7.15203157475812e-06    0.012989418337697701        25.6162490610775      19.250063414621199
   160   1 -9.65539898902774e-05      1.5961919028135301      26.530311481869699      16.676595838789801
   161   1 -0.00016479584828734        3.17940045056943        23.7881241289261            21.823533074
   162   1 -0.000148375795779919      1.5961950915373899      22.874062385079299      24.397000568152102
   163   1 -2.16573835170923e-05      0.0129899083746664      25.616249139523202        24.3970009422187
   164   1 -0.000147478944991724        1.59619541262048      26.530311067754099      21.823532588549899
   165   1 -0.000193854724648784        3.17940016016713      23.788124081776498      26.970467384309998
   166   1 -0.000100941810875706        1.59619165911926        22.8740618644226        29.5439373074237
   167   1 4.05420914963726e-06       0.012988458535814        25.6162489777983      29.543938408331599
   168   1 -0.000140767364484456        1.59619421279325      26.530311191041498      26.970468670507799
   169   1 -0.000161780557408794      3.1793957025144302      23.788123923987602        32.1174044328978
   170   1 -3.01554660200559e-05      1.5961892391346499        22.8740613725891      34.690874552983097
   171   1 -4.18962764792431e-05    0.012988174326250599      25.616248993339902        34.6908740416401
   172   1 -5.92596631521953e-05        1.59618976606796      26.530311721156401      32.117406104772598
   173   1 -1.68612172866936e-05        3.17939263891471      23.788123932327601      37.264343458927598
   174   1 -7.46082886847142e-05      1.5961924440742601      22.874061640577001         39.837809631671
   175   1 -9.47366489498539e-05    0.012989795630671101      25.616249168400799      39.837809101805597
   176   1 -4.47530424302974e-05      1.5961905707395001      26.530311837830901        37.2643422888207
   177   1 -7.28803232075965e-05      3.1793955849015698        23.7881242303413      42.411277683111798
   178   1 -6.17638257107257e-05      1.5961926696973401      22.874061654458998      44.984746169905897
   179   1 -5.15312582825946e-05    0.012989700125806599      25.616249240527399      44.984746302974202
   180   1 -7.73680004499309e-05      1.5961929983707901      26.530311698145098      42.411277558316598
   181   1 -7.28049168611318e-05      3.1793955487700298      29.272499204663401        1.23578710358741
   182   1 -7.4557090270592e-05        1.59619291430832      28.358436696993198      3.8092555363604501
   183   1 -6.85737632153639e-05      0.0129898081054727      31.100624278194999          3.809255231236
   184   1 -5.8651271344158e-05        1.59619241335422      32.014686892321997        1.23578686950314
   185   1 -4.93717522870397e-05      3.1793945894128401      29.272499469005101      6.3827227698311999
   186   1 -5.37653494195471e-05      1.5961908779538301      28.358436776796399      8.9561910235753199
   187   1 -9.17512259802076e-05    0.012989403095204599        31.1006239885028      8.9561921427214095
   188   1 -7.90792103870785e-05      1.5961928018773299      32.014686665377802      6.3827235709684498
   189   1 -5.05765589869677e-05        3.17939281599838      29.272499378935802         11.529658568113
   190   1 -4.97186946058605e-05        1.59618959409025      28.358437012239499        14.1031269563248
   191   1 -2.91805251518216e-05      0.0129882195844303        31.1006245656795        14.1031270965589
   192   1 -4.21687935397641e-05         1.5961900339852      32.014687252079597      11.529659105569699
   193   1 -0.000185835455297184      3.1793974849039399      29.272497887272401      16.676597170854102
   194   1 -0.000120027278525616      1.5961931948881001        28.3584369137454        19.2500643417394
   195   1 6.84895831305257e-06    0.012988474632400399      31.100625030882501        19.2500634105747
   196   1 -5.2782249408589e-05        1.59618982951931        32.0146873097693      16.676595502813601
   197   1 -0.000190829738698445      3.1794001863324901      29.272497350285601      21.823532941582801
   198   1 -0.000142527266894377      1.5961944658903799      28.358436888931202      24.397000566567002
   199   1 5.02150312310851e-06    0.012988686975595199      31.100625086454201      24.397000977917799
   200   1 -9.46364982121049e-05        1.59619189480728      32.014686737398598      21.823532411347401
   201   1 -0.000206828829956637        3.17939966601213      29.272497365125901      26.970467765945902
   202   1 -9.56808108793529e-05      1.5961912603264701      28.358436985186501      29.543937361379701
   203   1 -4.95932579307466e-07    0.012987997664115999      31.100624882556701      29.543938204920199
   204   1 -8.27334010771172e-05        1.59619102831443      32.014686957501702      26.970469084685401
   205   1 -0.000140546316482147      3.1793950272614202        29.2724985661396      32.117405017367602
   206   1 -3.00566851623143e-05         1.5961892663096      28.358436970961499      34.690874628860698
   207   1 -6.57508311479221e-05      0.0129886329983347      31.100624202269401      34.690873466993096
   208   1 -3.27507148025532e-05        1.59618912805891        32.0146874943309      32.117406102431097
   209   1 -1.61432024440366e-05      3.1793928574638799      29.272499681701301      37.264343237937801
   210   1 -7.51922125412734e-05        1.59619253241658      28.358436646870299      39.837809603279901
   211   1 -8.91191807595929e-05    0.012989936443603699      31.100624041057898      39.837809218523098
   212   1 -6.10208040763628e-05        1.59619162751517        32.0146869093982      37.264341772809097
   213   1 -7.54839592884322e-05        3.17939562355365      29.272499252668698      42.411277633308501
   214   1 -6.14615131004143e-05      1.5961926377451101      28.358436790950201      44.984746168191698
   215   1 -5.26313432873027e-05      0.0129896056017443      31.100624470878699      44.984746436852099
   216   1 -7.41992594959128e-05        1.59619292472108      32.014686719096701      42.411277788953498
   217   1 -6.30000925846619e-05      3.1793950720320501      34.756874388990397         1.2357869732191
   218   1 -6.98145950032399e-05        1.59619279076639      33.842811801705203      3.8092552194110301
   219   1 -5.97183423380755e-05      0.0129896708971014      36.584999531915003      3.8092546858176299
   220   1 -6.18420385027137e-05      1.5961921039056499        37.4990621175181         1.2357866533463
   221   1 -7.50200031690929e-05      3.1793955769895801      34.756874306202803      6.3827234049455104
   222   1 -7.20595747040632e-05      1.5961923032715499        33.8428117117423      8.9561916253986293
   223   1 -8.27885348733051e-05      0.0129898748928264      36.584998986829802      8.9561920039963301
   224   1 -7.13786571275776e-05      1.5961929787232301      37.499061735432498      6.3827233288373302
   225   1 -2.10669453097403e-05      3.1793930645365398      34.756875262258298      11.529658624382501
   226   1 -3.56347089468424e-05      1.5961896293359701        33.8428124035281      14.103127089586801
   227   1 -8.81005455617528e-05    0.012989190001876901      36.584998979378099        14.1031282870222
   228   1 -7.37783603696498e-05      1.5961922684488901      37.499061737561703      11.529659844935701
   229   1 -7.35902041091886e-05      3.1793933235606802      34.756874615599898      16.676595658268301
   230   1 -5.06754450024879e-05      1.5961896407763301      33.842812511964802      19.250063813606999
   231   1 -4.98247382936733e-05      0.0129884844712149      36.584999666640201      19.250064112165401
   232   1 -4.50975719079668e-05        1.59619014400265      37.499062495085198        16.6765958146303
   233   1 -0.000139189394664649        3.17939544377648      34.756873354298499      21.823532526841898
   234   1 -6.38256120178092e-05        1.59619003645322      33.842812434761797      24.397000775674599
   235   1 -3.89268532528612e-05    0.012988324366194501      36.584999869617299      24.397000770150299
   236   1 -3.47332723791016e-05      1.5961893364401001      37.499062887176699      21.823532371389099
   237   1 -0.000121040642019012      3.1793946928629402        34.7568737937059      26.970468839630499
   238   1 -3.61781405051639e-05      1.5961891973992299      33.842812587052599      29.543937845269799
   239   1 -6.80892147448765e-05      0.0129887175660465      36.584999324901197        29.5439370645311
   240   1 -3.53776908800264e-05        1.59618950593801      37.499062801658098      26.970469128108601
   241   1 -3.05626391296561e-05      3.1793924898110699      34.756875289540901      32.117406261740904
   242   1 -4.55786820899292e-05        1.59619078167312      33.842812098423003      34.690873943033601
   243   1 -9.47122749964339e-05    0.012989698159676599      36.584998821522603      34.690872778108101
   244   1 -5.601517260134e-05        1.59619111935089      37.499062141415401      32.117405395811097
   245   1 -4.21118037378313e-05        3.17939442484316      34.756874820337401        37.2643422636229
   246   1 -8.04912726682815e-05        1.59619312004571      33.842811602871897      39.837809492528002
   247   1 -6.63487695410248e-05    0.012989892046565799      36.584999296417003      39.837809863853302
   248   1 -7.90208227639716e-05      1.5961930473516599      37.499061581542399      37.264341402412597
   249   1 -7.91094251130079e-05      3.1793956226955702      34.756874203925697      42.411277656238802
   250   1 -5.8989524510671e-05      1.5961922492588301      33.842811999807203        44.9847463818042
   251   1 -6.1591637809177e-05    0.012989480524065801      36.584999637996198      44.984746620694402
   252   1 -6.4739532164812e-05        1.59619250832156        37.4990619637884      42.411278269652897
   253   1 -6.12718522585993e-05      3.1793947617079201      40.241249659211299      1.2357866947851199
   254   1 -6.3126026622847e-05      1.5961923385594201      39.327187065959201      3.8092547544447202
   255   1 -6.41197096956041e-05      0.0129895493563136      42.069374676945699      3.8092546695795901
   256   1 -6.90076967821089e-05        1.59619217603271      42.983437102287098        1.23578663295165
   257   1 -7.48522935192624e-05      3.1793955863550898      40.241249248592702      6.3827233757456803
   258   1 -7.35748577782394e-05      1.5961930530466399      39.327186695063901      8.9561916977821703
   259   1 -5.60469743680212e-05    0.012989713417912699      42.069374677159701      8.9561912564041695
   260   1 -6.03614121630993e-05      1.5961923529107001      42.983437204045103      6.3827230105902197
   261   1 -7.08531229849663e-05      3.1793954704448799      40.241249409640503        11.5296597414847
   262   1 -7.33720750114441e-05        1.59619239132913      39.327186740827202      14.103128043932699
   263   1 -7.47943692203517e-05    0.012989883334073299      42.069374134209198         14.103128117076
   264   1 -6.84830992193903e-05        1.59619293915815      42.983436910596602      11.529659728555201
   265   1 -3.40283056661151e-05      3.1793938073522501      40.241250390670501      16.676595707833101
   266   1 -5.2235959653291e-05      1.5961910682053999      39.327187268310198      19.250064149728601
   267   1 -8.9835823006192e-05    0.012989807156883901      42.069373798864703      19.250064499606999
   268   1 -7.84447963536273e-05        1.59619301211565      42.983436644198697      16.676596218407902
   269   1 -2.09889133338677e-05      3.1793929162285202      40.241250859822799      21.823532353211501
   270   1 -4.60089837240777e-05      1.5961907441124099      39.327187430343898      24.397000739671501
   271   1 -9.19342741570711e-05    0.012989773017527999        42.0693737591603      24.397000596513699
   272   1 -7.82983977485588e-05        1.59619270649481      42.983436657418302      21.823532509947299
   273   1 -2.22164655635983e-05        3.17939315607972      40.241250756064403      26.970469204263502
   274   1 -6.00136688547226e-05      1.5961916615701099      39.327187032597202      29.543937143784699
   275   1 -8.45596816384113e-05    0.012989904304271001        42.0693739053754      29.543936774372099
   276   1 -7.89619897406102e-05      1.5961928613882399        42.9834366327824      26.970468791759998
   277   1 -4.97433052904662e-05      3.1793946438783398      40.241249920628199      32.117405512560602
   278   1 -7.9007477118294e-05      1.5961930052937601      39.327186587228802      34.690873145265797
   279   1 -6.34381086642006e-05      0.0129898524232637      42.069374432295199        34.6908734418598
   280   1 -7.60256584624476e-05      1.5961931204931199      42.983436711331102      32.117405126518101
   281   1 -8.12431405949938e-05        3.17939584881002      40.241249126645002        37.2643414259067
   282   1 -6.6682400109866e-05      1.5961927585915201      39.327186890036998      39.837809943675403
   283   1 -5.64863699406983e-05    0.012989580185619401      42.069374769458101      39.837810287908802