108
 Atoms. Timestep: 0
1    1.949842609999999920589175417    1.612389480000000041570729081    2.246311500000000016541434888
1    3.231099480000000134793936013    7.291757800000000067086602940   10.610181889999999782503437018
1    5.086749189999999920530626696    5.374359089999999561371168966    2.243068689999999865136715016
1    8.926571369999999561173353868    5.120659540000000120585355035    7.824784519999999687911440560
1    0.259272100000000005337597031    7.013375589999999881740677665    5.330541819999999653134636901
1   10.736598759999999685987859266   10.880092780000000018958417058   10.615321330000000443760654889
1    7.188178240000000052134510042    3.548039900000000024249402486    5.141905020000000270385953627
1    7.268007279999999958874923323    7.106965690000000002157776180    5.450533870000000113975602289
1    1.649426459999999927674707578    5.283368300000000239435848925    2.643377239999999961383991831
1   10.728394910000000450622792414    3.264657810000000104366790765    5.312207639999999564395238849
1   10.823574170000000549407559447    3.635197509999999798679937157    0.193662289999999986944700936
1    1.935424840000000035189486880    5.151987680000000402458226745    7.793367530000000265033577307
1    8.946162779999999870028659643    9.047340889999999191672941379    8.007849059999999852266228118
1    1.709807159999999992550101524    1.689404459999999996711039785    7.930354720000000412483132095
1    7.389370719999999614913122059    7.287011009999999622266386723   10.475857899999999389706317743
1    8.730777129999999885967554292    9.039344870000000753407221055    2.951338380000000150005234900
1    5.078994640000000337920482707    8.986125330000000133168214234    2.419384029999999796700649313
1    5.442605880000000340146470990    9.307152459999999294382178050    7.983922330000000400218596042
1   10.950757330000000067116161517   10.751653069999999701167325838    5.300467379999999728568127466
1    3.527675219999999889353148319    3.473559589999999808185293659    5.181676829999999789322373545
1   10.953803869999999776041477162    7.294074010000000107822870632   10.325891739999999430210664286
1    1.645627900000000032321167964    9.098723429999999723349901615    7.931848419999999677543200960
1    7.240641379999999571737134829    3.782527120000000131483375299    0.074847079999999996391402135
1    8.949955629999999828783074918    5.408037069999999779668087285    2.687265660000000000451336746
1    3.823680369999999939523149806    6.990410719999999855645000935    4.813164610000000287470811600
1    3.773733179999999798326371092    0.046673979999999996859383344    0.022074630000000001334159450
1    7.199962629999999919050424069    0.072845460000000000766462449    5.242678149999999703823050368
1    5.669625810000000321053903463    1.624243869999999922981714917    2.625673690000000171096417034
1    5.349467930000000315260422212    1.725043019999999982516669661    7.581398270000000216839453060
1    1.425602280000000110504743134    8.986638729999999242181729642    2.579601010000000194111180463
1    3.329988769999999931314960122   10.934126239999999441465661221    5.250665520000000086042746261
1    3.735774800000000173128000824    3.610602720000000154243480210   10.216593100000000760019247537
1    7.181718260000000242371243075   10.953563819999999395804479718   10.547285739999999520932760788
1    9.036333499999999574470166408    1.791452480000000013760086404    2.522221519999999994610107024
1    5.442805159999999808917436894    5.475869389999999725660018157    7.883840089999999634073901689
1    9.049765450000000654995346849    1.700167640000000091049514594    7.771384630000000015570549294
2   10.505774900000000471322891826    9.584548079999999359301909863    1.647642320000000104585069494
2    5.069864789999999565850430372    7.108639110000000371769601770    3.365243969999999862352524360
2   10.824998340000000496274878969    5.572166600000000080683548731    4.057715560000000110107976070
2   10.520126610000000155764610099    1.731661099999999953169549372    4.229479139999999581789325021
2    1.762981340000000063383822635   10.869558259999999805245352036    3.884804799999999946891193758
2    1.702418549999999974886577547    0.084679030000000002353921502    1.168723490000000087007947513
2    2.122603059999999874918330534    3.981060900000000124521193356    0.674087349999999974059505803
2    0.449506379999999983176905971    1.935586440000000019168169274    9.725751620000000485788405058
2    1.744104050000000016851231521   10.828521350000000822433321446    8.973917809999999661840774934
2    1.757487570000000109970983431   10.475639879999999237725205603    6.272265479999999726601345174
2   10.954229399999999117198967724    1.810007230000000078007360571    6.749824539999999650774498150
2    1.884323650000000016646595213    3.387104480000000084061184680    3.323790339999999954301301841
2    1.471964999999999967883468344    7.533258390000000304098648485    0.959705699999999994886934473
2    1.806305309999999941794612823    7.192859089999999788744844409    8.943021319999999718675098848
2   10.728629149999999725650923210    2.286713419999999885590113990    1.623963349999999916661863608
2    3.747839110000000140132669912    5.108256250000000164845914696    6.455353299999999627800661983
2    3.510420620000000102578496808    1.652877710000000055501345742    6.734096059999999717149421485
2    5.390971229999999891902007221    3.505739549999999926654936644    8.697857909999999748151822132
2   10.832870989999999977726474754    5.284404519999999827462033863    1.480132250000000038170355765
2    2.362215270000000089112290880    7.519582889999999686381215724    5.950428709999999732360720373
2   10.852983580000000074505805969    8.615023479999999622691575496    6.894661560000000299908151646
2    3.876222059999999913770807325    1.663074890000000083389863903    4.104410670000000038726284401
2    5.867386759999999590320385323   10.671627049999999670149009035    3.376312050000000120064669318
2    5.511657709999999710248630436   10.654014509999999660294633941    0.752216140000000033083438211
2    3.900288890000000119329115478    1.674056640000000095724885796    1.640563510000000002619913175
2    3.614812999999999831857167010    1.621164360000000081996063273    9.540652789999999328074409277
2    5.788870469999999990307060216    0.010757700000000000248312482    8.840197870000000790469130152
2   10.896863350000000281170287053    9.156391100000000449199433206    9.644156830000000013569660950
2    3.484418849999999956423835101    5.083448579999999772383034724    3.793037729999999996266524249
2    5.592534569999999760625541967    3.369782279999999907715846348    3.371224160000000136250264404
2    5.325381609999999987792307365    4.155090170000000249217464443    0.542552629999999980192626481
2    8.984033070000000620325408818    7.099243900000000273564637610    6.240616669999999643891896994
2    3.514173149999999967718622429    5.488705000000000389093202102    9.191194440000000298596205539
2    5.300510720000000119966898637    3.745419580000000081554389908    6.023561759999999765113898320
2   10.942880849999999881561052462    5.458748560000000082936821855    9.191889789999999393899088318
2    9.159881029999999313417902158    0.083711510000000002862385884    6.438247200000000169950453710
2    1.734713989999999927960061541    3.596683669999999999333795131    6.294625489999999601309355057
2    6.620186880000000329005160893    1.937912840000000080920017353    0.956906119999999971170723256
2    9.019277089999999219571691356    0.757089510000000021072708023    0.855259830000000054184283726
2    7.325876540000000325392193190    8.717104040000000608756636211    4.383967079999999683082023694
2    7.500802010000000130673925014    1.907809260000000062262870415    3.908682530000000099335011328
2    3.511436349999999873006117923    9.568796969999999291189851647    7.256765439999999678377662349
2    8.945128199999999196734279394    7.260508220000000179084054253    9.057303799999999682768248022
2    7.348457840000000018676473701    1.721818340000000002731894710    9.313388079999999291658241418
2    7.714256330000000438928964286    9.094098689999999152178133954    9.645029779999999774986463308
2    5.844856400000000284933321382    7.278290799999999727276644990    8.696497510000000374930095859
2    9.057191319999999379319888249    7.209691880000000274719695881    3.642728359999999998564135240
2    5.149134840000000323811946146    7.411208770000000001232365321    6.171599180000000295365225611
2    7.300659220000000004802132025    8.942661129999999403139554488    1.438412790000000107681898953
2    9.089107679999999689357537136    7.300772509999999826391103852    0.667789030000000005671267900
2    7.636225399999999829958596820    5.247418050000000278032530332    9.466307190000000204577190743
2    4.034540859999999895535438554    8.978513209999999133970050025    9.639727609999999557999217359
2    9.323872850000000767067831475   10.899982299999999568740349787    9.031152309999999516776370001
2    7.229691189999999600956925860    5.181592539999999580402345600    6.832519109999999784577084938
2    5.481094190000000310192262987    0.416356269999999972775128754    5.907082800000000410989287047
2    0.415841010000000010915499615    5.613805319999999987601313478    6.492439690000000318548245559
2   10.861363609999999724209374108    9.207080239999999804467734066    4.036716270000000328366240865
2    1.581015110000000056800217862    7.323643050000000265242761088    3.451352689999999778791561766
2    3.957490710000000078139237303    9.063814439999999805763764016    4.211261989999999677536379750
2    3.236044909999999941163650874    5.997076110000000070954229159    1.548869250000000086231466412
2    5.254545040000000000190993887    7.174171109999999629280864610    0.843935270000000015144792087
2    9.145986519999999231345100270   10.867650490000000829127202451    3.599925380000000174618435267
2    9.196239500000000788304532762    3.383495359999999951838844936    9.050924379999999658252818335
2    7.196184009999999631190803484    5.904384730000000303107299260    1.613017710000000048964352573
2    8.753334869999999767742338008    3.684850870000000000459294824    1.318678170000000093864400696
2    9.049475879999999250458131428    3.565999970000000018899299903    3.558829419999999910118049229
2    7.136762169999999905201093497    5.261333600000000387808540836    4.541404359999999584829311061
2    3.241881170000000089714831120    9.305131190000000884765540832    1.632974090000000044753392103
2    9.115554369999999906326593191    3.486788960000000159311639436    6.245700839999999587348611385
2    7.293438779999999788117293065    1.709359279999999925436782178    6.760675789999999629742433171
2    2.127792920000000087554781203    3.527886889999999997513668859    8.786461790000000604550223215
2    6.925965670000000073969204095    9.283918619999999677361302020    6.824914910000000389800334233
108
 Atoms. Timestep: 1
1    1.948289515540279515093402551    1.610031572659942789016440656    2.246832561476319156668068899
1    3.233648162000111181413330996    7.289467137311232747265421494   10.609832294780900951991498005
1    5.082941562272108804165782203    5.370938138840217312974800734    2.244534618442503681734478960
1    8.927313477888496606738044647    5.125525141378067139896756998    7.823553623536435353003071214
1    0.257255993312640873771357519    7.010893224314142635478219745    5.334473940779682621382562502
1   10.734226792544165007825540670   10.880212436033591671957765357   10.617557693682060815376644314
1    7.190996986047212935488914809    3.543485451756146709101358283    5.139148401239157948339197901
1    7.271308739842146984244664054    7.107727511475155246500889916    5.454620647977552749807728105
1    1.651334238784990748882819389    5.285061264090732180420673103    2.646883064545337838069372083
1   10.718591156400242070390049776    3.268797033626198000888507522    5.306731693819572548420637759
1   10.824195456248965285794838564    3.630256985873994146629684110    0.194555493353684105795053938
1    1.933156045794898636458469809    5.150488581593569037408997247    7.788704469136962238451360463
1    8.945963251893877199449889304    9.044626953011288605921436101    8.014552874240200353028740210
1    1.716000817910723341697121214    1.691973307980143559348107374    7.931686093981119789475542348
1    7.386941673467598334923422954    7.286663521051974790054828190   10.475773261600764385548245627
1    8.727649413596942906679032603    9.035423241061138810437114444    2.953323222459101948800253012
1    5.080123879023225264006669022    8.984616189593598534202101291    2.422409704816481212930057154
1    5.444749519403447202137158456    9.306917294358237668916444818    7.978867947122309622898228554
1   10.955638393292652210675441893   10.748715248253640552889009996    5.297139422340922720877642860
1    3.529612200118195985965030559    3.477869532874636959718372964    5.186453060476440946047205216
1   10.949242598744755028405961639    7.290557839318900335001671920   10.322923985980370531478911289
1    1.647084499701175541730435725    9.098999166372729874296965136    7.932623419956414956288881513
1    7.241159797791721253190644347    3.781583027773201433063832155    0.076619174337507256478119189
1    8.949048588975195173134125071    5.407772700824935441232810263    2.679026849211821215135387320
1    3.825122159493798967844213621    6.995053743509310528736477863    4.809326966036696404671602068
1    3.774166177810092115407769597    0.048838343305705696206775457    0.021714936685307051345006357
1    7.201254229625662084401938046    0.071328867472752938150293289    5.241861936569346624992249417
1    5.666838241206131776550591894    1.622977773645772892052718817    2.629093380438780602759152316
1    5.350892825073453096251796524    1.728574646893047850326752268    7.587300584221523536143649835
1    1.427477399237471189508141833    8.988924012111075612097010890    2.577919162488028881341506349
1    3.331559478421425080085782611   10.931092757731095232998086431    5.248622092220822210606456792
1    3.736853439514395525122836261    3.614941714056595145621031406   10.212655131957488308103165764
1    7.181993696302427565569814760   10.951290596986178016436497273   10.552907566950946005590594723
1    9.035654137560609200363614946    1.792481852405264808325568993    2.520745252803126668084132689
1    5.442274913479504760971394717    5.476374103024381767568229407    7.885108123337452035173100739
1    9.051207696582581618827134662    1.700944037509643846917128940    7.771907043864294095669720264
2   10.506360252787377618233222165    9.573432674787934359983410104    1.667377664294640515763035182
2    5.064732060017394843498550472    7.102435484395415166147813579    3.351827619153894932679804697
2   10.837765403230207539309049025    5.594502386875126020981952024    4.052564719567700812774546648
2   10.523455515753115108168458391    1.740717678837597759411437437    4.213132981837923729528938566
2    1.751981648997574581017033779   10.860123225612049679966730764    3.870393400503423730896201960
2    1.704506582248872081919444099    0.077705009628538837529454497    1.166545283345324257595621020
2    2.111137769494105143053275242    3.965498965546243592683595125    0.701134562430279495437446258
2    0.449336837016000911759761038    1.934905666292246362303330898    9.731634886909667159216041910
2    1.744475131511506349468731969   10.848093660892798695272176701    8.959041391248335983732431487
2    1.761389799363642261198492633   10.485768026522549689616425894    6.272627512115163561645658774
2   10.945045383940376737541555485    1.812384225755473199370726434    6.753902756030274012744030188
2    1.888138915336175616133118638    3.386057321109282369775428378    3.324535727714775124042034804
2    1.492458298785749537529454756    7.521778540017243663839963119    0.955543852065605325840635942
2    1.791781122626107336515133284    7.185999339361941018466950482    8.927516235248978304639422277
2   10.726104751469593523438561533    2.289406238494505529956768441    1.633766008679040204754073784
2    3.735531275820358487749217602    5.106037108648222577755859675    6.456386908566254412278340169
2    3.498400634384100094109726342    1.655432526603598963887975515    6.733084736045697127337916754
2    5.383335891228647973605347943    3.529687375562676976414877572    8.700297150165186010895013169
2   10.821926552863974535512170405    5.293820962252394402014488151    1.474553358282975956683458207
2    2.363107859477790118063467162    7.506564352648523730238139251    5.955887418545644962364349340
2   10.856938611626153701195107715    8.616512620349404016906191828    6.911001323544292418432632985
2    3.892146056538845932948333939    1.658401461257773101820589545    4.093990585144841709563934273
2    5.859156774145141355347732315   10.688860761330213122732857300    3.375673206416815119723651151
2    5.520868362887306091124628438   10.667617912143869673968765710    0.770786131789338746500561683
2    3.896721129392914484412813181    1.665721213867625616344980699    1.637564183224084146672794304
2    3.605751147035870740609198037    1.623212751886526916678121779    9.526065282448133331172357430
2    5.773668714058058704097220470    0.003194985798261826444310874    8.832187103097963287723359826
2   10.881273177087285475295175274    9.160283187005166638527953182    9.654573087798903330281063973
2    3.481449227258692769026993119    5.084590069519182797819212283    3.776726397158951531451975825
2    5.585243780220116249779493955    3.357611594113019570784217649    3.361656378240394094092380328
2    5.340434432228208017079396086    4.148939522226264386972616194    0.534648910481424932683580664
2    8.975180246246512894003899419    7.105309743029197377950367809    6.225835962509862930858162144
2    3.521707506668852349918097389    5.497799442599887065341590642    9.193754492097522046378799132
2    5.311035735100438692768420879    3.734187851632689625347438778    6.024968992005366175135350204
2   10.933186070521255572884911089    5.455245295100249691699900723    9.202616440348363013868038252
2    9.189245079667241355991791352    0.096118612027293381938619632    6.435733276814384673514268798
2    1.750084739135987943470240680    3.588116186092878745483858438    6.293743635472798025887186668
2    6.626301738111735950553793373    1.946892229567601440010093938    0.964264356489880292144789564
2    9.025322929540164906825339131    0.767015575744510957889588099    0.838764068896253878193647324
2    7.326834632245806666617227165    8.712201727446915455743692291    4.378972512190812516053028958
2    7.505154694932886449976194854    1.903764066455821080126042943    3.891777767356588757508006893
2    3.518855142065934415995798190    9.558369251742739436394913355    7.265577386842047680204359494
2    8.941861242738728066115072579    7.265292295753757123577543098    9.058191018285125295506077236
2    7.360611592079651543940599367    1.744580281108500274811490272    9.317532597549197603825632541
2    7.706457682541213216609321535    9.093446529981314085944177350    9.647933227987676829684460245
2    5.836180033884439843916425161    7.257893396586475809328931064    8.697303466392854787159194530
2    9.060141552347257487554088584    7.215486945007606678359479702    3.641160155259706154851073734
2    5.135607844017528123004012741    7.424093710872904594566534797    6.170793367258353256943337328
2    7.307634520570680081164027797    8.941928983778621997657864995    1.426968754336185529751901413
2    9.090552790885867651127227873    7.308444120451450309872143407    0.666155249586416142726363887
2    7.630691232273385971041079756    5.261882269586470428635038843    9.466152999668617340489618073
2    4.040379659432162817722655745    8.976359170103684448349667946    9.650080425841830233935070282
2    9.318011088165219391044047370   10.902384968788284780316644174    9.024028599960658425516157877
2    7.231879788387963969853444723    5.188633033621645296307178796    6.827545821632400979694921261
2    5.471326137275010381699758000    0.395516531401297055658972113    5.913174527071711317205426894
2    0.423163547116273686121701303    5.615629319325805113294336479    6.488901540725851901925125276
2   10.853157106937633358256789506    9.213506908668083639213364222    4.038987280941541690992835356
2    1.563199632307251230045608281    7.316842808506758721875939955    3.446597068673578512232325011
2    3.958748374503232803078844881    9.069554312164081366631762648    4.214945932942261386244808818
2    3.236527027722358784700418255    5.999501366472256513873162476    1.552825837374659734280157863
2    5.253658750223380913269011216    7.175040932710389895987646014    0.845666093327529067025238874
2    9.134310599028502508645033231   10.885828355604873607376248401    3.615476897280232471132421779
2    9.218713223114349375464371406    3.381863816683794876638557980    9.074090794851329633274872322
2    7.185939169609443233355250413    5.907355862853314931726345094    1.600482719363745642837670857
2    8.763682060909289361916307826    3.684992799694290610545976961    1.314133665465069489286520366
2    9.051547109019075776359386509    3.561898880739146289187146976    3.563591033289295051389444779
2    7.119276370630393202532104624    5.255633316712241764889768092    4.544974258413303935810745315
2    3.255568914679666914224753782    9.315571893334256614593869017    1.638261673165430254428542867
2    9.115024415186551820511340338    3.484796807492604564515659149    6.253612015132976154063726426
2    7.284477647210560569135395781    1.690293353400807108144476842    6.738631223882046938911116740
2    2.118959176895390150718867517    3.534491940767016782132259323    8.771886750695681911338397185
2    6.928627182931466066406755999    9.302208005606933838294025918    6.823694990000547910824479914
108
 Atoms. Timestep: 2
1    1.946749073018557485426072162    1.607798176727875505420684021    2.247543104798355617646166138
1    3.236339754033867865956608512    7.287188386213158786119947763   10.609394754673417082813102752
1    5.079187232510185445732986409    5.367579832864097788558410684    2.245989294164048910573683315
1    8.928175316468465183561420417    5.130480650524773977849690709    7.822497629016032405502301117
1    0.255214963547315987213437438    7.008694930119623300868170190    5.338307868376186426928597939
1   10.731868700194411303527886048   10.880421729413939146979828365   10.619833375416238396837798064
1    7.193775044909821225758150831    3.538799763919932228617426517    5.136406806773332611726345931
1    7.274490846836356716664795385    7.108476961729027543412939849    5.458664707588607001298441901
1    1.653194520971998482394837993    5.286756688210031640551278542    2.650345924258629359826500149
1   10.708995603711962019133352442    3.273059613941414980331501283    5.301100704258732143614452070
1   10.824825546026620060047207517    3.625350959959247720831854167    0.195333202298275609987143753
1    1.930905472432507874458451624    5.149134634807355226371328172    7.784000540540337631512102234
1    8.945800571673251155857542471    9.041898671933932263300448540    8.021262186672155181099697074
1    1.722195695976466822685324587    1.694573424214547152644172456    7.933124347275405163770756189
1    7.384391496936539844853086834    7.286296713809288227992055909   10.475749967183354272037831834
1    8.724594095474023092151583114    9.031471954686558945013530320    2.955162702944178487740600758
1    5.081347449129616222762706457    8.983079630928685332946770359    2.425456286287708262960904904
1    5.446625530834854345130224829    9.306407200603972640351457812    7.973852753189784259291172930
1    0.004445817412587871331197675   10.745809506867868066137816641    5.293682480719327010376673570
1    3.531522670733147517552197314    3.482165508929451647190944641    5.191156414672176033775485848
1   10.944498067049799772121332353    7.286903548566978194855892070   10.319914534038138853588861821
1    1.648636306844622589906634857    9.099231862129048664655783796    7.933357509139836061251571664
1    7.241728495495476813914592640    3.780469144329207331622910715    0.078294357858743474087859227
1    8.948196556503139831306725682    5.407558547229646350729126425    2.670748736091778319234890660
1    3.826458821647521713060768889    6.999722386313226962784028728    4.805633546616993712063958810
1    3.774459704207543175868977414    0.050876060473360087965666310    0.021340261630718990182309369
1    7.202649388841798838711838471    0.069711765156576413482447663    5.240966047707671826572095597
1    5.663973601970710980424428271    1.621624565746076385153173760    2.632547905597803605814988259
1    5.352410695043928079428496858    1.732138557511204046690522773    7.593283092855127591747077531
1    1.429247869965768247269011226    8.991375583902195600671802822    2.576201342434767393996253304
1    3.333319291202836431864398037   10.927971904843579054045221710    5.246504732685088434607223462
1    3.737796311954892036766295860    3.619246542086551610140077173   10.208620117917998726397854625
1    7.182479771196151219214698358   10.949115303845308844188366493   10.558408184253506689742607705
1    9.035021209081808279961478547    1.793508949487719883464365012    2.519366459831049009920889148
1    5.441644799257288944716037804    5.476886717022428463508276764    7.886311351074600572985673352
1    9.052585401932871533858815383    1.701698484314010162421482164    7.772607340892524696585041966
2   10.507547294170908713795142830    9.562187473307503182695654687    1.686379843231206487885742717
2    5.061360825135386320994257403    7.096208242970116764070098725    3.337220636772551873860948035
2   10.850716926063741496477632609    5.614820452974124798117827595    4.046792655565661256389375922
2   10.527573234053656747732929944    1.748633940730436320265539507    4.196894037620732653692812164
2    1.741194410704505646236839311   10.851572134274533709685783833    3.855066857319413564653132198
2    1.706185858587522030660466044    0.070292399072563821471604228    1.162707116592778477937031312
2    2.098624695410719276367217390    3.949084221222155299813039164    0.728707757349578599814776680
2    0.448902483628148163408155824    1.933658834756010636013456860    9.737309312715892062328748580
2    1.744649925259972977897859892   10.867600313670129352772164566    8.944135365962917916249352857
2    1.762912138430288822021907436   10.496692616726431168672206695    6.273703268394194232371319231
2   10.936473185118634532386749925    1.814273618965868362096216515    6.758862496446727874399584834
2    1.891238396218417383565224554    3.384730710642545048472129565    3.325940072291476035104551556
2    1.512503927079180687798043436    7.510968885947927553559111402    0.951342480833313075549995119
2    1.777230016666300427274904905    7.180133124085098295097395749    8.912063438318877928168149083
2   10.726170122989314492656376387    2.291827897099107946843332684    1.643767595531487435422945964
2    3.722156143271204697953180585    5.105433963485126902526189951    6.458819746285429985732662317
2    3.485680975338099507609967986    1.658062577298542006332127130    6.732277933466078501112406229
2    5.375469089026112534668300214    3.553917621785536606893174394    8.702522579201458441389149812
2   10.811009665153772374424079317    5.303216064593746281730091141    1.468977594169803335688584411
2    2.361653343651098246880337683    7.493611031884509721123777126    5.962187167748135507849838177
2   10.860894346679856425907928497    8.618909586729461835830079508    6.927595436646532434110667964
2    3.907257890539705513788248936    1.653501819860295762865121105    4.084136725956006408466691937
2    5.851496306712698824981089274   10.706240604285628847947009490    3.375233064438248664629327322
2    5.528731991504406195758747344   10.680602677596256810943486926    0.790567751717860422999706316
2    3.891942923235470530585189408    1.657040999771188793943110795    1.633198556164040082805399834
2    3.597172525435369028201648689    1.625807037551330935798432620    9.510985767415373715039095259
2    5.757945299689913198903923330   10.953005368064276936479473079    8.824471505884661226559728675
2   10.865953521591471542251383653    9.163338787243340277655079262    9.664093762518426444785291096
2    3.479007043956666933581800549    5.086066924385312049139429291    3.761161025934461221709170786
2    5.577965990560468156900242320    3.348022580699883565813479436    3.352251668360512582012233906
2    5.355501084669399780580079096    4.143691415016641954593978880    0.528014355505706078908190193
2    8.967384408631660974720034574    7.111018668754238269968936947    6.212289165654719447218212736
2    3.530448636740830092861642697    5.507108553164810516022953379    9.196856703390565712652460206
2    5.323353342177797209444634063    3.720722955823859035007217244    6.026428632292932796588047495
2   10.923433314664411142302924418    5.451257541524309857550179004    9.213603874924057635098506580
2    9.218211183496315186403080588    0.107220970498755313604632988    6.432544862162596466248487559
2    1.765159476877457223054079805    3.578715674124773649111830309    6.292118420884509788493232918
2    6.633073550595820044861739007    1.955699225731206247758109384    0.972138342887028383820791078
2    9.030586725811918569206682150    0.775630028425984607842735841    0.821492740177168223603132446
2    7.327359306728366661332074727    8.709112561605920177498774137    4.373807854671998285311929067
2    7.508018527068655245670925069    1.898147664817380286805814649    3.875944413917488784449005834
2    3.527846928762889966435523093    9.548120770457751760318387824    7.274119844051830874320785369
2    8.939520753447657952506233414    7.269804012903279044621740468    9.056435636862600446761462081
2    7.372954752302586456380595337    1.767556242163859980820461715    9.321520607671255120862952026