ITEM: TIMESTEP
1
ITEM: NUMBER OF ATOMS
96
ITEM: BOX BOUNDS xy xz yz pp pp pp
-6.4403069629240202e+00 1.2880618624456734e+01 -6.4403075485924530e+00
1.9321982668210789e-07 1.1154942923472749e+01 0.0000000000000000e+00
-3.2715302202911437e-06 1.5046359349660532e+01 0.0000000000000000e+00
ITEM: ATOMS id type x y z
1 1     6.39326515261159     11.1137913155914   0.0534622522983576
2 1  -0.0470569658045721     1.81800821268217     2.56118345564565
3 1     6.39326778281944     11.1137911780026     5.06891093287076
4 1  -0.0470104890663717     1.81800651241046     7.57663740723548
5 1      6.3933150145224     11.1137909563758     10.0843694939144
6 1  -0.0470095467208143     1.81800640771231     12.5920958126114
7 1     11.2234957260979     2.74758715604732    0.053457456400388
8 1    -1.65713621596892     4.60674275939756     2.56118334557862
9 1     11.2234993539745     2.74758557457286     5.06891238834681
10 1    -1.65709298058115     4.60674173249114     7.57663862550997
11 1     11.2235485338265     2.74758533941874     10.0843667320564
12 1    -1.65709097749861     4.60674146046427     12.5920915994202
13 1     9.61341909562815     5.53632228495853   0.0534574920387125
14 1     -3.2672071500409     7.39547880368273     2.56118334250253
15 1     9.61341989047485     5.53632109368243      5.0689084488042
16 1    -3.26716525132903     7.39547704652114     7.57663689981538
17 1     9.61346489268695      5.5363187775511     10.0843652665678
18 1    -3.26716315912873     7.39547663186027     12.5920933448977
19 1     8.00334316690119     8.32505478739451   0.0534586141230297
20 1    -4.87728895620732     10.1842125830738     2.56118343297926
21 1     8.00334505184048      8.3250562627408     5.06891120093248
22 1    -4.87724457587345     10.1842137479887     7.57663757153515
23 1     8.00339104733416     8.32505693166254     10.0843667372793
24 1    -4.87724289219317     10.1842123129031     12.5920956190942
25 1    -3.26719652338798     11.1137926697947   0.0534603047462184
26 1     3.17309973697943     1.81800628811854     2.56118341401576
27 1    -3.26719539166206     11.1137925503233     5.06891293059408
28 1      3.1731430473389     1.81800515886798     7.57663835417341
29 1    -3.26714889639646     11.1137926422952     10.0843694973686
30 1       3.173145536192     1.81800506990932     12.5920948031385
31 1     1.56303338379817     2.74758662971132   0.0534613245065727
32 1     1.56301926263443     4.60674458070007     2.56118614291886
33 1       1.563035260713     2.74758520508664     5.06891188873032
34 1     1.56306057137365      4.6067404989348     7.57664062451018
35 1     1.56308131365716     2.74758399461727     10.0843694955413
36 1     1.56306228666255     4.60674132284609     12.5920960147127
37 1  -0.0470451672187008     5.53632173042364    0.053461430454851
38 1  -0.0470584027711081     7.39547824819338     2.56118729645259
39 1  -0.0470432971409272     5.53632163874048     5.06891451145935
40 1  -0.0470086481811572     7.39547819379127     7.57664141469422
41 1  -0.0469971229852682     5.53631979910295     10.0843698183911
42 1  -0.0470077631211779     7.39547715878091     12.5920994250512
43 1    -1.65711972298886     8.32505607454642   0.0534618465588901
44 1    -1.65713234842805     10.1842131371038     2.56118613696669
45 1    -1.65711746027461     8.32505526786632     5.06891406270869
46 1    -1.65708969798834      10.184216159083     7.57664116130613
47 1    -1.65706920961224     8.32505581994485     10.0843698092651
48 1    -1.65708678528787     10.1842149354088     12.5920954541187
49 1  -0.0470439184780007     11.1137932603695   0.0534603763432539
50 1     6.39325236953126     1.81800568516866     2.56118334523743
51 1  -0.0470416192582515       11.11379247724      5.0689155417867
52 1      6.3932972179854     1.81800602377219     7.57663799439589
53 1  -0.0469921704261954      11.113791735371     10.0843697983205
54 1     6.39329900083201     1.81800510761348     12.5920922533249
55 1     4.78319060140691     2.74758614817178   0.0534595733835804
56 1     4.78317261524724     4.60674173494903     2.56118334754866
57 1     4.78319070293997     2.74758457256224     5.06891021329076
58 1     4.78321722751126     4.60674191317237     7.57663640143077
59 1      4.7832374303148      2.7475822119407     10.0843667408017
60 1     4.78321865127052     4.60674159674608     12.5920938442594
61 1     3.17310924082006     5.53632041145664   0.0534613015321427
62 1     3.17309753048844     7.39547691744428     2.56118727671011
63 1     3.17311115712984     5.53632031388666     5.06891462395655
64 1     3.17314373867599      7.3954781369931     7.57664267013123
65 1     3.17315662920003     5.53632131264489     10.0843698174833
66 1     3.17314624833463     7.39547714722041     12.5920981683317
67 1     1.56303556779946     8.32505702301786   0.0534659380172273
68 1     1.56302041970655     10.1842146219203     2.56118728748104
69 1     1.56303745813954     8.32505646154065      5.0689155050856
70 1     1.56306719814777     10.1842118052881     7.57664190171937
71 1     1.56308732243911     8.32505586272563      10.084374346478
72 1     1.56306889666782     10.1842121996679     12.5920989378772
73 1     3.17311075597635     11.1137919355789   0.0534623844270092
74 1     9.61340740045671      1.8180076391924     2.56118334666027
75 1     3.17311222843473     11.1137911728102     5.06891356599482
76 1     9.61345140016825     1.81800740689449      7.5766370373782
77 1     3.17316256911681     11.1137900512688     10.0843698352851
78 1     9.61345304201782     1.81800648481382     12.5920931797811
79 1     8.00334383999218     2.74758461658233   0.0534574645930574
80 1     8.00332612368673     4.60674233335583     2.56117882828343
81 1     8.00334573764346     2.74758530051418     5.06890847685366
82 1     8.00337265487618     4.60674171712492     7.57663299104446
83 1     8.00339557857875     2.74758591306489     10.0843652639355
84 1     8.00337436567883       4.606741173492      12.592091726261
85 1     6.39326303908464     5.53632098456277   0.0534574066427584
86 1     6.39325665943135     7.39547755866678     2.56118334847984
87 1     6.39326598875894      5.5363198136732      5.0689085349345
88 1     6.39329895984779     7.39547702088555     7.57663812678864
89 1     6.39331267572219     5.53632026481603     10.0843652562673
90 1     6.39330032865609     7.39547660169931     12.5920920921558
91 1     4.78318942799594     8.32505774565063   0.0534608508390801
92 1     4.78317277964912      10.184212060339     2.56118614721727
93 1     4.78319090715437     8.32505692478871     5.06891511025149
94 1     4.78322133489173     10.1842113846088     7.57664060448203
95 1     4.78323860485749     8.32505602404404     10.0843698273382
96 1     4.78322187778786     10.1842101551948     12.5920960554285
