LAMMPS (27 Jun 2024)
OMP_NUM_THREADS environment is not set. Defaulting to 1 thread. (src/comm.cpp:98)
  using 1 OpenMP thread(s) per MPI task
Reading data file ...
  orthogonal box = (0 0 0) to (22.422218 22.19224 20.321894)
  5 by 2 by 2 MPI processor grid
  reading atoms ...
  448 atoms
  read_data CPU = 0.004 seconds
**************** Begin of POD Potentials ****************
species: Hf 
periodic boundary conditions: 1 1 1
number of environment clusters: 8
number of principal compoments: 2
inner cut-off radius: 1
outer cut-off radius: 5
cut-off function type: 1
gaussian_exponents: 
polynomial_degrees: 
bessel polynomial degree: 4
inverse polynomial degree: 10
one-body potential: 1
two-body radial basis functions: 8
three-body radial basis functions: 8
three-body angular degree: 6
four-body radial basis functions: 7
four-body angular degree: 5
five-body radial basis functions: 0
five-body angular degree: 0
six-body radial basis functions: 0
six-body angular degree: 0
seven-body radial basis functions: 0
seven-body angular degree: 0
number of local descriptors per element for one-body potential: 1
number of local descriptors per element for two-body potential: 8
number of local descriptors per element for three-body potential: 56
number of local descriptors per element for four-body potential: 112
number of local descriptors per element for five-body potential: 0
number of local descriptors per element for six-body potential: 0
number of local descriptors per element for seven-body potential: 0
number of local descriptors per element for all potentials: 177
number of global descriptors: 1409
**************** End of POD Potentials ****************

**************** Begin of Model Coefficients ****************
total number of coefficients for POD potential: 1409
total number of elements for PCA projection matrix: 352
total number of elements for PCA centroids: 16
**************** End of Model Coefficients ****************


CITE-CITE-CITE-CITE-CITE-CITE-CITE-CITE-CITE-CITE-CITE-CITE-CITE

Your simulation uses code contributions which should be cited:
- Type Label Framework: https://doi.org/10.1021/acs.jpcb.3c08419
The log file lists these citations in BibTeX format.

CITE-CITE-CITE-CITE-CITE-CITE-CITE-CITE-CITE-CITE-CITE-CITE-CITE

Neighbor list info ...
  update: every = 1 steps, delay = 0 steps, check = no
  max neighbors/atom: 2000, page size: 100000
  master list distance cutoff = 7
  ghost atom cutoff = 7
  binsize = 3.5, bins = 7 7 6
  1 neighbor lists, perpetual/occasional/extra = 1 0 0
  (1) pair pod, perpetual
      attributes: full, newton on
      pair build: full/bin/atomonly
      stencil: full/bin/3d
      bin: standard
Setting up Verlet run ...
  Unit style    : metal
  Current step  : 0
  Time step     : 0.001
Per MPI rank memory allocation (min/avg/max) = 2.586 | 2.586 | 2.586 Mbytes
   Step          Temp          TotEng         PotEng         KinEng         Press          Volume    
         0   300           -3231.7429     -3249.0767      17.333785      27701.818      10112.159    
       100   306.8371      -3235.71       -3253.4388      17.728828      9881.3259      10112.159    
       200   224.0517      -3236.1519     -3249.0974      12.945547      10563.513      10112.159    
       300   338.07702     -3234.4804     -3254.0143      19.533848      9605.8993      10112.159    
       400   343.32917     -3237.3477     -3257.185       19.837314      9149.9548      10112.159    
       500   330.52834     -3239.763      -3258.8607      19.097691      8228.9047      10112.159    
       600   300.474       -3241.0765     -3258.4377      17.361173      7677.7445      10112.159    
       700   280.12854     -3241.1953     -3257.381       16.185627      9136.5271      10112.159    
       800   296.80869     -3240.0412     -3257.1906      17.149394      8606.4312      10112.159    
       900   292.82486     -3239.0053     -3255.9245      16.919211      9003.4211      10112.159    
      1000   331.66987     -3238.3751     -3257.5388      19.163648      8203.0084      10112.159    
      1100   280.78729     -3239.3525     -3255.5762      16.223689      9134.6355      10112.159    
      1200   308.53441     -3240.0349     -3257.8617      17.826898      8501.2118      10112.159    
      1300   285.50187     -3240.934      -3257.4301      16.496094      8458.9247      10112.159    
      1400   290.23461     -3240.5677     -3257.3373      16.769548      8783.107       10112.159    
      1500   314.09999     -3239.2741     -3257.4225      18.148473      8680.6868      10112.159    
      1600   321.96636     -3238.5608     -3257.1638      18.602986      8636.941       10112.159    
      1700   304.57018     -3239.0946     -3256.6924      17.597847      8727.4211      10112.159    
      1800   298.81931     -3239.6613     -3256.9269      17.265566      8767.9688      10112.159    
      1900   293.67857     -3239.9948     -3256.9634      16.968538      9249.9756      10112.159    
      2000   293.65055     -3240.0676     -3257.0345      16.966919      8786.305       10112.159    
      2100   316.99294     -3239.5268     -3257.8424      18.315625      8682.0251      10112.159    
      2200   297.93953     -3239.0906     -3256.3054      17.214733      8765.627       10112.159    
      2300   305.7248      -3238.3053     -3255.9699      17.66456       9117.7923      10112.159    
      2400   315.52164     -3238.4347     -3256.6653      18.230614      9146.9399      10112.159    
      2500   303.1714      -3239.9208     -3257.4378      17.517027      8797.8313      10112.159    
      2600   298.31192     -3240.4777     -3257.714       17.236249      8609.2024      10112.159    
      2700   293.73596     -3240.3946     -3257.3664      16.971854      8868.2825      10112.159    
      2800   300.21154     -3239.5116     -3256.8576      17.346008      9064.8773      10112.159    
      2900   319.54186     -3237.717      -3256.1799      18.4629        9030.3525      10112.159    
      3000   316.39666     -3237.7647     -3256.0459      18.281173      9219.1919      10112.159    
      3100   296.82557     -3239.4318     -3256.5821      17.150369      9229.601       10112.159    
      3200   308.45541     -3239.8225     -3257.6448      17.822333      8518.0052      10112.159    
      3300   299.49828     -3240.3685     -3257.6733      17.304796      8663.2728      10112.159    
      3400   284.97147     -3240.6435     -3257.109       16.465448      8884.1385      10112.159    
      3500   315.54178     -3239.4897     -3257.7215      18.231778      8838.8451      10112.159    
      3600   305.67424     -3238.8797     -3256.5413      17.661639      8900.595       10112.159    
      3700   308.72835     -3238.4801     -3256.3182      17.838103      9114.5706      10112.159    
      3800   318.8246      -3238.5468     -3256.9682      18.421458      8531.171       10112.159    
      3900   291.60746     -3239.8823     -3256.7311      16.84887       8822.0684      10112.159    
      4000   304.33725     -3240.633      -3258.2174      17.584389      8661.0072      10112.159    
      4100   292.69633     -3240.8509     -3257.7627      16.911785      8416.6079      10112.159    
      4200   297.19727     -3240.1141     -3257.2859      17.171846      8769.1817      10112.159    
      4300   297.17567     -3239.4129     -3256.5835      17.170598      9393.8353      10112.159    
      4400   330.38551     -3237.183      -3256.2724      19.089439      9217.815       10112.159    
      4500   309.08109     -3237.931      -3255.7895      17.858485      8895.8666      10112.159    
      4600   301.90093     -3239.3192     -3256.7628      17.44362       8829.9567      10112.159    
      4700   291.68878     -3240.2686     -3257.1221      16.853569      9005.5838      10112.159    
      4800   299.09594     -3240.4969     -3257.7784      17.281549      8782.6893      10112.159    
      4900   294.72746     -3240.5939     -3257.623       17.029142      8436.961       10112.159    
      5000   317.23718     -3239.4232     -3257.7529      18.329738      8921.3279      10112.159    
      5100   283.78598     -3238.9583     -3255.3553      16.396951      9164.3554      10112.159    
      5200   315.32721     -3238.9029     -3257.1223      18.219381      8774.8356      10112.159    
      5300   303.77676     -3240.1673     -3257.7193      17.552004      8597.8949      10112.159    
      5400   281.97642     -3241.3237     -3257.6161      16.292396      8664.7198      10112.159    
      5500   309.2418      -3241.0837     -3258.9515      17.86777       8599.9723      10112.159    
      5600   296.12102     -3240.5545     -3257.6641      17.109661      8714.52        10112.159    
      5700   306.9183      -3239.6974     -3257.4309      17.73352       8604.9387      10112.159    
      5800   300.67698     -3239.52       -3256.8929      17.372901      8598.2013      10112.159    
      5900   288.43044     -3239.8038     -3256.4691      16.665304      9381.0943      10112.159    
      6000   308.04024     -3240.7289     -3258.5272      17.798345      8571.1477      10112.159    
      6100   284.8135      -3241.7804     -3258.2368      16.45632       8218.0263      10112.159    
      6200   291.22518     -3240.9418     -3257.7686      16.826783      8533.945       10112.159    
      6300   275.3219      -3239.7977     -3255.7056      15.907902      9413.9762      10112.159    
      6400   334.16981     -3239.0899     -3258.398       19.308093      8470.0801      10112.159    
      6500   294.9077      -3239.6993     -3256.7388      17.039556      8985.6109      10112.159    
      6600   306.04363     -3239.8308     -3257.5138      17.682982      8849.3628      10112.159    
      6700   282.06542     -3240.8066     -3257.1041      16.297539      8907.905       10112.159    
      6800   295.71642     -3241.2824     -3258.3687      17.086283      8324.6393      10112.159    
      6900   286.74255     -3241.5362     -3258.104       16.567779      8524.1596      10112.159    
      7000   293.77835     -3240.1727     -3257.147       16.974303      8595.941       10112.159    
      7100   313.65889     -3238.99       -3257.1129      18.122986      9148.8719      10112.159    
      7200   298.64378     -3239.2511     -3256.5065      17.255424      8931.2943      10112.159    
      7300   299.52441     -3240.1625     -3257.4688      17.306306      8727.0953      10112.159    
      7400   281.48822     -3241.1989     -3257.4631      16.264188      8704.0991      10112.159    
      7500   299.4053      -3240.7605     -3258.0599      17.299424      8568.4581      10112.159    
      7600   316.12783     -3238.57       -3256.8356      18.26564       9318.3578      10112.159    
      7700   316.81082     -3238.0618     -3256.3669      18.305103      9098.0637      10112.159    
      7800   311.59643     -3238.9936     -3256.9974      18.003819      8611.3234      10112.159    
      7900   299.75257     -3240.2016     -3257.5211      17.319489      8919.8153      10112.159    
      8000   274.50115     -3240.8288     -3256.6893      15.86048       8721.307       10112.159    
      8100   322.06691     -3240.0347     -3258.6435      18.608796      8458.1077      10112.159    
      8200   302.13129     -3239.901      -3257.358       17.45693       8684.8764      10112.159    
      8300   283.6645      -3239.7317     -3256.1216      16.389932      8759.3295      10112.159    
      8400   312.42211     -3239.6726     -3257.7241      18.051526      8576.9416      10112.159    
      8500   292.23338     -3239.9718     -3256.8568      16.885035      8885.1017      10112.159    
      8600   303.02123     -3239.6846     -3257.1929      17.50835       9149.1424      10112.159    
      8700   293.82912     -3239.8539     -3256.8312      16.977236      9015.9579      10112.159    
      8800   317.03733     -3239.9458     -3258.264       18.31819       8025.1313      10112.159    
      8900   275.67323     -3240.7401     -3256.6683      15.928202      8926.4395      10112.159    
      9000   311.17574     -3239.9071     -3257.8866      17.979512      9060.1188      10112.159    
      9100   285.55617     -3239.6941     -3256.1933      16.499231      8786.4208      10112.159    
      9200   330.71814     -3238.448      -3257.5567      19.108657      8705.1832      10112.159    
      9300   306.13136     -3238.4466     -3256.1347      17.688051      9501.8851      10112.159    
      9400   297.62124     -3239.8801     -3257.0764      17.196342      8635.0008      10112.159    
      9500   293.98335     -3240.9878     -3257.9739      16.986148      8163.2107      10112.159    
      9600   282.26987     -3240.6729     -3256.9822      16.309351      8589.9974      10112.159    
      9700   302.27055     -3240.0595     -3257.5245      17.464976      8820.2115      10112.159    
      9800   301.73366     -3239.7103     -3257.1443      17.433955      8490.3537      10112.159    
      9900   309.92981     -3238.791      -3256.6985      17.907523      9163.8293      10112.159    
     10000   310.11708     -3238.3111     -3256.2294      17.918343      9379.4185      10112.159    
     10100   291.12961     -3239.7239     -3256.5452      16.821261      8788.7984      10112.159    
     10200   309.31963     -3240.6146     -3258.4868      17.872267      8201.2482      10112.159    
     10300   279.25983     -3241.3008     -3257.4362      16.135433      8712.7814      10112.159    
     10400   303.28667     -3240.5677     -3258.0914      17.523687      8638.2366      10112.159    
     10500   289.25403     -3239.0456     -3255.7585      16.712891      8939.7234      10112.159    
     10600   326.86889     -3237.9201     -3256.8064      18.886251      9020.9634      10112.159    
     10700   299.73147     -3239.0316     -3256.3499      17.31827       9045.0095      10112.159    
     10800   303.44562     -3240.2524     -3257.7853      17.532871      8395.303       10112.159    
     10900   293.86531     -3240.8827     -3257.862       16.979327      8535.4612      10112.159    
     11000   280.2687      -3240.7177     -3256.9114      16.193725      8617.3814      10112.159    
     11100   323.31581     -3239.012      -3257.6929      18.680956      8936.1824      10112.159    
     11200   297.89536     -3238.8948     -3256.1069      17.212181      8951.1478      10112.159    
     11300   293.20289     -3239.2981     -3256.2391      16.941053      8891.599       10112.159    
     11400   299.55961     -3239.92       -3257.2283      17.30834       8870.1101      10112.159    
     11500   291.87696     -3241.3111     -3258.1755      16.864442      8336.4882      10112.159    
     11600   280.67788     -3242.1579     -3258.3753      16.217367      8511.5835      10112.159    
     11700   276.17061     -3241.6032     -3257.5601      15.956941      8823.2221      10112.159    
     11800   290.60331     -3240.5475     -3257.3384      16.790852      8895.2012      10112.159    
     11900   307.11698     -3239.513      -3257.258       17.745         9096.7999      10112.159    
     12000   305.75162     -3239.2692     -3256.9353      17.66611       8786.316       10112.159    
     12100   314.66173     -3239.5444     -3257.7253      18.18093       8862.7286      10112.159    
     12200   282.34267     -3241.0691     -3257.3827      16.313558      8577.1915      10112.159    
     12300   284.26972     -3241.3162     -3257.7411      16.424901      8458.9781      10112.159    
     12400   314.51715     -3240.1587     -3258.3313      18.172576      8550.5388      10112.159    
     12500   311.08333     -3238.824      -3256.7982      17.974172      9110.1625      10112.159    
     12600   308.07032     -3238.4086     -3256.2087      17.800083      9190.0648      10112.159    
     12700   312.38755     -3238.855      -3256.9045      18.049529      8861.002       10112.159    
     12800   295.03056     -3240.1486     -3257.1952      17.046655      8600.2251      10112.159    
     12900   286.8094      -3240.6645     -3257.2361      16.571642      8860.7358      10112.159    
     13000   304.29625     -3240.0009     -3257.5829      17.582019      8564.118       10112.159    
     13100   302.6639      -3239.1286     -3256.6163      17.487704      8821.2079      10112.159    
     13200   328.09794     -3237.5035     -3256.4607      18.957264      8858.3764      10112.159    
     13300   317.46095     -3237.769      -3256.1116      18.342667      9383.5163      10112.159    
     13400   297.4417      -3239.3039     -3256.4899      17.185969      9291.8959      10112.159    
     13500   300.21408     -3240.045      -3257.3912      17.346155      8718.9835      10112.159    
     13600   289.0898      -3240.2766     -3256.98        16.703402      8645.6107      10112.159    
     13700   319.64225     -3239.7468     -3258.2155      18.4687        8733.5259      10112.159    
     13800   280.42208     -3240.5414     -3256.744       16.202587      8501.5937      10112.159    
     13900   315.07653     -3240.5866     -3258.7915      18.204897      8418.5392      10112.159    
     14000   271.64013     -3241.0463     -3256.7414      15.695173      8876.0268      10112.159    
     14100   312.84383     -3239.969      -3258.0449      18.075893      8698.9521      10112.159    
     14200   302.94855     -3239.0841     -3256.5883      17.504151      8670.7985      10112.159    
     14300   311.70858     -3238.6828     -3256.6931      18.010299      9361.9379      10112.159    
     14400   281.14005     -3240.3186     -3256.5626      16.244071      8857.1696      10112.159    
     14500   300.9198      -3240.7212     -3258.1081      17.386931      8545.838       10112.159    
     14600   314.41445     -3240.4378     -3258.6045      18.166642      8335.824       10112.159    
     14700   281.76915     -3240.0766     -3256.357       16.28042       8803.5039      10112.159    
     14800   302.77707     -3238.8331     -3256.3274      17.494243      9222.4866      10112.159    
     14900   307.72317     -3238.9623     -3256.7423      17.780025      8560.0188      10112.159    
     15000   307.63667     -3239.5335     -3257.3085      17.775027      8853.8769      10112.159    
     15100   289.55096     -3241.0118     -3257.7419      16.730047      8779.9205      10112.159    
     15200   280.22751     -3242.3844     -3258.5757      16.191345      8307.9476      10112.159    
     15300   292.2458      -3241.4743     -3258.3601      16.885753      8538.5756      10112.159    
     15400   301.26024     -3240.1741     -3257.5807      17.406601      8995.8763      10112.159    
     15500   308.89023     -3239.2551     -3257.1026      17.847457      8880.5332      10112.159    
     15600   287.58052     -3239.1536     -3255.7698      16.616197      9464.8035      10112.159    
     15700   325.51789     -3239.1255     -3257.9337      18.808191      8793.5111      10112.159    
     15800   285.89184     -3240.8189     -3257.3375      16.518626      8746.1456      10112.159    
     15900   287.21484     -3240.9736     -3257.5687      16.595068      8697.8994      10112.159    
     16000   301.9187      -3240.0132     -3257.4579      17.444647      9152.9499      10112.159    
     16100   296.35815     -3239.2846     -3256.4079      17.123362      8697.8396      10112.159    
     16200   302.82235     -3239.1795     -3256.6764      17.496859      8948.7498      10112.159    
     16300   301.30094     -3239.4961     -3256.9051      17.408953      8870.1591      10112.159    
     16400   299.60279     -3240.8837     -3258.1946      17.310835      8781.6971      10112.159    
     16500   271.41195     -3242.6959     -3258.3779      15.681988      8307.1188      10112.159    
     16600   287.04684     -3241.5063     -3258.0917      16.585361      8487.651       10112.159    
     16700   314.28068     -3239.8845     -3258.0434      18.158913      8852.0373      10112.159    
     16800   295.70039     -3239.5121     -3256.5975      17.085357      8990.4977      10112.159    
     16900   307.51722     -3238.8142     -3256.5823      17.768125      8783.6429      10112.159    
     17000   312.56251     -3238.3971     -3256.4568      18.059638      9261.717       10112.159    
     17100   300.37119     -3239.9136     -3257.2688      17.355233      8883.9906      10112.159    
     17200   296.71119     -3240.6702     -3257.8139      17.14376       8785.6469      10112.159    
     17300   290.21841     -3240.5202     -3257.2888      16.768612      8526.4646      10112.159    
     17400   295.36327     -3239.8778     -3256.9437      17.065878      8983.8187      10112.159    
     17500   308.25932     -3238.4426     -3256.2536      17.811003      9389.8897      10112.159    
     17600   330.87797     -3237.4787     -3256.5966      19.117892      9216.1151      10112.159    
     17700   315.91152     -3238.5382     -3256.7913      18.253141      9044.7196      10112.159    
     17800   298.39818     -3239.5065     -3256.7477      17.241234      8964.2287      10112.159    
     17900   288.7389      -3240.1232     -3256.8063      16.683127      8739.1627      10112.159    
     18000   315.43706     -3239.9631     -3258.1888      18.225727      8690.2069      10112.159    
     18100   279.47679     -3240.3611     -3256.5091      16.147969      8857.1468      10112.159    
     18200   296.31147     -3240.236      -3257.3567      17.120665      8710.705       10112.159    
     18300   310.03787     -3239.6564     -3257.5701      17.913766      8569.7347      10112.159    
     18400   299.92654     -3239.1111     -3256.4406      17.329541      8841.3431      10112.159    
     18500   305.07578     -3238.6373     -3256.2643      17.62706       9172.6286      10112.159    
     18600   316.2966      -3239.0016     -3257.277       18.275391      8917.2506      10112.159    
     18700   292.38265     -3240.4701     -3257.3637      16.89366       8630.8342      10112.159    
     18800   289.28165     -3240.7559     -3257.4704      16.714487      8806.2984      10112.159    
     18900   306.30717     -3239.9647     -3257.6629      17.698209      8822.4414      10112.159    
     19000   304.53275     -3238.7659     -3256.3616      17.595684      9674.5437      10112.159    
     19100   315.04392     -3238.352      -3256.555       18.203012      9151.4671      10112.159    
     19200   298.48256     -3240.1129     -3257.359       17.246109      9359.89        10112.159    
     19300   290.70794     -3241.2191     -3258.016       16.796897      8361.07        10112.159    
     19400   294.27695     -3241.0105     -3258.0136      17.003112      8435.3461      10112.159    
     19500   299.85639     -3239.5777     -3256.9032      17.325488      9051.1765      10112.159    
     19600   304.43898     -3238.8614     -3256.4517      17.590267      8868.8028      10112.159    
     19700   312.17787     -3239.1591     -3257.1965      18.037414      9221.9042      10112.159    
     19800   288.60408     -3240.4315     -3257.1069      16.675337      8588.1938      10112.159    
     19900   299.06241     -3240.6052     -3257.8849      17.279612      8581.7329      10112.159    
     20000   303.47757     -3240.3416     -3257.8763      17.534717      8779.1019      10112.159    
     20100   278.67194     -3240.2426     -3256.344       16.101466      8831.538       10112.159    
     20200   319.53333     -3239.3459     -3257.8083      18.462408      9190.0945      10112.159    
     20300   294.64052     -3239.623      -3256.6471      17.024119      8951.4519      10112.159    
     20400   317.76796     -3239.4353     -3257.7957      18.360405      8903.8063      10112.159    
     20500   295.972       -3240.062      -3257.1631      17.101051      8856.518       10112.159    
     20600   293.86103     -3240.3084     -3257.2874      16.97908       8640.8738      10112.159    
     20700   293.39972     -3239.8424     -3256.7948      16.952426      9188.8413      10112.159    
     20800   322.25561     -3238.1669     -3256.7866      18.619699      9424.5857      10112.159    
     20900   307.03931     -3238.3475     -3256.0881      17.740512      9238.1334      10112.159    
     21000   310.18797     -3239.6696     -3257.592       17.922439      9072.2652      10112.159    
     21100   283.25167     -3240.8415     -3257.2076      16.366079      8666.4071      10112.159    
     21200   301.50002     -3240.2577     -3257.6782      17.420455      8971.3699      10112.159    
     21300   303.78752     -3239.6813     -3257.2339      17.552626      9090.024       10112.159    
     21400   299.72953     -3239.2332     -3256.5514      17.318158      9329.3165      10112.159    
     21500   330.36501     -3237.7334     -3256.8217      19.088254      9095.4891      10112.159    
     21600   316.31458     -3237.926      -3256.2024      18.27643       9205.9595      10112.159    
     21700   290.8281      -3239.9451     -3256.7489      16.803839      8849.5972      10112.159    
     21800   299.13087     -3240.3394     -3257.6229      17.283568      8734.6733      10112.159    
     21900   285.0723      -3240.7532     -3257.2245      16.471274      8796.1572      10112.159    
     22000   303.70767     -3240.1991     -3257.7471      17.548012      8554.8611      10112.159    
     22100   316.17322     -3238.7185     -3256.9868      18.268262      9190.0008      10112.159    
     22200   310.9664      -3238.5984     -3256.5659      17.967416      8894.8491      10112.159    
     22300   297.11662     -3239.2361     -3256.4033      17.167186      9099.821       10112.159    
     22400   294.48174     -3239.8714     -3256.8863      17.014945      9066.3854      10112.159    
     22500   313.73687     -3239.6709     -3257.7984      18.127492      9068.8707      10112.159    
     22600   292.88358     -3239.9749     -3256.8975      16.922604      8667.9491      10112.159    
     22700   292.25033     -3240.3552     -3257.2412      16.886015      8846.1145      10112.159    
     22800   289.79277     -3240.7311     -3257.4752      16.744019      8656.7581      10112.159    
     22900   305.12467     -3240.3828     -3258.0127      17.629885      8560.0565      10112.159    
     23000   297.97718     -3239.4864     -3256.7034      17.216908      8608.3921      10112.159    
     23100   310.92011     -3238.597      -3256.5617      17.964742      9301.8597      10112.159    
     23200   291.57312     -3239.2284     -3256.0753      16.846886      9316.7515      10112.159    
     23300   285.22554     -3240.9892     -3257.4693      16.480128      8834.386       10112.159    
     23400   294.64768     -3241.3293     -3258.3538      17.024532      8743.3379      10112.159    
     23500   288.61521     -3241.0268     -3257.7027      16.67598       8515.4493      10112.159    
     23600   300.50447     -3239.7078     -3257.0708      17.362933      8991.8251      10112.159    
     23700   298.33694     -3239.5215     -3256.7592      17.237695      8987.059       10112.159    
     23800   305.18021     -3239.7414     -3257.3745      17.633094      8909.8717      10112.159    
     23900   311.58389     -3240.0881     -3258.0912      18.003094      8768.0538      10112.159    
     24000   270.60374     -3241.284      -3256.9193      15.635291      8529.6021      10112.159    
     24100   301.54222     -3240.8343     -3258.2571      17.422894      8610.1514      10112.159    
     24200   294.41069     -3239.3115     -3256.3224      17.010839      9037.0045      10112.159    
     24300   321.93215     -3238.3406     -3256.9416      18.601009      9170.0276      10112.159    
     24400   311.68715     -3238.8876     -3256.8967      18.00906       8674.8975      10112.159    
     24500   287.58401     -3239.9793     -3256.5957      16.616398      9216.3241      10112.159    
     24600   298.49886     -3240.1132     -3257.3603      17.247051      8923.7053      10112.159    
     24700   294.96481     -3240.309      -3257.3518      17.042856      8616.9785      10112.159    
     24800   314.42076     -3239.8101     -3257.9771      18.167007      8526.0247      10112.159    
     24900   305.77248     -3237.9546     -3255.6219      17.667315      9140.5771      10112.159    
     25000   310.78725     -3237.8604     -3255.8174      17.957065      9553.6421      10112.159    
     25100   294.0692      -3239.1074     -3256.0985      16.991108      9343.304       10112.159    
     25200   313.23662     -3239.5575     -3257.6561      18.098588      8660.2698      10112.159    
     25300   304.31907     -3240.1717     -3257.755       17.583338      8846.1053      10112.159    
     25400   290.31437     -3240.4934     -3257.2675      16.774157      8904.0508      10112.159    
     25500   291.77459     -3240.083      -3256.9415      16.858527      9003.115       10112.159    
     25600   306.09244     -3238.9651     -3256.6509      17.685802      9131.7126      10112.159    
     25700   310.17053     -3238.3562     -3256.2776      17.921431      9149.1334      10112.159    
     25800   308.5067      -3238.8646     -3256.6899      17.825297      8786.555       10112.159    
     25900   307.62154     -3240.4348     -3258.209       17.774152      8512.9096      10112.159    
     26000   273.12787     -3240.9331     -3256.7142      15.781133      8976.3896      10112.159    
     26100   294.66591     -3240.6104     -3257.636       17.025586      8979.5265      10112.159    
     26200   312.40242     -3239.9904     -3258.0408      18.050388      8753.3365      10112.159    
     26300   297.42265     -3239.7501     -3256.935       17.184868      9020.2094      10112.159    
     26400   306.51588     -3239.6467     -3257.357       17.710268      8935.8944      10112.159    
     26500   280.26689     -3239.8968     -3256.0904      16.19362       9217.0125      10112.159    
     26600   322.36095     -3239.4478     -3258.0736      18.625785      8906.3212      10112.159    
     26700   300.79044     -3240.0012     -3257.3807      17.379457      8870.6807      10112.159    
     26800   292.15778     -3240.3584     -3257.2391      16.880668      9031.4496      10112.159    
     26900   289.68992     -3240.2292     -3256.9673      16.738076      8862.8218      10112.159    
     27000   307.0862      -3240.0845     -3257.8278      17.743221      8928.3375      10112.159    
     27100   290.7924      -3240.3067     -3257.1085      16.801777      8924.1675      10112.159    
     27200   300.214       -3239.7849     -3257.131       17.34615       9037.9258      10112.159    
     27300   308.39319     -3238.8947     -3256.7135      17.818738      9140.9056      10112.159    
     27400   327.31148     -3238.0649     -3256.9768      18.911823      8985.9271      10112.159    
     27500   302.62467     -3239.0979     -3256.5833      17.485437      9343.5504      10112.159    
     27600   280.52713     -3240.3402     -3256.5488      16.208657      9145.3245      10112.159    
     27700   309.1528      -3240.2316     -3258.0942      17.862628      8676.5696      10112.159    
     27800   299.74722     -3240.4741     -3257.7933      17.31918       8625.6318      10112.159    
     27900   297.13135     -3240.064      -3257.2321      17.168037      8925.0969      10112.159    
     28000   300.42945     -3238.7966     -3256.1552      17.358599      9180.7332      10112.159    
     28100   315.86066     -3238.2621     -3256.5123      18.250203      9489.2573      10112.159    
     28200   309.35639     -3239.3253     -3257.1997      17.874391      8861.4876      10112.159    
     28300   291.22866     -3240.6485     -3257.4755      16.826984      8895.4125      10112.159    
     28400   301.78312     -3240.6466     -3258.0834      17.436813      8594.5354      10112.159    
     28500   308.11348     -3239.8526     -3257.6552      17.802576      8887.3893      10112.159    
     28600   287.40615     -3239.652      -3256.2581      16.606122      9149.3708      10112.159    
     28700   302.37862     -3239.5325     -3257.0037      17.47122       8993.4546      10112.159    
     28800   294.97328     -3240.1202     -3257.1636      17.043345      8800.6439      10112.159    
     28900   290.26442     -3241.2789     -3258.0501      16.771271      8666.7826      10112.159    
     29000   286.56126     -3241.3626     -3257.9199      16.557304      8707.9201      10112.159    
     29100   308.9547      -3239.9314     -3257.7826      17.851182      8992.6578      10112.159    
     29200   296.97325     -3239.3409     -3256.4998      17.158902      9131.784       10112.159    
     29300   301.08239     -3239.2452     -3256.6415      17.396325      8952.9813      10112.159    
     29400   325.97975     -3239.3259     -3258.1607      18.834877      8675.7498      10112.159    
     29500   267.98787     -3241.0759     -3256.56        15.484147      9064.292       10112.159    
     29600   301.00735     -3240.6568     -3258.0488      17.39199       9134.0649      10112.159    
     29700   288.42907     -3240.3315     -3256.9968      16.665225      9015.2955      10112.159    
     29800   327.49144     -3238.6373     -3257.5595      18.922221      8998.1029      10112.159    
     29900   304.15178     -3238.6958     -3256.2695      17.573672      9394.8595      10112.159    
     30000   303.07575     -3239.2487     -3256.7602      17.5115        9381.2284      10112.159    
     30100   290.23628     -3240.4272     -3257.1969      16.769645      8921.1817      10112.159    
     30200   305.58998     -3240.7535     -3258.4103      17.65677       8232.883       10112.159    
     30300   310.40694     -3240.2791     -3258.2142      17.935091      8905.5779      10112.159    
     30400   289.79156     -3240.3855     -3257.1294      16.743949      8940.4495      10112.159    
     30500   293.56579     -3239.9292     -3256.8912      16.962021      9120.6574      10112.159    
     30600   303.15334     -3239.0566     -3256.5726      17.515983      9175.8771      10112.159    
     30700   302.59827     -3238.8844     -3256.3683      17.483912      9512.2527      10112.159    
     30800   312.67357     -3239.9171     -3257.9831      18.066055      8596.1467      10112.159    
     30900   284.35013     -3241.1539     -3257.5835      16.429547      8879.885       10112.159    
     31000   293.3188      -3240.9053     -3257.8531      16.94775       8930.9999      10112.159    
     31100   296.47028     -3239.8291     -3256.9589      17.129841      9078.4863      10112.159    
     31200   307.78014     -3238.6354     -3256.4187      17.783316      9597.9388      10112.159    
     31300   316.35627     -3238.7575     -3257.0364      18.278839      8967.4264      10112.159    
     31400   287.51434     -3239.9562     -3256.5686      16.612373      9406.8978      10112.159    
     31500   295.90276     -3239.8718     -3256.9688      17.09705       9419.2315      10112.159    
     31600   322.84734     -3239.6971     -3258.351       18.653889      8507.4282      10112.159    
     31700   296.47128     -3240.2852     -3257.4151      17.129898      8905.9757      10112.159    
     31800   293.67574     -3239.6145     -3256.5829      16.968374      9333.5478      10112.159    
     31900   313.06923     -3238.2767     -3256.3656      18.088916      9267.4968      10112.159    
     32000   326.61647     -3238.3584     -3257.23        18.871666      9262.3758      10112.159    
     32100   296.74457     -3240.085      -3257.2307      17.145689      9541.8157      10112.159    
     32200   298.71952     -3240.4476     -3257.7074      17.2598        8615.3221      10112.159    
     32300   294.0414      -3240.1764     -3257.1659      16.989502      8937.4748      10112.159    
     32400   312.65137     -3238.9766     -3257.0414      18.064773      9231.4061      10112.159    
     32500   307.42243     -3238.4907     -3256.2534      17.762648      9461.2082      10112.159    
     32600   294.08015     -3240.0693     -3257.061       16.991741      8738.6963      10112.159    
     32700   291.16055     -3241.1312     -3257.9542      16.823048      8732.3433      10112.159    
     32800   291.12197     -3240.8206     -3257.6414      16.820819      8647.7203      10112.159    
     32900   300.28712     -3239.5441     -3256.8944      17.350375      8869.8305      10112.159    
     33000   298.70797     -3238.8833     -3256.1424      17.259133      9752.6285      10112.159    
     33100   314.03399     -3239.1219     -3257.2665      18.14466       8821.7905      10112.159    
     33200   309.31168     -3239.8413     -3257.7131      17.871807      9141.1091      10112.159    
     33300   302.08261     -3240.0885     -3257.5426      17.454117      8785.5462      10112.159    
     33400   286.20325     -3240.1899     -3256.7265      16.536619      9016.2117      10112.159    
     33500   315.58851     -3239.1001     -3257.3346      18.234478      9451.4112      10112.159    
     33600   318.62927     -3238.4415     -3256.8517      18.410171      8904.7447      10112.159    
     33700   295.85056     -3239.7102     -3256.8042      17.094034      9206.0637      10112.159    
     33800   291.65376     -3241.2951     -3258.1466      16.851546      8779.0251      10112.159    
     33900   283.11735     -3241.2433     -3257.6016      16.358318      8564.2547      10112.159    
     34000   302.94483     -3239.9726     -3257.4765      17.503936      9055.0321      10112.159    
     34100   310.36979     -3239.5019     -3257.4349      17.932944      8496.7732      10112.159    
     34200   297.6202      -3239.5091     -3256.7054      17.196282      9180.7739      10112.159    
     34300   296.29248     -3239.5467     -3256.6663      17.119568      9349.8684      10112.159    
     34400   292.3907      -3240.9994     -3257.8935      16.894125      8614.3868      10112.159    
     34500   287.97657     -3242.0269     -3258.666       16.63908       8617.4764      10112.159    
     34600   288.05466     -3241.1818     -3257.8254      16.643592      8692.4522      10112.159    
     34700   291.10102     -3239.9193     -3256.7389      16.819609      9072.5081      10112.159    
     34800   316.45301     -3239.4504     -3257.7348      18.284428      9201.8737      10112.159    
     34900   301.22988     -3240.0222     -3257.427       17.404847      9240.1427      10112.159    
     35000   297.19588     -3240.2635     -3257.4353      17.171765      9085.9995      10112.159    
     35100   303.0735      -3239.6287     -3257.1401      17.51137       9114.2633      10112.159    
     35200   297.85812     -3239.0416     -3256.2517      17.210029      9391.6521      10112.159    
     35300   309.94251     -3238.7939     -3256.7022      17.908257      9308.7836      10112.159    
     35400   297.41124     -3239.6494     -3256.8337      17.184209      9006.5257      10112.159    
     35500   297.36878     -3241.0165     -3258.1983      17.181755      8851.6728      10112.159    
     35600   278.94827     -3241.459      -3257.5764      16.117432      8643.2552      10112.159    
     35700   292.58915     -3240.6854     -3257.591       16.905592      9016.0492      10112.159    
     35800   303.00286     -3239.997      -3257.5043      17.507288      8977.1971      10112.159    
     35900   303.21177     -3239.6502     -3257.1696      17.519359      9067.0495      10112.159    
     36000   296.0432      -3239.8518     -3256.957       17.105165      9315.5968      10112.159    
     36100   290.90739     -3240.8047     -3257.6131      16.808421      8753.0634      10112.159    
     36200   298.39983     -3241.5454     -3258.7867      17.241329      8367.3538      10112.159    
     36300   280.91163     -3241.2465     -3257.4773      16.230873      8754.465       10112.159    
     36400   301.27149     -3239.5494     -3256.9566      17.407251      9158.1596      10112.159    
     36500   290.79267     -3239.3094     -3256.1112      16.801793      9355.3707      10112.159    
     36600   316.68173     -3239.2358     -3257.5335      18.297644      9126.175       10112.159    
     36700   285.21631     -3240.4482     -3256.9278      16.479594      8938.3498      10112.159    
     36800   288.61476     -3241.4982     -3258.1741      16.675954      8547.1043      10112.159    
     36900   274.61301     -3242.5249     -3258.3919      15.866943      8374.3505      10112.159    
     37000   305.82248     -3241.3129     -3258.9831      17.670204      8205.6461      10112.159    
     37100   286.10593     -3239.7972     -3256.3282      16.530996      9187.4785      10112.159    
     37200   310.74575     -3239.1517     -3257.1064      17.954667      8929.8035      10112.159    
     37300   296.42074     -3239.7627     -3256.8896      17.126978      9156.7824      10112.159    
     37400   297.51486     -3240.1226     -3257.3128      17.190196      8850.4579      10112.159    
     37500   304.91218     -3240.3181     -3257.9357      17.617608      8789.8811      10112.159    
     37600   285.24925     -3240.9223     -3257.4038      16.481498      8575.6621      10112.159    
     37700   288.6455      -3240.48       -3257.1578      16.677731      8809.3949      10112.159    
     37800   315.12301     -3239.2145     -3257.4221      18.207582      9193.5305      10112.159    
     37900   312.09941     -3238.4872     -3256.5201      18.03288       9035.3387      10112.159    
     38000   298.53286     -3239.1626     -3256.4117      17.249015      9156.6422      10112.159    
     38100   303.43429     -3240.4355     -3257.9677      17.532217      8350.7468      10112.159    
     38200   279.27307     -3240.8129     -3256.9491      16.136198      8840.6497      10112.159    
     38300   302.47153     -3240.3888     -3257.8653      17.476588      8659.5241      10112.159    
     38400   315.12256     -3239.9758     -3258.1833      18.207556      8695.051       10112.159    
     38500   292.53739     -3239.5156     -3256.4182      16.902601      9036.6962      10112.159    
     38600   308.22995     -3238.1685     -3255.9778      17.809306      9226.1866      10112.159    
     38700   300.52297     -3238.2962     -3255.6602      17.364002      9651.8288      10112.159    
     38800   294.76424     -3240.4188     -3257.4501      17.031267      8553.3748      10112.159    
     38900   311.37345     -3240.9052     -3258.8961      17.990935      8624.6472      10112.159    
     39000   300.12372     -3240.7482     -3258.0891      17.340934      8855.0681      10112.159    
     39100   292.78754     -3239.8742     -3256.7913      16.917054      8873.0311      10112.159    
     39200   302.71163     -3238.6304     -3256.1208      17.490461      9070.4702      10112.159    
     39300   328.7497      -3238.2561     -3257.251       18.994923      9371.0454      10112.159    
     39400   309.82198     -3239.0713     -3256.9726      17.901293      9050.86        10112.159    
     39500   289.29006     -3239.7314     -3256.4463      16.714973      9042.0508      10112.159    
     39600   302.47348     -3240.0763     -3257.553       17.476701      8831.0194      10112.159    
     39700   288.03819     -3240.9759     -3257.6185      16.642641      8532.2829      10112.159    
     39800   294.54211     -3241.3585     -3258.377       17.018432      8410.1803      10112.159    
     39900   299.00976     -3240.2248     -3257.5014      17.27657       8757.996       10112.159    
     40000   303.14012     -3239.1153     -3256.6306      17.515219      9331.2685      10112.159    
     40100   306.97792     -3238.9404     -3256.6774      17.736965      9068.3497      10112.159    
     40200   301.20293     -3239.8719     -3257.2752      17.40329       9130.4916      10112.159    
     40300   289.48625     -3241.1523     -3257.8786      16.726308      8502.9781      10112.159    
     40400   289.53083     -3240.9091     -3257.638       16.728884      8463.1106      10112.159    
     40500   300.31456     -3240.2336     -3257.5855      17.351961      8795.5385      10112.159    
     40600   305.80299     -3239.8572     -3257.5262      17.669078      8798.2978      10112.159    
     40700   294.2868      -3239.8158     -3256.8194      17.003681      8789.2843      10112.159    
     40800   308.63299     -3239.5725     -3257.4051      17.832594      8773.1048      10112.159    
     40900   304.92556     -3239.6436     -3257.262       17.618381      9066.3873      10112.159    
     41000   282.6105      -3240.1956     -3256.5246      16.329032      8981.8752      10112.159    
     41100   305.42781     -3240.2049     -3257.8523      17.647401      9000.8267      10112.159    
     41200   304.222       -3240.1375     -3257.7152      17.577729      8687.4335      10112.159    
     41300   282.93595     -3240.2808     -3256.6286      16.347837      9041.7082      10112.159    
     41400   308.47754     -3239.7426     -3257.5662      17.823612      9105.2228      10112.159    
     41500   300.2694      -3239.0992     -3256.4486      17.349351      9044.8798      10112.159    
     41600   324.34875     -3238.1754     -3256.9161      18.740639      9268.6496      10112.159    
     41700   303.20561     -3238.9133     -3256.4323      17.519003      9111.0694      10112.159    
     41800   300.65193     -3240.6627     -3258.0342      17.371454      8585.3167      10112.159    
     41900   298.06329     -3241.0065     -3258.2284      17.221884      8738.554       10112.159    
     42000   290.87372     -3240.6123     -3257.4187      16.806476      8681.6967      10112.159    
     42100   309.13737     -3239.3218     -3257.1835      17.861736      9326.5133      10112.159    
     42200   301.83755     -3238.906      -3256.346       17.439958      9053.49        10112.159    
     42300   301.00714     -3239.1139     -3256.5059      17.391977      8770.5044      10112.159    
     42400   307.03714     -3239.5238     -3257.2642      17.740386      8622.1693      10112.159    
     42500   301.46885     -3240.3416     -3257.7603      17.418654      8878.6925      10112.159    
     42600   299.18086     -3240.4375     -3257.724       17.286456      8664.0334      10112.159    
     42700   295.19644     -3240.1167     -3257.1729      17.056239      8667.3627      10112.159    
     42800   293.5247      -3239.9966     -3256.9563      16.959647      9080.0207      10112.159    
     42900   289.64361     -3239.9027     -3256.6381      16.7354        8872.4329      10112.159    
     43000   305.01566     -3239.5086     -3257.1322      17.623587      8968.1479      10112.159    
     43100   312.2641      -3239.0754     -3257.1178      18.042396      8915.3075      10112.159    
     43200   304.38046     -3239.0504     -3256.6373      17.586885      9175.3435      10112.159    
     43300   288.40941     -3240.2798     -3256.9439      16.664089      8571.5297      10112.159    
     43400   303.28177     -3240.7883     -3258.3118      17.523404      8602.4723      10112.159    
     43500   308.87872     -3240.1643     -3258.0111      17.846791      8773.3453      10112.159    
     43600   301.55432     -3239.0794     -3256.503       17.423593      9009.2019      10112.159    
     43700   294.42932     -3238.9566     -3255.9685      17.011916      9022.0579      10112.159    
     43800   300.71645     -3240.1742     -3257.5494      17.375181      8670.417       10112.159    
     43900   292.91731     -3241.5393     -3258.4638      16.924553      8299.7891      10112.159    
     44000   293.73363     -3241.2082     -3258.1799      16.971719      8457.2249      10112.159    
     44100   300.59086     -3239.8195     -3257.1874      17.367925      9001.449       10112.159    
     44200   294.04237     -3239.0445     -3256.034       16.989558      9014.8732      10112.159    
     44300   312.79636     -3239.1198     -3257.193       18.07315       9005.8054      10112.159    
     44400   288.14533     -3240.5197     -3257.1686      16.648831      8826.274       10112.159    
     44500   296.73741     -3240.4652     -3257.6105      17.145276      8398.3839      10112.159    
     44600   296.7997      -3240.1473     -3257.2962      17.148874      9039.0162      10112.159    
     44700   307.88063     -3239.7511     -3257.5402      17.789123      8863.0371      10112.159    
     44800   307.04499     -3239.8289     -3257.5698      17.74084       8771.8202      10112.159    
     44900   278.30227     -3241.28       -3257.3601      16.080106      8458.3468      10112.159    
     45000   274.51049     -3241.8936     -3257.7546      15.86102       8615.9804      10112.159    
     45100   309.98761     -3240.5534     -3258.4643      17.910862      8535.7557      10112.159    
     45200   296.87813     -3239.8364     -3256.9898      17.153406      8903.6248      10112.159    
     45300   316.21017     -3239.3429     -3257.6133      18.270397      8886.0266      10112.159    
     45400   290.38496     -3239.7343     -3256.5126      16.778236      8946.4345      10112.159    
     45500   293.23052     -3240.3891     -3257.3317      16.94265       8886.4219      10112.159    
     45600   283.29378     -3241.8334     -3258.2019      16.368512      8361.7698      10112.159    
     45700   295.96744     -3241.3675     -3258.4683      17.100787      8564.9316      10112.159    
     45800   294.06672     -3239.9053     -3256.8963      16.990965      9126.8156      10112.159    
     45900   292.08077     -3239.667      -3256.5432      16.876218      9093.8601      10112.159    
     46000   303.64688     -3239.7161     -3257.2606      17.5445        9173.239       10112.159    
     46100   299.09707     -3240.0408     -3257.3224      17.281615      8635.3605      10112.159    
     46200   307.61701     -3239.6478     -3257.4217      17.773891      8587.2024      10112.159    
     46300   299.50991     -3238.7193     -3256.0248      17.305468      9617.1861      10112.159    
     46400   316.2655      -3238.2513     -3256.5249      18.273594      9498.773       10112.159    
     46500   295.41134     -3239.6291     -3256.6977      17.068656      9282.45        10112.159    
     46600   287.04226     -3240.8573     -3257.4423      16.585096      9014.844       10112.159    
     46700   304.88567     -3240.4841     -3258.1002      17.616076      8679.8235      10112.159    
     46800   293.54487     -3239.9495     -3256.9103      16.960812      8813.493       10112.159    
     46900   308.12625     -3238.9492     -3256.7525      17.803314      9226.2713      10112.159    
     47000   303.67233     -3238.7938     -3256.3398      17.54597       9237.7656      10112.159    
     47100   293.22971     -3239.2916     -3256.2342      16.942603      9230.0429      10112.159    
     47200   316.74729     -3239.2693     -3257.5707      18.301432      8764.7954      10112.159    
     47300   278.4116      -3240.3786     -3256.4651      16.086423      8883.0715      10112.159    
     47400   302.52345     -3240.3038     -3257.7834      17.479588      8752.87        10112.159    
     47500   285.87137     -3239.94       -3256.4575      16.517443      9092.3824      10112.159    
     47600   317.47928     -3238.4273     -3256.771       18.343726      9267.3616      10112.159    
     47700   313.30737     -3238.4439     -3256.5465      18.102676      9116.2069      10112.159    
     47800   300.4954      -3239.965      -3257.3274      17.362409      8522.2917      10112.159    
     47900   286.54618     -3240.9097     -3257.4661      16.556433      8857.0806      10112.159    
     48000   298.1923      -3240.5997     -3257.829       17.229338      8811.915       10112.159    
     48100   304.4428      -3239.8023     -3257.3928      17.590487      8791.1216      10112.159    
     48200   307.64665     -3239.4026     -3257.1782      17.775604      8933.2853      10112.159    
     48300   307.82698     -3239.7226     -3257.5086      17.786023      8857.383       10112.159    
     48400   286.50382     -3241.4361     -3257.9901      16.553986      8359.0426      10112.159    
     48500   280.66222     -3242.1418     -3258.3583      16.216462      8538.9656      10112.159    
     48600   291.40198     -3241.0685     -3257.9055      16.836998      8735.379       10112.159    
     48700   298.77311     -3240.1174     -3257.3803      17.262897      8861.1053      10112.159    
     48800   297.34644     -3239.7672     -3256.9476      17.180465      8901.4161      10112.159    
     48900   310.53024     -3239.497      -3257.4392      17.942215      8545.3456      10112.159    
     49000   289.40731     -3239.8942     -3256.616       16.721747      8972.251       10112.159    
     49100   296.43803     -3240.6207     -3257.7487      17.127977      8663.7567      10112.159    
     49200   276.75116     -3241.3516     -3257.3421      15.990484      8697.9194      10112.159    
     49300   323.48618     -3240.1798     -3258.8706      18.6908        8449.8529      10112.159    
     49400   299.03975     -3239.7184     -3256.9967      17.278303      8740.063       10112.159    
     49500   311.64127     -3238.968      -3256.9744      18.00641       9025.0269      10112.159    
     49600   310.46133     -3237.9544     -3255.8927      17.938234      9349.3769      10112.159    
     49700   319.86715     -3236.9197     -3255.4014      18.481695      9638.1216      10112.159    
     49800   318.97092     -3238.3721     -3256.802       18.429912      9103.2328      10112.159    
     49900   297.9528      -3239.7646     -3256.9801      17.2155        8795.2292      10112.159    
     50000   286.88133     -3240.5488     -3257.1246      16.575798      8999.97        10112.159    
     50100   300.04443     -3240.4748     -3257.8112      17.336353      8511.8609      10112.159    
     50200   302.0735      -3240.0165     -3257.4701      17.453591      8859.8455      10112.159    
     50300   291.18865     -3239.2655     -3256.0902      16.824672      9387.1025      10112.159    
     50400   316.20961     -3238.2361     -3256.5065      18.270365      9378.8552      10112.159    
     50500   312.94962     -3238.8459     -3256.9279      18.082005      9267.5697      10112.159    
     50600   307.43811     -3240.1801     -3257.9436      17.763554      8624.2997      10112.159    
     50700   272.87539     -3240.8842     -3256.6507      15.766545      8595.1786      10112.159    
     50800   309.44775     -3240.0911     -3257.9708      17.87967       8634.0704      10112.159    
     50900   318.89266     -3239.5619     -3257.9873      18.42539       8620.8624      10112.159    
     51000   310.0301      -3239.29       -3257.2033      17.913318      9371.1818      10112.159    
     51100   288.96353     -3239.5044     -3256.2005      16.696106      9385.85        10112.159    
     51200   286.77763     -3240.5086     -3257.0784      16.569806      8983.1573      10112.159    
     51300   303.01061     -3241.0226     -3258.5303      17.507736      8201.4834      10112.159    
     51400   296.00211     -3241.0975     -3258.2003      17.10279       8494.1015      10112.159    
     51500   292.26502     -3239.4978     -3256.3847      16.886864      9149.5605      10112.159    
     51600   308.09466     -3238.7712     -3256.5727      17.801489      9223.0638      10112.159    
     51700   305.91601     -3239.2129     -3256.8885      17.675608      9020.1848      10112.159    
     51800   286.8009      -3240.4356     -3257.0068      16.571151      8847.7958      10112.159    
     51900   290.68695     -3240.8854     -3257.6811      16.795684      8726.0366      10112.159    
     52000   291.09693     -3240.5511     -3257.3705      16.819372      9049.1417      10112.159    
     52100   306.57006     -3240.1054     -3257.8188      17.713399      9018.7819      10112.159    
     52200   291.44428     -3240.13       -3256.9695      16.839442      9095.7456      10112.159    
     52300   289.9331      -3239.9592     -3256.7113      16.752127      8874.7497      10112.159    
     52400   321.80152     -3239.0303     -3257.6238      18.593462      9231.6103      10112.159    
     52500   317.4522      -3238.2175     -3256.5597      18.342161      9190.3024      10112.159    
     52600   308.27454     -3238.3858     -3256.1977      17.811882      9109.1067      10112.159    
     52700   304.50633     -3240.2916     -3257.8858      17.594158      8737.6848      10112.159    
     52800   292.77905     -3240.8379     -3257.7545      16.916564      8925.5621      10112.159    
     52900   281.40296     -3240.4083     -3256.6676      16.259262      8928.9797      10112.159    
     53000   315.71215     -3239.0742     -3257.3158      18.241622      9312.8554      10112.159    
     53100   299.99842     -3239.063      -3256.3967      17.333694      9531.5397      10112.159    
     53200   306.44108     -3239.3075     -3257.0134      17.705947      8700.7288      10112.159    
     53300   297.06896     -3240.7153     -3257.8797      17.164432      8748.7208      10112.159    
     53400   288.72615     -3242.1421     -3258.8244      16.68239       8584.5183      10112.159    
     53500   282.54925     -3241.2409     -3257.5664      16.325494      8700.7074      10112.159    
     53600   287.42763     -3239.9817     -3256.5891      16.607363      9171.2437      10112.159    
     53700   303.39339     -3239.4131     -3256.943       17.529853      8852.7163      10112.159    
     53800   323.15443     -3239.1431     -3257.8147      18.671632      8757.8374      10112.159    
     53900   303.42232     -3239.6238     -3257.1554      17.531525      8870.3778      10112.159    
     54000   262.4999      -3241.2161     -3256.3832      15.167057      8907.5969      10112.159    
     54100   315.9514      -3240.8303     -3259.0857      18.255446      8514.5608      10112.159    
     54200   287.68449     -3240.515      -3257.1372      16.622204      8727.9145      10112.159    
     54300   301.78076     -3238.9824     -3256.419       17.436676      9228.1407      10112.159    
     54400   305.54159     -3238.9956     -3256.6495      17.653975      9343.7515      10112.159    
     54500   308.70842     -3239.6097     -3257.4466      17.836951      8711.3725      10112.159    
     54600   295.58005     -3240.3962     -3257.4746      17.078404      8549.6859      10112.159    
     54700   282.26704     -3240.9809     -3257.2901      16.309188      8661.3742      10112.159    
     54800   296.51675     -3241.4494     -3258.5819      17.132526      8619.7835      10112.159    
     54900   287.86942     -3241.0578     -3257.6906      16.632889      8290.8039      10112.159    
     55000   307.28624     -3239.4714     -3257.2262      17.754779      9137.5532      10112.159    
     55100   312.12146     -3239.0645     -3257.0987      18.034155      9053.3479      10112.159    
     55200   288.63489     -3239.7428     -3256.4199      16.677117      8967.0036      10112.159    
     55300   300.0852      -3240.6062     -3257.9449      17.338708      8443.3142      10112.159    
     55400   286.97757     -3241.9967     -3258.5781      16.581359      8459.7173      10112.159    
     55500   290.48704     -3241.5379     -3258.322       16.784133      8695.0478      10112.159    
     55600   289.31713     -3240.4999     -3257.2165      16.716537      8845.6026      10112.159    
     55700   282.16576     -3240.0747     -3256.378       16.303336      8810.6395      10112.159    
     55800   320.81941     -3239.2427     -3257.7794      18.536716      9076.6107      10112.159    
     55900   297.50513     -3239.6011     -3256.7908      17.189634      9086.9227      10112.159    
     56000   296.86839     -3240.1618     -3257.3147      17.152843      8939.8409      10112.159    
     56100   298.51352     -3241.3203     -3258.5682      17.247898      8700.7458      10112.159    
     56200   273.56383     -3241.7707     -3257.577       15.806322      8756.6537      10112.159    
     56300   295.59967     -3240.1988     -3257.2783      17.079538      8856.9605      10112.159    
     56400   317.57684     -3239.3487     -3257.6981      18.349363      9025.2441      10112.159    
     56500   297.33392     -3239.6342     -3256.814       17.179741      8969.7382      10112.159    
     56600   297.13472     -3239.8812     -3257.0494      17.168232      8924.5307      10112.159    
     56700   303.27563     -3240.5186     -3258.0417      17.523049      8886.8664      10112.159    
     56800   284.02651     -3241.5677     -3257.9785      16.410849      8208.6095      10112.159    
     56900   302.05658     -3240.8008     -3258.2534      17.452613      8339.9335      10112.159    
     57000   289.51251     -3239.2362     -3255.964       16.727826      9429.5074      10112.159    
     57100   307.43476     -3238.759      -3256.5224      17.76336       9033.1735      10112.159    
     57200   307.35717     -3239.5256     -3257.2845      17.758878      8887.6955      10112.159    
     57300   298.97653     -3240.1968     -3257.4714      17.27465       9223.9216      10112.159    
     57400   288.37293     -3240.7698     -3257.4317      16.661981      8816.4965      10112.159    
     57500   289.48364     -3241.2494     -3257.9756      16.726158      8806.728       10112.159    
     57600   299.74117     -3240.1259     -3257.4447      17.31883       8910.8918      10112.159    
     57700   305.35549     -3238.83       -3256.4732      17.643222      9183.8131      10112.159    
     57800   316.09131     -3238.6952     -3256.9588      18.26353       8814.78        10112.159    
     57900   292.36981     -3240.0324     -3256.9253      16.892918      8729.4414      10112.159    
     58000   292.77875     -3240.5092     -3257.4258      16.916547      8965.5528      10112.159    
     58100   300.18744     -3240.2634     -3257.6081      17.344615      8977.4559      10112.159    
     58200   281.79648     -3240.3414     -3256.6234      16.281999      9035.2133      10112.159    
     58300   303.88895     -3240.0091     -3257.5675      17.558486      8826.5883      10112.159    
     58400   309.59262     -3239.8643     -3257.7524      17.88804       8917.1258      10112.159    
     58500   283.53099     -3240.1421     -3256.5243      16.382218      9271.3479      10112.159    
     58600   313.99771     -3239.2508     -3257.3934      18.142563      8928.3365      10112.159    
     58700   321.27312     -3237.8775     -3256.4404      18.562931      9257.218       10112.159    
     58800   304.26188     -3238.517      -3256.097       17.580034      9226.7846      10112.159    
     58900   298.30253     -3239.8444     -3257.0801      17.235707      9017.6163      10112.159    
     59000   308.09763     -3240.0502     -3257.8519      17.801661      8500.5493      10112.159    
     59100   292.62743     -3240.1796     -3257.0874      16.907804      8693.613       10112.159    
     59200   286.31592     -3240.1604     -3256.7035      16.543129      8870.623       10112.159    
     59300   311.3385      -3239.8285     -3257.8174      17.988916      8620.0487      10112.159    
     59400   315.74691     -3238.9358     -3257.1794      18.24363       9083.647       10112.159    
     59500   308.74679     -3238.7307     -3256.5698      17.839169      9109.7798      10112.159    
     59600   295.86838     -3239.5059     -3256.601       17.095063      8823.1204      10112.159    
     59700   293.59921     -3241.1658     -3258.1298      16.963952      8744.6798      10112.159    
     59800   293.63633     -3241.3877     -3258.3538      16.966097      8292.1752      10112.159    
     59900   291.63773     -3240.4389     -3257.2895      16.850619      8646.1838      10112.159    
     60000   288.6429      -3239.745      -3256.4226      16.67758       9004.0969      10112.159    
     60100   323.29296     -3239.318      -3257.9977      18.679636      8695.4606      10112.159    
     60200   298.73947     -3239.6242     -3256.8852      17.260953      8918.5614      10112.159    
     60300   297.29254     -3239.9168     -3257.0941      17.17735       8750.0613      10112.159    
     60400   284.23506     -3241.8583     -3258.2812      16.422898      8502.4055      10112.159    
     60500   285.37935     -3241.54       -3258.029       16.489015      8622.7484      10112.159    
     60600   300.4795      -3240.3392     -3257.7007      17.36149       8646.7104      10112.159    
     60700   296.91315     -3239.7153     -3256.8707      17.15543       8922.7701      10112.159    
     60800   300.93693     -3239.2262     -3256.6141      17.387921      8982.0793      10112.159    
     60900   311.04797     -3239.3278     -3257.3         17.972129      9218.1837      10112.159    
     61000   282.71117     -3240.815      -3257.1499      16.334849      8725.7224      10112.159    
     61100   288.78947     -3241.2354     -3257.9215      16.686049      8475.3984      10112.159    
     61200   294.55279     -3240.8188     -3257.8379      17.01905       8975.5907      10112.159    
     61300   305.12966     -3239.1212     -3256.7514      17.630174      9143.4497      10112.159    
     61400   308.48196     -3238.734      -3256.5578      17.823867      9183.6251      10112.159    
     61500   303.98823     -3239.2336     -3256.7978      17.564222      8942.7139      10112.159    
     61600   294.23761     -3240.138      -3257.1389      17.000839      8600.832       10112.159    
     61700   297.24963     -3240.5269     -3257.7017      17.174871      8993.7284      10112.159    
     61800   309.79578     -3240.2201     -3258.1198      17.899779      8681.357       10112.159    
     61900   308.58865     -3238.79       -3256.62        17.830031      9167.8833      10112.159    
     62000   319.63045     -3238.0244     -3256.4924      18.468019      9328.5755      10112.159    
     62100   299.64941     -3239.1037     -3256.4172      17.313529      9300.9632      10112.159    
     62200   297.25265     -3240.2303     -3257.4054      17.175045      8824.029       10112.159    
     62300   309.95532     -3240.5941     -3258.5031      17.908997      8825.7912      10112.159    
     62400   275.76749     -3240.9891     -3256.9227      15.933648      8866.9852      10112.159    
     62500   318.25233     -3239.1376     -3257.526       18.388392      8678.1605      10112.159    
     62600   306.61339     -3238.7271     -3256.443       17.715902      9467.2861      10112.159    
     62700   301.89037     -3239.2525     -3256.6955      17.44301       9506.4437      10112.159    
     62800   301.69783     -3240.3367     -3257.7686      17.431885      8748.8534      10112.159    
     62900   297.33557     -3241.2565     -3258.4364      17.179837      8636.6289      10112.159    
     63000   276.89417     -3241.3712     -3257.3699      15.998747      9067.7054      10112.159    
     63100   310.451       -3238.947      -3256.8846      17.937637      9292.0785      10112.159    
     63200   299.48976     -3238.6863     -3255.9906      17.304304      9196.229       10112.159    
     63300   311.15872     -3239.0884     -3257.0669      17.978528      8882.2702      10112.159    
     63400   303.60135     -3240.1971     -3257.739       17.541869      8950.6496      10112.159    
     63500   285.88021     -3241.2532     -3257.7712      16.517954      8600.1536      10112.159    
     63600   289.40273     -3240.8423     -3257.5637      16.721483      9074.699       10112.159    
     63700   294.74447     -3239.7687     -3256.7989      17.030124      8863.111       10112.159    
     63800   305.4096      -3239.5995     -3257.2459      17.646348      8773.5237      10112.159    
     63900   300.1489      -3239.8904     -3257.2328      17.342389      8813.3634      10112.159    
     64000   300.65281     -3240.1336     -3257.5051      17.371504      8621.4385      10112.159    
     64100   292.38802     -3240.3922     -3257.2862      16.893971      8981.2575      10112.159    
     64200   302.04765     -3240.2272     -3257.6793      17.452097      8456.7789      10112.159    
     64300   290.02661     -3240.0091     -3256.7667      16.75753       8937.5869      10112.159    
     64400   293.22024     -3239.2651     -3256.2071      16.942056      9449.2968      10112.159    
     64500   329.16502     -3238.2544     -3257.2733      19.018919      9016.9041      10112.159    
     64600   307.89455     -3239.1005     -3256.8905      17.789927      8780.7862      10112.159    
     64700   277.49509     -3240.9301     -3256.9636      16.033468      9009.3128      10112.159    
     64800   292.72051     -3240.882      -3257.7952      16.913182      8689.9849      10112.159    
     64900   298.75416     -3240.2754     -3257.5372      17.261802      8566.508       10112.159    
     65000   316.04919     -3239.1663     -3257.4273      18.261096      8741.4292      10112.159    
     65100   308.88533     -3238.7753     -3256.6225      17.847173      8890.717       10112.159    
     65200   291.88051     -3239.7788     -3256.6435      16.864647      8789.5721      10112.159    
     65300   286.22466     -3241.0833     -3257.6212      16.537856      8394.1539      10112.159    
     65400   290.22857     -3240.9204     -3257.6896      16.769199      8442.3661      10112.159    
     65500   316.77713     -3239.669      -3257.9722      18.303156      8618.8851      10112.159    
     65600   307.29376     -3239.1083     -3256.8635      17.755213      9200.7818      10112.159    
     65700   293.97813     -3239.4984     -3256.4842      16.985846      8767.9863      10112.159    
     65800   291.08944     -3239.6803     -3256.4992      16.81894       8805.3938      10112.159    
     65900   307.51569     -3239.666      -3257.434       17.768037      9129.2561      10112.159    
     66000   301.52464     -3239.7131     -3257.1349      17.421878      8527.4183      10112.159    
     66100   294.58649     -3240.1192     -3257.1402      17.020997      8491.6636      10112.159    
     66200   302.79982     -3240.3881     -3257.8836      17.495557      8388.5628      10112.159    
     66300   305.79628     -3239.7056     -3257.3743      17.668691      8532.1619      10112.159    
     66400   299.27968     -3238.6734     -3255.9656      17.292166      9000.6555      10112.159    
     66500   318.47651     -3237.9327     -3256.334       18.401345      9188.0089      10112.159    
     66600   307.43594     -3239.0087     -3256.7721      17.763429      9054.6659      10112.159    
     66700   298.76966     -3240.0918     -3257.3545      17.262697      8849.3825      10112.159    
     66800   283.1818      -3240.4709     -3256.8329      16.362042      8580.9532      10112.159    
     66900   319.14685     -3239.8423     -3258.2824      18.440076      8652.1003      10112.159    
     67000   294.36941     -3239.5138     -3256.5222      17.008454      9109.5084      10112.159    
     67100   307.99552     -3238.2251     -3256.0208      17.795761      9181.0069      10112.159    
     67200   323.00538     -3238.1848     -3256.8479      18.66302       8953.0615      10112.159    
     67300   297.70724     -3239.6874     -3256.8887      17.201311      8776.6539      10112.159    
     67400   291.62476     -3240.2382     -3257.0881      16.84987       9025.9494      10112.159    
     67500   305.86432     -3240.1085     -3257.7811      17.672622      9055.3286      10112.159    
     67600   300.43017     -3239.9909     -3257.3495      17.35864       8586.4256      10112.159    
     67700   301.02        -3239.3494     -3256.7421      17.39272       8983.2966      10112.159    
     67800   307.8469      -3238.3734     -3256.1606      17.787174      9377.2744      10112.159    
     67900   305.19485     -3238.8876     -3256.5216      17.63394       9139.6794      10112.159    
     68000   289.40417     -3239.8986     -3256.6201      16.721566      9196.2576      10112.159    
     68100   305.2617      -3239.9167     -3257.5545      17.637803      8477.3749      10112.159    
     68200   283.13645     -3240.3871     -3256.7465      16.359422      9087.838       10112.159    
     68300   295.68595     -3240.4594     -3257.5439      17.084523      8833.6019      10112.159    
     68400   305.04977     -3240.3461     -3257.9717      17.625558      8089.8994      10112.159    
     68500   302.67584     -3239.6923     -3257.1807      17.488394      8899.141       10112.159    
     68600   308.52983     -3238.5724     -3256.3991      17.826633      9624.0668      10112.159    
     68700   305.18025     -3238.519      -3256.1521      17.633097      9162.3554      10112.159    
     68800   300.9123      -3240.1738     -3257.5603      17.386498      8660.5253      10112.159    
     68900   296.98762     -3240.4109     -3257.5706      17.159733      8660.5716      10112.159    
     69000   303.58309     -3240.1032     -3257.644       17.540814      9187.5551      10112.159    
     69100   278.70684     -3240.3179     -3256.4214      16.103482      9134.1326      10112.159    
     69200   320.33506     -3239.4578     -3257.9665      18.50873       8662.2217      10112.159    
     69300   309.89887     -3238.6        -3256.5057      17.905735      8962.1462      10112.159    
     69400   315.51904     -3237.4842     -3255.7147      18.230465      9424.4517      10112.159    
     69500   297.64001     -3238.5075     -3255.7049      17.197427      9717.5896      10112.159    
     69600   308.81194     -3239.7286     -3257.5716      17.842933      8722.8173      10112.159    
     69700   294.7266      -3240.4132     -3257.4423      17.029092      8950.3595      10112.159    
     69800   303.1838      -3240.5772     -3258.0949      17.517743      8721.6124      10112.159    
     69900   305.10761     -3240.0808     -3257.7097      17.6289        8733.06        10112.159    
     70000   299.18595     -3238.7822     -3256.069       17.28675       9111.2358      10112.159    
     70100   312.05498     -3238.2216     -3256.252       18.030313      9254.4762      10112.159    
     70200   298.05091     -3239.7053     -3256.9265      17.221168      8942.1917      10112.159    
     70300   305.29646     -3241.0328     -3258.6726      17.639811      8588.0476      10112.159    
     70400   283.7916      -3241.3248     -3257.7221      16.397276      8500.1608      10112.159    
     70500   289.49342     -3240.2296     -3256.9563      16.726723      8867.2949      10112.159    
     70600   312.76429     -3239.2102     -3257.2815      18.071297      8867.3008      10112.159    
     70700   308.15404     -3239.4718     -3257.2767      17.80492       8978.719       10112.159    
     70800   297.69185     -3239.9464     -3257.1468      17.200422      9104.2951      10112.159    
     70900   292.37267     -3240.4759     -3257.3689      16.893084      8785.9701      10112.159    
     71000   265.47384     -3241.7703     -3257.1092      15.338888      8709.1888      10112.159    
     71100   309.69568     -3241.0632     -3258.9572      17.893995      8195.8988      10112.159    
     71200   289.75895     -3240.2271     -3256.9692      16.742065      8793.059       10112.159    
     71300   306.34838     -3238.7789     -3256.4795      17.70059       9167.1978      10112.159    
     71400   311.23448     -3238.9641     -3256.947       17.982906      9083.9907      10112.159    
     71500   301.09325     -3239.652      -3257.0489      17.396953      8890.8553      10112.159    
     71600   292.3501      -3240.5262     -3257.4179      16.89178       8995.0498      10112.159    
     71700   282.92088     -3241.1014     -3257.4484      16.346966      8790.335       10112.159    
     71800   304.15019     -3239.9678     -3257.5414      17.573581      8439.1151      10112.159    
     71900   316.33287     -3238.1475     -3256.425       18.277487      9467.3632      10112.159    
     72000   304.96816     -3238.6249     -3256.2457      17.620842      8910.5501      10112.159    
     72100   282.05115     -3239.8675     -3256.1642      16.296714      9224.4218      10112.159    
     72200   305.55704     -3239.9664     -3257.6213      17.654867      8631.0759      10112.159    
     72300   312.92907     -3239.7484     -3257.8292      18.080818      8737.5805      10112.159    
     72400   300.50116     -3239.6993     -3257.0621      17.362742      8958.5383      10112.159    
     72500   281.22376     -3240.3678     -3256.6167      16.248908      9024.1257      10112.159    
     72600   285.21856     -3240.5437     -3257.0234      16.479725      8599.2814      10112.159    
     72700   318.58093     -3239.9765     -3258.3839      18.407379      8772.1883      10112.159    
     72800   296.22992     -3239.6922     -3256.8081      17.115953      8999.353       10112.159    
     72900   322.79969     -3238.3452     -3256.9964      18.651135      9702.7383      10112.159    
     73000   305.93002     -3238.4919     -3256.1683      17.676418      9731.7797      10112.159    
     73100   293.90544     -3240.0943     -3257.0759      16.981646      8941.7153      10112.159    
     73200   297.65903     -3240.402      -3257.6006      17.198526      8838.8095      10112.159    
     73300   300.4882      -3240.2675     -3257.6294      17.361993      8817.5032      10112.159    
     73400   304.48986     -3239.8381     -3257.4313      17.593206      8893.2255      10112.159    
     73500   294.81094     -3238.9415     -3255.9754      17.033965      9438.5863      10112.159    
     73600   313.43356     -3237.7125     -3255.8224      18.109967      9715.485       10112.159    
     73700   307.80831     -3238.6772     -3256.4621      17.784944      9087.964       10112.159    
     73800   315.83019     -3240.0017     -3258.2502      18.248443      8861.2494      10112.159    
     73900   290.39079     -3240.4768     -3257.2554      16.778572      8832.068       10112.159    
     74000   293.57362     -3240.1779     -3257.1404      16.962474      9164.017       10112.159    
     74100   309.14378     -3239.2517     -3257.1138      17.862106      8914.9929      10112.159    
     74200   309.01681     -3238.037      -3255.8918      17.854771      9440.5602      10112.159    
     74300   325.24056     -3237.7855     -3256.5776      18.792167      9547.125       10112.159    
     74400   294.78266     -3239.9059     -3256.9383      17.032332      9307.4598      10112.159    
     74500   308.45721     -3240.1188     -3257.9413      17.822437      8927.5643      10112.159    
     74600   290.63464     -3240.4577     -3257.2503      16.792662      9026.3889      10112.159    
     74700   296.75751     -3240.1471     -3257.2935      17.146437      9284.8737      10112.159    
     74800   284.85937     -3239.2926     -3255.7516      16.458971      9432.7539      10112.159    
     74900   327.33215     -3237.9917     -3256.9048      18.913018      9502.046       10112.159    
     75000   307.54322     -3238.989      -3256.7586      17.769627      9313.1788      10112.159    
     75100   297.34952     -3239.7918     -3256.9724      17.180643      9047.3048      10112.159    
     75200   300.27234     -3239.9528     -3257.3023      17.349521      9248.9969      10112.159    
     75300   288.67187     -3240.2277     -3256.907       16.679254      8696.5671      10112.159    
     75400   302.83031     -3240.251      -3257.7483      17.497319      9043.5911      10112.159    
[...]
    281800   299.4535      -3239.7966     -3257.0988      17.302209      9060.3051      10112.159    
    281900   284.9411      -3239.8767     -3256.3404      16.463693      9154.1506      10112.159    
    282000   307.10607     -3239.6342     -3257.3786      17.744369      8997.0732      10112.159    
    282100   306.34719     -3239.7614     -3257.4619      17.700522      8592.026       10112.159    
    282200   292.43403     -3239.9479     -3256.8446      16.896629      8777.8963      10112.159    
    282300   289.74851     -3239.7874     -3256.5289      16.741462      9124.0497      10112.159    
    282400   308.72303     -3238.9368     -3256.7746      17.837796      9144.4259      10112.159    
    282500   340.60307     -3237.8922     -3257.572       19.679802      8982.3617      10112.159    
    282600   308.0737      -3238.9907     -3256.791       17.800278      8889.8415      10112.159    
    282700   293.10691     -3240.0196     -3256.9551      16.935508      8880.2367      10112.159    
    282800   292.60447     -3240.4803     -3257.3868      16.906477      8908.2741      10112.159    
    282900   297.85497     -3240.3692     -3257.579       17.209847      8792.3926      10112.159    
    283000   319.82469     -3238.4943     -3256.9736      18.479242      9133.5437      10112.159    
    283100   314.15372     -3237.8095     -3255.9611      18.151577      9492.4355      10112.159    
    283200   299.91689     -3238.8477     -3256.1767      17.328983      9077.3326      10112.159    
    283300   305.19527     -3239.8363     -3257.4703      17.633964      9167.3883      10112.159    
    283400   301.19267     -3240.2303     -3257.633       17.402697      8792.1716      10112.159    
    283500   307.77737     -3239.9446     -3257.7278      17.783157      8852.1502      10112.159    
    283600   285.19948     -3239.4513     -3255.9299      16.478622      9508.9221      10112.159    
    283700   321.83471     -3238.0236     -3256.619       18.595379      9289.4135      10112.159    
    283800   313.48907     -3238.6915     -3256.8046      18.113174      9284.1269      10112.159    
    283900   306.90042     -3240.2095     -3257.942       17.732487      8384.5261      10112.159    
    284000   307.20813     -3240.4919     -3258.2422      17.750266      8601.591       10112.159    
    284100   276.02919     -3240.4597     -3256.4084      15.948769      9158.0219      10112.159    
    284200   304.82001     -3239.5177     -3257.13        17.612282      8834.6559      10112.159    
    284300   299.51201     -3239.2231     -3256.5287      17.30559       9233.5966      10112.159    
    284400   330.26795     -3238.1151     -3257.1977      19.082646      9144.2516      10112.159    
    284500   296.05978     -3238.3192     -3255.4253      17.106122      9344.2831      10112.159    
    284600   316.43318     -3239.4255     -3257.7088      18.283283      9303.2746      10112.159    
    284700   283.57217     -3240.8909     -3257.2755      16.384597      8664.809       10112.159    
    284800   299.5744      -3240.4589     -3257.7681      17.309194      8766.9003      10112.159    
    284900   312.09516     -3239.6685     -3257.7012      18.032635      8788.1742      10112.159    
    285000   282.0282      -3239.3957     -3255.6911      16.295388      9094.1762      10112.159    
    285100   327.67391     -3237.6517     -3256.5844      18.932764      9535.1805      10112.159    
    285200   292.88682     -3238.6534     -3255.5761      16.922791      9402.1749      10112.159    
    285300   323.6404      -3239.0656     -3257.7653      18.699711      8878.0127      10112.159    
    285400   288.35729     -3240.1512     -3256.8123      16.661078      9171.3244      10112.159    
    285500   305.47835     -3240.2181     -3257.8684      17.650321      8893.7579      10112.159    
    285600   287.04251     -3240.253      -3256.8381      16.585111      8902.8781      10112.159    
    285700   301.26345     -3239.1031     -3256.5099      17.406787      9376.2228      10112.159    
    285800   315.03906     -3238.3961     -3256.5988      18.202732      9256.5629      10112.159    
    285900   313.68897     -3239.2468     -3257.3715      18.124725      8621.1719      10112.159    
    286000   304.10834     -3240.5141     -3258.0853      17.571162      8553.5419      10112.159    
    286100   277.34501     -3241.032      -3257.0568      16.024796      9000.0534      10112.159    
    286200   290.71525     -3240.5474     -3257.3447      16.797319      8942.5419      10112.159    
    286300   321.00853     -3239.737      -3258.2847      18.547643      8786.9809      10112.159    
    286400   298.42187     -3239.382      -3256.6246      17.242602      8573.7816      10112.159    
    286500   310.12133     -3238.8216     -3256.7401      17.918589      9386.1469      10112.159    
    286600   283.47806     -3240.627      -3257.0061      16.379159      8695.2524      10112.159    
    286700   288.96096     -3240.9946     -3257.6905      16.695958      8515.3622      10112.159    
    286800   305.24516     -3240.3745     -3258.0114      17.636847      8820.4279      10112.159    
    286900   309.27184     -3239.4862     -3257.3557      17.869506      8742.9057      10112.159    
    287000   306.9204      -3238.3387     -3256.0724      17.733641      9232.6081      10112.159    
    287100   321.10608     -3236.9145     -3255.4678      18.553279      9652.0531      10112.159    
    287200   329.23395     -3236.7721     -3255.795       19.022902      9685.7096      10112.159    
    287300   305.86604     -3238.8415     -3256.5143      17.672721      9089.9867      10112.159    
    287400   302.79286     -3239.8774     -3257.3726      17.495155      9127.8442      10112.159    
    287500   276.58449     -3240.8386     -3256.8194      15.980854      8863.17        10112.159    
    287600   287.48781     -3240.8002     -3257.4111      16.61084       9067.778       10112.159    
    287700   320.5718      -3239.5271     -3258.0496      18.522409      8867.4217      10112.159    
    287800   307.17249     -3238.8604     -3256.6086      17.748207      9261.9547      10112.159    
    287900   305.74518     -3239.1408     -3256.8065      17.665738      9153.6485      10112.159    
    288000   293.47209     -3239.9026     -3256.8592      16.956607      9119.8568      10112.159    
    288100   298.54533     -3240.0523     -3257.302       17.249736      9321.4267      10112.159    
    288200   289.18965     -3240.1634     -3256.8726      16.709171      9195.0365      10112.159    
    288300   305.47155     -3240.0311     -3257.6811      17.649928      9062.4297      10112.159    
    288400   300.30961     -3240.1014     -3257.4531      17.351675      9167.8193      10112.159    
    288500   310.75013     -3239.5795     -3257.5344      17.95492       8792.2981      10112.159    
    288600   319.24443     -3238.6376     -3257.0833      18.445715      9117.518       10112.159    
    288700   292.7856      -3238.6        -3255.5169      16.916943      10060.496      10112.159    
    288800   302.59779     -3239.9406     -3257.4245      17.483884      8858.0191      10112.159    
    288900   303.56232     -3240.9628     -3258.5024      17.539614      8675.3191      10112.159    
    289000   295.53312     -3240.6707     -3257.7464      17.075692      8982.0642      10112.159    
    289100   297.75636     -3239.7925     -3256.9966      17.20415       8958.2524      10112.159    
    289200   308.41242     -3238.9786     -3256.7985      17.819849      9335.4058      10112.159    
    289300   319.65451     -3238.6738     -3257.1432      18.469409      9548.8294      10112.159    
    289400   292.6088      -3240.4709     -3257.3776      16.906727      8862.7046      10112.159    
    289500   291.97317     -3241.1807     -3258.0507      16.870001      8497.9849      10112.159    
    289600   283.44796     -3241.2365     -3257.614       16.377421      8713.585       10112.159    
    289700   303.87129     -3239.6488     -3257.2063      17.557466      9009.2578      10112.159    
    289800   294.5921      -3239.1401     -3256.1614      17.021321      9499.8793      10112.159    
    289900   316.10229     -3239.179      -3257.4432      18.264164      9172.3194      10112.159    
    290000   296.76527     -3240.4375     -3257.5844      17.146885      8799.7313      10112.159    
    290100   305.42939     -3240.9607     -3258.6082      17.647492      8443.2782      10112.159    
    290200   282.07089     -3240.6778     -3256.9757      16.297854      8888.6403      10112.159    
    290300   289.52284     -3240.4601     -3257.1886      16.728423      9093.1256      10112.159    
    290400   309.38916     -3240.027      -3257.9032      17.876284      8798.0506      10112.159    
    290500   311.93517     -3239.3391     -3257.3625      18.023391      8837.8255      10112.159    
    290600   297.90423     -3238.8057     -3256.0184      17.212694      9289.8947      10112.159    
    290700   313.23358     -3238.4263     -3256.5247      18.098412      9047.902       10112.159    
    290800   298.54708     -3239.8287     -3257.0786      17.249837      9137.1529      10112.159    
    290900   305.4815      -3240.4608     -3258.1113      17.650503      8806.5633      10112.159    
    291000   281.72431     -3240.8066     -3257.0845      16.277829      8744.054       10112.159    
    291100   294.27517     -3240.2217     -3257.2247      17.003009      9114.2585      10112.159    
    291200   315.3972      -3238.5525     -3256.7759      18.223425      9386.9755      10112.159    
    291300   318.53828     -3238.2648     -3256.6697      18.404914      9150.6553      10112.159    
    291400   306.57688     -3239.2901     -3257.0039      17.713793      9137.1756      10112.159    
    291500   280.20207     -3240.3556     -3256.5455      16.189875      8773.4341      10112.159    
    291600   301.56072     -3240.1646     -3257.5886      17.423963      9015.637       10112.159    
    291700   314.78493     -3240.0371     -3258.2252      18.188048      8633.9385      10112.159    
    291800   282.86325     -3240.1558     -3256.4994      16.343636      9177.9249      10112.159    
    291900   307.19949     -3238.9981     -3256.7479      17.749767      9082.2259      10112.159    
    292000   310.83788     -3238.4211     -3256.381       17.95999       9750.0165      10112.159    
    292100   318.77766     -3238.6506     -3257.0693      18.418745      9446.4845      10112.159    
    292200   306.25213     -3240.3118     -3258.0068      17.695029      8495.071       10112.159    
    292300   277.58041     -3241.0475     -3257.0859      16.038397      8741.9395      10112.159    
    292400   305.24378     -3240.1962     -3257.8329      17.636767      9039.5184      10112.159    
    292500   292.2164      -3239.6715     -3256.5555      16.884055      8758.9128      10112.159    
    292600   319.7854      -3238.4935     -3256.9705      18.476972      9166.294       10112.159    
    292700   310.85671     -3237.013      -3254.9741      17.961078      10050.359      10112.159    
    292800   311.56377     -3238.0201     -3256.0221      18.001932      9426.5615      10112.159    
    292900   293.62229     -3239.7454     -3256.7106      16.965286      9129.4099      10112.159    
    293000   327.41006     -3239.9679     -3258.8854      18.917519      8839.8165      10112.159    
    293100   275.65517     -3240.6009     -3256.528       15.927159      9015.2948      10112.159    
    293200   304.86954     -3239.7466     -3257.3617      17.615144      8815.4949      10112.159    
    293300   297.02761     -3239.4181     -3256.5801      17.162043      8670.2131      10112.159    
    293400   331.70471     -3237.9491     -3257.1147      19.165661      9060.7012      10112.159    
    293500   282.86082     -3238.6869     -3255.0304      16.343496      9555.0815      10112.159    
    293600   302.60817     -3239.7699     -3257.2544      17.484484      8776.1313      10112.159    
    293700   314.49127     -3239.8919     -3258.0629      18.171081      8650.6987      10112.159    
    293800   297.20748     -3240.0334     -3257.2058      17.172436      8934.7497      10112.159    
    293900   281.15577     -3239.9789     -3256.2239      16.244979      9040.5119      10112.159    
    294000   307.76298     -3239.1166     -3256.899       17.782325      9033.3046      10112.159    
    294100   329.74467     -3238.1815     -3257.2339      19.052411      8884.2156      10112.159    
    294200   318.70832     -3238.4416     -3256.8564      18.414739      8846.9914      10112.159    
    294300   290.72932     -3240.3751     -3257.1732      16.798132      8876.6101      10112.159    
    294400   274.51458     -3240.643      -3256.5042      15.861256      8984.0386      10112.159    
    294500   292.88525     -3239.8229     -3256.7456      16.9227        8897.9462      10112.159    
    294600   322.00053     -3238.7883     -3257.3933      18.604961      9073.4563      10112.159    
    294700   321.55625     -3238.6879     -3257.2672      18.57929       9058.6079      10112.159    
    294800   270.80318     -3240.695      -3256.3418      15.646814      8986.7283      10112.159    
    294900   303.43249     -3240.9902     -3258.5223      17.532112      8419.1424      10112.159    
    295000   272.40178     -3241.1345     -3256.8737      15.73918       8814.4704      10112.159    
    295100   319.84627     -3239.517      -3257.9975      18.480489      8894.672       10112.159    
    295200   305.61143     -3239.2735     -3256.9315      17.65801       8545.666       10112.159    
    295300   299.71921     -3239.7396     -3257.0572      17.317562      9115.2813      10112.159    
    295400   291.73203     -3240.6674     -3257.5235      16.856068      8784.2512      10112.159    
    295500   292.95074     -3240.9819     -3257.9083      16.926484      8499.2813      10112.159    
    295600   306.89846     -3240.5146     -3258.247       17.732373      8651.3589      10112.159    
    295700   290.02994     -3239.4338     -3256.1915      16.757722      9305.0858      10112.159    
    295800   324.85595     -3238.3563     -3257.1262      18.769944      8941.1277      10112.159    
    295900   283.00433     -3239.3553     -3255.7071      16.351788      9192.7328      10112.159    
    296000   314.21198     -3240.0281     -3258.183       18.154944      8613.2561      10112.159    
    296100   289.77476     -3240.7848     -3257.5277      16.742978      8830.5372      10112.159    
    296200   301.15887     -3240.3487     -3257.7494      17.400744      8824.3331      10112.159    
    296300   283.33498     -3240.2302     -3256.6011      16.370893      8955.2985      10112.159    
    296400   313.1427      -3239.3355     -3257.4287      18.093161      8995.244       10112.159    
    296500   307.20546     -3239.1914     -3256.9415      17.750112      8939.7702      10112.159    
    296600   298.63178     -3240.763      -3258.0177      17.254731      8484.0903      10112.159    
    296700   274.86239     -3242.1064     -3257.9877      15.881352      8216.6406      10112.159    
    296800   284.0539      -3241.1403     -3257.5527      16.412431      8659.7837      10112.159    
    296900   318.50598     -3239.7271     -3258.1301      18.403048      8535.3567      10112.159    
    297000   292.82372     -3239.6361     -3256.5553      16.919145      8761.4179      10112.159    
    297100   301.72779     -3239.3096     -3256.7433      17.433616      9049.5612      10112.159    
    297200   297.01135     -3239.9199     -3257.081       17.161104      8986.0769      10112.159    
    297300   308.28499     -3241.0037     -3258.8161      17.812487      8461.5977      10112.159    
    297400   274.98233     -3241.5504     -3257.4387      15.888282      8665.44        10112.159    
    297500   311.07946     -3239.7506     -3257.7246      17.973949      8788.8312      10112.159    
    297600   301.04862     -3239.3778     -3256.7722      17.394374      8855.4255      10112.159    
    297700   297.32434     -3239.5118     -3256.691       17.179188      8721.4291      10112.159    
    297800   298.72973     -3240.1323     -3257.3927      17.26039       8850.7789      10112.159    
    297900   283.78599     -3240.9274     -3257.3244      16.396952      8689.5151      10112.159    
    298000   289.30803     -3240.612      -3257.328       16.716011      8633.7401      10112.159    
    298100   304.39603     -3239.2374     -3256.8251      17.587785      8901.9154      10112.159    
    298200   308.73994     -3238.2847     -3256.1235      17.838773      9485.0058      10112.159    
    298300   291.37286     -3238.9491     -3255.7844      16.835315      9245.4052      10112.159    
    298400   310.14641     -3239.8122     -3257.7323      17.920038      8769.8694      10112.159    
    298500   293.41008     -3240.445      -3257.3981      16.953025      8972.5686      10112.159    
    298600   295.62994     -3240.2168     -3257.2981      17.081287      8732.7858      10112.159    
    298700   293.06164     -3239.5804     -3256.5133      16.932892      9056.7841      10112.159    
    298800   314.12809     -3239.0914     -3257.2415      18.150096      9057.5167      10112.159    
    298900   287.73384     -3240.4871     -3257.1122      16.625056      8907.1864      10112.159    
    299000   284.3896      -3241.6917     -3258.1236      16.431827      8298.7032      10112.159    
    299100   285.73762     -3241.4896     -3257.9993      16.509715      8613.7418      10112.159    
    299200   303.01804     -3239.4222     -3256.9304      17.508166      8851.49        10112.159    
    299300   309.2721      -3238.9164     -3256.7859      17.869521      8899.4041      10112.159    
    299400   301.72652     -3239.4862     -3256.9197      17.433542      8977.4176      10112.159    
    299500   308.50674     -3240.0339     -3257.8592      17.825299      8648.2425      10112.159    
    299600   284.38455     -3240.7163     -3257.1479      16.431536      8762.8659      10112.159    
    299700   283.02943     -3240.7658     -3257.119       16.353238      8646.5198      10112.159    
    299800   324.89807     -3239.4026     -3258.175       18.772378      8776.7986      10112.159    
    299900   304.47425     -3239.1379     -3256.7302      17.592304      9003.6348      10112.159    
    300000   317.18543     -3238.7685     -3257.0953      18.326747      8881.1043      10112.159    
Loop time of 2261.38 on 20 procs for 300000 steps with 448 atoms

Performance: 11.462 ns/day, 2.094 hours/ns, 132.662 timesteps/s, 59.433 katom-step/s
99.9% CPU use with 20 MPI tasks x 1 OpenMP threads

MPI task timing breakdown:
Section |  min time  |  avg time  |  max time  |%varavg| %total
---------------------------------------------------------------
Pair    | 1750.3     | 1998       | 2163.9     | 394.0 | 88.35
Neigh   | 20.325     | 28.103     | 34.814     | 117.1 |  1.24
Comm    | 59.617     | 232.09     | 487.38     |1196.1 | 10.26
Output  | 0.35931    | 0.59036    | 0.6562     |   7.8 |  0.03
Modify  | 1.9929     | 2.2771     | 2.4762     |   8.5 |  0.10
Other   |            | 0.277      |            |       |  0.01

Nlocal:           22.4 ave          24 max          19 min
Histogram: 4 0 0 0 3 0 1 0 1 11
Nghost:          497.1 ave         522 max         464 min
Histogram: 4 0 0 2 4 2 0 0 0 8
Neighs:              0 ave           0 max           0 min
Histogram: 20 0 0 0 0 0 0 0 0 0
FullNghs:       1284.7 ave        1388 max        1082 min
Histogram: 4 0 0 2 1 0 1 1 0 11

Total # of neighbors = 25694
Ave neighs/atom = 57.352679
Neighbor list builds = 300000
Dangerous builds not checked
Total wall time: 0:37:41
