ITEM: TIMESTEP
0
ITEM: NUMBER OF ATOMS
630
ITEM: BOX BOUNDS pp pp pp
0.0000000000000000e+00 4.8302314085994816e+01
0.0000000000000000e+00 5.0197237398508086e+01
0.0000000000000000e+00 4.5139087810335219e+01
ITEM: ATOMS id type x y z c_ke_per_atom
809 1     9.64514458    24.14500494    21.33037148 2.34041022e-02
1093 1    12.86621798    18.56720007    16.31475803 8.00296358e-02
1096 1    11.25609533    21.35609164    16.31471273 1.75943445e-03
1097 1    12.86610833    18.56713346    21.33042117 4.69352411e-02
1098 1    11.25573462    17.63735944    23.83824066 9.48635592e-03
1100 1    11.25583715    21.35605932    21.33038426 1.46250923e-02
1101 1    12.86589290    18.56701048    26.34619160 1.61100875e-02
1104 1    11.25565145    21.35598701    26.34621111 1.03261938e-02
1129 1    12.86528174    24.14506859    16.31427670 1.16689540e-02
1130 1    11.25485116    23.21513668    18.82239064 9.17113593e-03
1132 1    11.25541713    26.93406038    16.31448401 1.82429608e-02
1133 1    12.86430521    24.14498356    21.33026457 1.16398890e-02
1134 1    11.25453623    23.21508902    23.83835154 1.35956379e-02
1135 1     9.64514458    26.00413400    23.83830377 3.07185689e-02
1136 1    11.25453623    26.93404992    21.33032372 5.47257532e-03
1137 1    12.86455269    24.14491301    26.34661467 2.20378661e-02
1138 1    11.25541713    23.21507856    28.85419125 1.65946927e-02
1140 1    11.25485116    26.93400226    26.34628462 1.17655191e-02
1141 1    12.86594538    24.14502799    31.36206157 4.92809517e-03
1165 1    12.86556533    29.72302568    16.31456092 1.23045069e-02
1166 1    11.25565145    28.79315193    18.82246415 7.18096006e-02
1169 1    12.86510724    29.72317181    21.33039428 3.48084500e-02
1170 1    11.25583716    28.79307962    23.83829100 1.81533862e-02
1172 1    11.25573462    32.51177950    21.33043459 9.02047977e-03
1173 1    12.86556897    29.72303310    26.34609631 2.86989856e-02
1174 1    11.25609533    28.79304731    28.85396253 4.50057596e-03
1384 1    14.47637826    15.77833311    16.31471620 2.99745475e-02
1385 1    16.08613016    12.98873219    21.33037241 2.00234420e-02
1388 1    14.47621820    15.77811770    21.33038489 3.59294134e-03
1392 1    14.47606243    15.77799600    26.34620838 2.36630545e-02
1417 1    16.08632948    18.56708528    16.31450285 6.59907350e-02
1418 1    14.47574960    17.63716333    18.82257996 2.24610990e-02
1419 1    12.86556896    20.42610584    18.82257895 2.60010666e-02
1420 1    14.47617802    21.35597382    16.31450173 1.03946420e-01
1421 1    16.08632474    18.56695819    21.33040915 2.04829230e-02
1422 1    14.47539903    17.63683019    23.83828047 1.74357841e-02
1423 1    12.86510724    20.42596713    23.83828098 2.29691455e-02
1424 1    14.47606925    21.35603148    21.33040903 2.58844952e-02
1425 1    16.08576974    18.56654667    26.34654307 5.90975508e-02
1426 1    14.47575235    17.63716239    28.85411263 4.30907006e-02
1427 1    12.86556532    20.42611326    28.85411434 2.05185399e-02
1428 1    14.47543381    21.35575814    26.34654405 2.28836255e-02
1429 1    16.08618287    18.56691344    31.36218632 4.83424382e-03
1432 1    14.47595241    21.35593636    31.36218775 1.18308701e-02
1449 1    16.08617246    24.14500992    11.29857879 4.12404612e-02
1450 1    14.47570708    23.21510421    13.80646418 2.87852810e-02
1451 1    12.86594538    26.00411096    13.80661369 1.82374682e-02
1452 1    14.47626364    26.93392692    11.29889180 9.71067105e-03
1453 1    16.08462286    24.14516808    16.31332575 7.02047437e-03
1454 1    14.47359397    23.21504269    18.82204651 6.40476455e-03
1455 1    12.86455269    26.00422593    18.82206059 6.62226525e-03
1456 1    14.47505837    26.93437437    16.31391698 3.19098799e-02
1457 1    16.08316334    24.14508839    21.33003303 1.08117500e-02
1458 1    14.47296880    23.21501958    23.83856043 3.96201577e-02
1459 1    12.86430521    26.00415538    23.83841069 1.02272177e-02
1460 1    14.47296880    26.93411935    21.33011484 1.12960157e-02
1461 1    16.08328214    24.14481599    26.34767765 1.74843203e-02
1462 1    14.47505837    23.21476457    28.85475829 8.17852178e-03
1463 1    12.86528174    26.00407035    28.85439856 1.30937507e-02
1464 1    14.47359397    26.93409624    26.34662875 3.08444311e-03
1465 1    16.08609869    24.14499632    31.36259986 4.41859791e-03
1466 1    14.47626364    23.21521202    33.86978346 5.69608400e-03
1468 1    14.47570709    26.93403473    31.36221108 1.39304105e-02
1485 1    16.08621016    29.72286677    11.29869255 1.35807747e-03
1486 1    14.47595241    28.79320258    13.80648751 5.65642355e-02
1489 1    16.08523102    29.72343712    16.31403293 1.87953336e-02
1490 1    14.47543381    28.79338079    18.82213121 4.07984063e-02
1491 1    12.86589291    31.58212846    18.82248366 5.91654457e-02
1492 1    14.47575236    32.51197655    16.31456263 4.50785644e-03
1493 1    16.08422861    29.72401933    21.33015327 1.59745670e-02
1494 1    14.47606926    28.79310745    23.83826623 1.44967287e-02
1495 1    12.86610833    31.58200548    23.83825408 3.65624788e-03
1496 1    14.47539904    32.51230875    21.33039479 4.67938411e-02
1497 1    16.08512375    29.72350188    26.34604842 9.63513210e-02
1498 1    14.47617802    28.79316512    28.85417353 5.34893332e-03
1499 1    12.86621798    31.58193887    28.85391723 1.26299684e-02
1500 1    14.47574960    32.51197560    26.34609530 3.27571809e-02
1501 1    16.08620457    29.72287369    31.36196667 6.26158648e-03
1525 1    16.08596838    35.30089271    16.31448906 1.19789605e-02
1526 1    14.47606243    34.37114293    18.82246688 2.20016568e-03
1529 1    16.08553518    35.30167183    21.33032539 2.45272516e-02
1530 1    14.47621820    34.37102124    23.83829036 2.24515129e-02
1533 1    16.08573540    35.30142051    26.34628174 4.81433951e-02
1534 1    14.47637826    34.37080583    28.85395906 1.14748918e-02
1705 1    19.30666814    12.98877244    16.31448817 2.24858758e-02
1706 1    17.69628587    12.05929825    18.82243800 1.86002103e-02
1707 1    16.08573539    14.84771842    18.82239352 6.96383197e-03
1708 1    17.69628531    15.77745267    16.31427983 2.85162458e-02
1709 1    19.30621037    12.98800925    21.33032366 5.62406239e-02
1710 1    17.69619472    12.05917914    23.83830089 1.42117175e-02
1711 1    16.08553517    14.84746710    23.83834986 2.71541291e-02
1712 1    17.69571899    15.77664388    21.33026481 8.83133366e-02
1713 1    19.30632838    12.98831035    26.34628039 2.22576938e-02
1715 1    16.08596837    14.84824622    28.85418620 4.11305141e-02
1716 1    17.69578209    15.77689666    26.34661180 9.45978801e-02
1720 1    17.69658289    15.77805473    31.36205755 2.45175102e-02
1737 1    19.30669520    18.56687574    11.29858048 1.39349626e-02
1738 1    17.69614715    17.63710912    13.80646652 3.60354626e-02
1739 1    16.08620457    20.42626525    13.80670859 3.14800606e-03
1740 1    17.69654193    21.35600446    11.29849700 8.23554513e-03
1741 1    19.30605523    18.56544928    16.31332699 1.35629490e-02
1742 1    17.69503687    17.63530201    18.82204765 3.12038180e-02
1743 1    16.08512375    20.42563706    18.82262685 4.25382154e-02
1744 1    17.69660504    21.35603868    16.31368872 2.68777632e-02
1745 1    19.30525470    18.56422236    21.33003296 2.91076623e-03
1746 1    17.69470381    17.63477114    23.83855954 1.72069466e-02
1747 1    16.08422861    20.42511960    23.83852199 4.48762869e-02
1748 1    17.69779182    21.35672283    21.33086592 2.00010198e-02
1749 1    19.30507816    18.56446349    26.34767633 8.43804577e-02
1750 1    17.69552759    17.63671495    28.85475598 5.05126427e-02
1751 1    16.08523102    20.42570182    28.85464234 1.06766123e-01
1752 1    17.69527284    21.35526943    26.34816532 8.17834405e-02
1753 1    19.30664420    18.56681791    31.36259814 2.05624591e-01
1754 1    17.69651782    17.63754446    33.86978114 1.46271251e-03
1755 1    16.08621016    20.42627217    33.86998271 3.65198285e-02
1756 1    17.69564549    21.35548691    31.36292117 2.31691423e-03
1773 1    19.30646846    24.14511595    11.29818866 3.42268688e-02
1774 1    17.69558306    23.21503221    13.80546755 6.26743364e-03
1775 1    16.08609869    26.00414262    13.80607540 1.85262545e-02
1776 1    17.69649513    26.93395133    11.29851168 4.54000370e-02
1777 1    19.30401470    24.14615051    16.31013148 3.94597930e-02
1778 1    17.69077091    23.21481503    18.82082587 4.96938943e-02
1779 1    16.08328214    26.00432294    18.82099761 1.88738596e-02
1780 1    17.69499614    26.93494785    16.31281173 1.99836009e-02
1781 1    19.29999023    24.14759733    21.32849967 1.14935330e-02
1782 1    17.68879532    23.21393184    23.83976402 8.17353587e-02
1783 1    16.08316334    26.00405054    23.83864223 1.90293860e-02
1784 1    17.68879532    26.93520708    21.32891125 2.76486532e-03
1785 1    19.30052845    24.14586461    26.35007175 5.96039895e-02
1786 1    17.69499614    23.21419108    28.85586353 1.63091143e-01
1787 1    16.08462285    26.00397085    28.85534951 4.01154178e-02
1788 1    17.69077091    26.93432390    26.34784940 5.59729771e-03
1789 1    19.30679574    24.14401065    31.36300389 3.40212162e-02
1790 1    17.69649513    23.21518761    33.87016358 1.50874536e-02
1791 1    16.08617246    26.00412902    33.87009647 3.11962754e-02
1792 1    17.69558306    26.93410672    31.36320771 1.48973524e-02
1793 1    19.30676545    24.14491151    36.37777734 3.07443979e-03
1809 1    19.30661530    29.72276940    11.29851241 1.89890713e-02
1810 1    17.69564549    28.79365203    13.80575409 2.86853772e-02
1811 1    16.08618288    31.58222550    13.80648894 9.01169131e-03
1812 1    17.69651782    32.51159448    11.29889412 1.11675530e-02
1813 1    19.30500401    29.72357467    16.31281245 4.32722269e-02
1814 1    17.69527284    28.79386950    18.82050995 1.43650774e-02
1815 1    16.08576974    31.58259226    18.82213219 3.51042797e-02
1816 1    17.69552759    32.51242398    16.31391928 1.77472679e-02
1817 1    19.30168026    29.72881912    21.32891164 5.13682188e-02
1818 1    17.69779182    28.79241610    23.83780934 7.36051759e-02
1819 1    16.08632474    31.58218074    23.83826611 5.21319422e-02
1820 1    17.69470381    32.51436779    21.33011572 7.82994149e-02
1821 1    19.30343299    29.72754942    26.34784915 2.70082369e-02
1822 1    17.69660504    28.79310025    28.85498654 4.23758260e-02
1823 1    16.08632948    31.58205366    28.85417241 5.67322604e-02
1824 1    17.69503687    32.51383692    26.34662761 1.20649665e-02
1825 1    19.30602635    29.72348652    31.36320700 6.69556291e-02
1826 1    17.69654193    28.79313447    33.87017826 7.03646274e-03
1828 1    17.69614715    32.51202982    31.36220874 3.47243693e-02
1846 1    17.69658289    34.37108420    13.80661771 1.90228433e-03
1849 1    19.30623234    35.30117965    16.31428082 2.49680175e-02
1850 1    17.69578209    34.37224227    18.82206346 2.66559353e-02
1853 1    19.30581524    35.30207518    21.33026632 5.66551550e-02
1854 1    17.69571899    34.37249505    23.83841045 3.18900697e-02
1855 1    16.08613016    37.16040674    23.83830285 1.62233513e-02
1856 1    17.69619472    38.08995980    21.33037436 4.71324017e-02
1857 1    19.30600157    35.30189616    26.34661280 6.62885912e-02
1858 1    17.69628531    34.37168626    28.85439543 5.13384234e-02
1861 1    19.30660264    35.30062531    31.36205746 6.23369589e-04
2027 1    19.30660264    14.84851363    13.80661780 1.18916606e-02
2028 1    20.91700267    15.77819395    11.29889468 1.11518052e-02
2029 1    22.52706671    12.98873807    16.31456261 2.14910490e-02
2030 1    20.91681655    12.05944654    18.82246576 1.21579762e-02
2031 1    19.30600157    14.84724277    18.82206246 2.03986186e-02
2032 1    20.91678158    15.77692022    16.31391893 2.34382580e-02
2033 1    22.52695858    12.98826689    21.33039337 1.87759574e-02
2034 1    20.91684475    12.05964606    23.83828848 1.40930738e-02
2035 1    19.30581523    14.84706375    23.83840894 1.02137757e-01
2036 1    20.91551182    15.77523519    21.33011455 1.28796077e-01
2037 1    22.52707096    12.98873966    26.34609351 1.51424800e-02
2038 1    20.91695044    12.05989202    28.85395778 9.88102351e-03
2039 1    19.30623234    14.84795928    28.85439444 2.46810351e-02
2040 1    20.91580515    15.77579096    26.34662639 3.40944724e-02
2044 1    20.91681339    15.77765806    31.36220821 3.20463361e-03
2061 1    22.52714817    18.56699089    11.29851294 9.64488635e-03
2062 1    20.91671495    17.63724279    13.80607730 7.55030395e-03
2063 1    19.30602635    20.42565242    13.80546826 1.44010651e-01
2064 1    20.91693986    21.35568883    11.29818914 4.38672071e-02
2065 1    22.52725893    18.56519103    16.31281243 4.89256128e-02
2066 1    20.91546116    17.63470931    18.82099833 2.16327722e-02
2067 1    19.30343299    20.42158950    18.82082611 7.19827451e-03
2068 1    20.91660865    21.35304399    16.31013173 1.89233559e-02
2069 1    22.52438097    18.55969020    21.32891097 3.54406832e-02
2070 1    20.91516514    17.63474291    23.83864123 8.07346369e-02
2071 1    19.30168026    20.42031980    23.83976362 1.19648718e-01
2072 1    20.91584869    21.34883428    21.32849943 3.38982755e-02
2073 1    22.52460416    18.56184453    26.34784818 5.77508442e-02
2074 1    20.91582660    17.63605116    28.85534743 3.59478771e-02
2075 1    19.30500401    20.42556426    28.85586281 1.75865395e-02
2076 1    20.91461685    21.35016806    26.35007138 2.12255983e-02
2077 1    22.52682416    18.56612405    31.36320640 2.43141278e-02
2078 1    20.91673990    17.63731950    33.87009459 1.23646360e-02
2079 1    19.30661529    20.42636953    33.87016286 4.66052053e-03
2080 1    20.91614508    21.35652555    31.36300336 6.13334605e-02
2084 1    20.91691038    21.35605128    36.37777702 3.87377330e-02
2094 1    20.91692031    23.21529363     8.79088670 5.86719533e-03
2095 1    19.30676545    26.00422743     8.79089792 3.27092667e-02
2097 1    22.52714345    24.14495949    11.29809539 1.70301235e-02
2098 1    20.91620832    23.21488090    13.80434695 3.03761575e-02
2099 1    19.30679574    26.00512829    13.80567137 2.07146525e-02
2100 1    20.91696410    26.93381947    11.29813078 2.20081688e-02
2101 1    22.52542795    24.14396872    16.31024628 3.25345343e-02
2102 1    20.89939910    23.20517480    18.80885270 2.38614265e-01
2103 1    19.30052844    26.00327431    18.81860351 5.47818185e-02
2104 1    20.91782460    26.93332430    16.31562307 5.53626624e-02
2105 1    22.52206396    24.14202700    21.30905478 5.92947060e-02
2106 1    20.90072560    23.20594060    23.83822366 2.25955791e-02
2107 1    19.29999023    26.00154160    23.84017559 1.82365381e-02
2108 1    20.90072560    26.94319833    21.33045161 6.48603392e-03
2109 1    22.52185943    24.14190921    26.34791526 1.45332039e-02
2110 1    20.91782460    23.21581463    28.85305220 1.53954327e-03
2111 1    19.30401470    26.00298842    28.85854378 4.23506496e-02
2112 1    20.89939911    26.94396413    26.35982257 1.53230194e-02
2113 1    22.52670126    24.14470530    31.36305059 3.66001438e-02
2114 1    20.91696409    23.21531946    33.87054449 1.41174843e-02
2115 1    19.30646846    26.00402299    33.87048661 2.99380963e-02
2116 1    20.91620832    26.93425803    31.36432832 1.45505483e-01
2117 1    22.52711372    24.14494372    36.37792859 1.28946143e-02
2120 1    20.91692031    26.93384531    36.37778857 2.75196016e-02
2130 1    20.91691038    28.79308766     8.79089824 9.95007389e-03
2133 1    22.52679890    29.72290260    11.29818934 2.15028636e-02
2134 1    20.91614508    28.79261338    13.80567191 2.32638122e-02
2135 1    19.30664420    31.58232102    13.80607712 8.01847176e-03
2136 1    20.91673990    32.51181944    11.29858067 2.04728352e-02
2137 1    22.52467576    29.72451335    16.31013243 3.15274437e-02
2138 1    20.91461686    28.79897087    18.81860389 8.32240421e-02
2139 1    19.30507816    31.58467544    18.82099893 1.10628847e-01
2140 1    20.91582660    32.51308777    16.31332784 1.30663030e-02
2141 1    22.52141068    29.72727789    21.32850010 9.97097686e-03
2142 1    20.91584869    28.80030465    23.84017583 6.17477941e-02
2143 1    19.30525470    31.58491657    23.83864231 5.33606799e-02
2144 1    20.91516514    32.51439602    21.33003404 9.23645855e-03
2145 1    22.52318074    29.72767872    26.35007164 5.80970855e-02
2146 1    20.91660865    28.79609494    28.85854353 4.54922543e-02
2147 1    19.30605523    31.58368965    28.85534827 3.97388579e-03
2148 1    20.91546116    32.51442962    26.34767693 5.43738441e-02
2149 1    22.52792058    29.72317586    31.36300323 5.36271297e-02
2150 1    20.91693986    28.79345010    33.87048613 2.34912676e-02
2151 1    19.30669520    31.58226320    33.87009478 8.84600446e-04
2152 1    20.91671495    32.51189615    31.36259797 1.12905236e-01
2153 1    22.52712565    29.72274858    36.37777656 3.65021666e-02
2170 1    20.91681340    34.37148087    13.80646706 2.69842898e-02
2173 1    22.52710822    35.30062955    16.31450447 4.33111335e-02
2174 1    20.91580515    34.37334797    18.82204887 2.25020264e-02
2175 1    19.30632838    37.16082858    18.82239487 1.65619886e-02
2176 1    20.91695044    38.08924691    16.31471748 3.24024019e-02
2177 1    22.52700181    35.30069887    21.33041066 5.58480950e-03
2178 1    20.91551182    34.37390373    23.83856071 2.71768752e-02
2179 1    19.30621038    37.16112968    23.83835160 1.91944424e-02
2180 1    20.91684475    38.08949287    21.33038678 2.14205319e-02
2181 1    22.52692195    35.30138739    26.34654344 2.07522262e-02
2182 1    20.91678158    34.37221871    28.85475633 3.23463024e-02
2183 1    19.30666814    37.16036650    28.85418709 1.67075334e-02
2184 1    20.91681655    38.08969239    26.34620950 7.71732159e-03
2185 1    22.52703049    35.30084704    31.36218538 7.70181733e-02
2186 1    20.91700267    34.37094499    33.86978058 1.50120114e-02
2324 1    24.13727227    10.20022313    21.33043275 1.86457035e-02
2351 1    22.52703049    14.84829190    13.80648988 3.16336744e-03
2352 1    24.13727228    15.77798637    11.29869412 2.73431204e-02
2353 1    25.74747787    12.98873806    16.31456261 2.34290741e-02
2354 1    24.13727230    12.05949303    18.82248353 2.95769658e-02
2355 1    22.52692195    14.84775154    18.82213182 3.89679746e-03
2356 1    24.13727232    15.77685012    16.31403356 1.19709628e-02
2357 1    25.74758603    12.98826688    21.33039337 1.79027223e-02
2358 1    24.13727230    12.05974478    23.83825197 5.73337041e-03
2359 1    22.52700181    14.84844006    23.83826460 3.23739245e-02
2360 1    24.13727234    15.77569015    21.33015248 5.40103517e-02
2361 1    25.74747364    12.98873965    26.34609351 1.84898741e-02
2362 1    24.13727229    12.05987510    28.85391470 1.74669647e-03
2363 1    22.52710822    14.84850938    28.85417080 8.82760805e-03
2364 1    24.13727233    15.77672639    26.34604673 2.94375218e-02
2368 1    24.13727230    15.77798003    31.36196514 2.10508100e-03
2383 1    22.52712565    20.42639036     8.79089871 1.10163657e-02
2385 1    25.74739644    18.56699089    11.29851294 1.55007747e-02
2386 1    24.13727232    17.63640645    13.80575510 1.23319042e-01
2387 1    22.52792058    20.42596307    13.80567204 4.10605873e-02
2388 1    24.13727232    21.35607038    11.29813110 1.37793267e-02
2389 1    25.74728576    18.56519103    16.31281242 3.07628037e-02
2390 1    24.13727236    17.63597358    18.82051000 6.06090722e-02
2391 1    22.52318074    20.42146021    18.81860362 8.81173809e-02
2392 1    24.13727237    21.35706188    16.31562316 7.90732515e-02
2393 1    25.75016377    18.55969020    21.32891097 7.80202715e-02
2394 1    24.13727237    17.63888280    23.83780830 7.56037719e-02
2395 1    22.52141068    20.42186104    23.84017517 6.04976628e-02
2396 1    24.13727240    21.33731698    21.33045137 5.18444185e-02
2397 1    25.74994056    18.56184452    26.34784818 6.90222429e-03
2398 1    24.13727234    17.63751555    28.85498510 5.34030189e-02
2399 1    22.52467576    20.42462557    28.85854284 8.73960089e-02
2400 1    24.13727238    21.33578651    26.35982147 5.78377194e-02
2401 1    25.74772049    18.56612405    31.36320640 2.08413152e-02
2402 1    24.13727230    17.63744624    33.87017722 6.70363394e-02
2403 1    22.52679890    20.42623633    33.87048593 2.78595121e-02
2404 1    24.13727234    21.35519794    31.36432794 2.58391565e-02
2408 1    24.13727229    21.35602223    36.37778846 6.25450508e-02
2418 1    24.13727230    23.21531434     8.79074684 2.02568887e-02
2419 1    22.52711372    26.00419522     8.79074668 3.04837207e-02
2421 1    25.74740120    24.14495949    11.29809539 3.59117890e-02
2422 1    24.13727235    23.21483659    13.80562475 2.17231624e-02
2423 1    22.52670126    26.00443364    13.80562468 1.77004521e-02
2424 1    24.13727233    26.93378956    11.29809548 1.88176192e-02
2425 1    25.74911681    24.14396872    16.31024628 1.06901067e-02
2426 1    24.13727240    23.20924492    18.82076011 1.64341060e-01
2427 1    22.52185943    26.00722972    18.82076000 6.67952209e-02
2428 1    24.13727238    26.93577197    16.31024645 1.76532319e-02
2429 1    25.75248086    24.14202700    21.30905478 7.49769629e-02
2430 1    24.13727241    23.20948382    23.85961923 5.42400552e-04
2431 1    22.52206396    26.00711192    23.85962049 1.31139964e-02
2432 1    24.13727241    26.93965510    21.30905604 4.03037642e-02
2433 1    25.75268537    24.14190921    26.34791527 2.78076829e-01
2434 1    24.13727238    23.21336696    28.85842882 1.38138150e-01
2435 1    22.52542794    26.00517021    28.85842899 6.59335205e-02
2436 1    24.13727240    26.93989400    26.34791516 4.28329551e-02
2437 1    25.74784345    24.14470530    31.36305059 9.86590741e-02
2438 1    24.13727233    23.21534937    33.87057979 1.89382952e-02
2439 1    22.52714345    26.00417945    33.87057987 2.14424730e-02
2440 1    24.13727235    26.93430234    31.36305052 5.11716657e-02
2441 1    25.74743088    24.14494372    36.37792859 5.79476624e-03
2444 1    24.13727230    26.93382460    36.37792843 1.88263236e-02
2454 1    24.13727229    28.79311671     8.79088680 1.88507537e-02
2457 1    25.74774573    29.72290261    11.29818934 7.03416691e-02
2458 1    24.13727234    28.79394099    13.80434732 1.13271427e-02
2459 1    22.52682416    31.58301488    13.80546887 1.38925088e-02
2460 1    24.13727230    32.51169270    11.29849804 1.70891663e-02
2461 1    25.74986897    29.72451336    16.31013242 2.05770223e-02
2462 1    24.13727238    28.81335242    18.80885379 7.63518749e-02
2463 1    22.52460416    31.58729440    18.82082708 6.83768664e-02
2464 1    24.13727234    32.51162338    16.31369016 3.82271508e-02
2465 1    25.75313411    29.72727790    21.32850010 4.29159676e-02
2466 1    24.13727240    28.81182194    23.83822389 9.94043513e-02
2467 1    22.52438097    31.58944872    23.83976430 2.98638073e-02
2468 1    24.13727237    32.51025612    21.33086696 4.56693785e-02
2469 1    25.75136403    29.72767873    26.35007164 7.07593013e-02
2470 1    24.13727237    28.79207704    28.85305210 2.25330728e-01
2471 1    22.52725893    31.58394789    28.85586284 2.21584501e-02
2472 1    24.13727236    32.51316534    26.34816526 3.98748345e-02
2473 1    25.74662410    29.72317587    31.36300323 8.43327623e-03
2474 1    24.13727232    28.79306855    33.87054416 1.91033422e-02
2475 1    22.52714817    31.58214804    33.87016232 2.04142041e-02
2476 1    24.13727232    32.51273248    31.36292016 5.07579715e-02
2477 1    25.74741894    29.72274858    36.37777656 2.87980160e-02
2494 1    24.13727230    34.37115890    13.80671012 9.29532332e-03
2497 1    25.74743641    35.30062956    16.31450446 4.83409810e-03
2498 1    24.13727233    34.37241254    18.82262853 2.59065445e-02
2499 1    22.52707096    37.16039927    18.82258175 6.21327592e-03
2500 1    24.13727229    38.08926384    16.31476056 1.15255279e-02
2501 1    25.74754286    35.30069888    21.33041066 1.19768608e-02
2502 1    24.13727234    34.37344877    23.83852278 5.71584221e-02
2503 1    22.52695858    37.16087204    23.83828189 4.80227970e-02
2504 1    24.13727230    38.08939415    21.33042329 2.29353600e-02
2505 1    25.74762270    35.30138740    26.34654344 5.26546582e-02
2506 1    24.13727232    34.37228881    28.85464170 1.21260280e-03
2507 1    22.52706671    37.16040086    28.85411265 1.61453086e-02
2508 1    24.13727230    38.08964590    26.34619172 5.02698066e-02
2509 1    25.74751411    35.30084705    31.36218539 1.85782563e-02
2510 1    24.13727228    34.37115257    33.86998114 4.81754052e-02
2538 1    24.13727227    39.94891580    23.83824251 7.00937454e-03
2675 1    25.74751411    14.84829189    13.80648987 1.14399215e-02
2676 1    27.35754190    15.77819394    11.29889467 1.49237423e-02
2677 1    28.96787644    12.98877241    16.31448816 7.32699966e-03
2678 1    27.35772804    12.05944652    18.82246575 8.63194926e-03
2679 1    25.74762271    14.84775153    18.82213182 1.40253006e-02
2680 1    27.35776305    15.77692020    16.31391892 3.11644011e-02
2681 1    28.96833423    12.98800922    21.33032366 1.56840829e-02
2682 1    27.35769985    12.05964603    23.83828848 2.89780213e-02
2683 1    25.74754287    14.84844004    23.83826460 5.85990459e-02
2684 1    27.35903285    15.77523517    21.33011455 5.58344084e-02
2685 1    28.96821621    12.98831032    26.34628040 4.12116921e-02
2686 1    27.35759414    12.05989201    28.85395778 2.55751876e-02
2687 1    25.74743641    14.84850937    28.85417080 6.68697163e-03
2688 1    27.35873951    15.77579094    26.34662640 4.17189897e-02
2692 1    27.35773120    15.77765804    31.36220821 1.52435784e-02
2707 1    25.74741894    20.42639036     8.79089870 3.51136656e-02
2709 1    28.96784940    18.56687572    11.29858047 1.21287483e-02
2710 1    27.35782969    17.63724277    13.80607729 2.52401241e-02
2711 1    25.74662411    20.42596306    13.80567203 4.75466465e-02
2712 1    27.35760477    21.35568883    11.29818913 7.13763275e-02
2713 1    28.96848945    18.56544926    16.31332698 9.05035318e-03
2714 1    27.35908356    17.63470929    18.82099833 1.96538258e-02
2715 1    25.75136403    20.42146020    18.81860362 3.91234283e-03
2716 1    27.35793608    21.35304399    16.31013172 3.98097270e-02
2717 1    28.96929002    18.56422234    21.33003296 1.10644882e-01
2718 1    27.35937960    17.63474288    23.83864123 4.46343685e-02
2719 1    25.75313411    20.42186103    23.84017517 8.53803337e-03
2720 1    27.35869609    21.34883427    21.32849943 8.74818500e-02
2721 1    28.96946655    18.56446347    26.34767634 8.42983819e-02
2722 1    27.35871809    17.63605114    28.85534743 1.00229480e-02
2723 1    25.74986897    20.42462557    28.85854284 1.33802695e-01
2724 1    27.35992791    21.35016805    26.35007139 1.19973687e-01
2725 1    28.96790044    18.56681790    31.36259815 2.52316794e-02
2726 1    27.35780470    17.63731949    33.87009460 1.40015670e-02
2727 1    25.74774573    20.42623633    33.87048593 3.24288975e-02
2728 1    27.35839961    21.35652555    31.36300336 5.25505765e-02
2732 1    27.35763420    21.35605128    36.37777703 3.80097827e-02
2742 1    27.35762429    23.21529362     8.79088669 3.55782460e-02
2743 1    25.74743088    26.00419522     8.79074667 2.38765535e-02
2745 1    28.96807618    24.14511595    11.29818865 9.29120361e-03
2746 1    27.35833639    23.21488089    13.80434694 6.69462015e-02
2747 1    25.74784345    26.00443363    13.80562467 5.40355460e-02
2748 1    27.35758055    26.93381948    11.29813077 1.29642710e-02
2749 1    28.97053005    24.14615051    16.31013147 2.16187603e-03
2750 1    27.37514569    23.20517478    18.80885269 2.68308646e-02
2751 1    25.75268537    26.00722972    18.82076000 2.67015699e-02
2752 1    27.35672016    26.93332431    16.31562307 4.44112207e-02
2753 1    28.97455457    24.14759733    21.32849967 4.26372444e-02
2754 1    27.37381922    23.20594058    23.83822366 5.50464287e-02
2755 1    25.75248086    26.00711192    23.85962049 2.48863440e-02
2756 1    27.37381922    26.94319834    21.33045161 2.54629253e-02
2757 1    28.97401634    24.14586462    26.35007176 4.61704922e-02
2758 1    27.35672016    23.21581462    28.85305220 4.84716841e-02
2759 1    25.74911681    26.00517021    28.85842899 1.93380137e-02
2760 1    27.37514569    26.94396414    26.35982258 2.22902552e-02
2761 1    28.96774896    24.14401065    31.36300390 6.08408075e-02
2762 1    27.35758055    23.21531946    33.87054450 1.97427845e-02
2763 1    25.74740120    26.00417945    33.87057988 2.24877703e-02
2764 1    27.35833639    26.93425804    31.36432832 9.02008477e-02
2765 1    28.96777914    24.14491151    36.37777735 8.54946433e-03
2768 1    27.35762429    26.93384532    36.37778857 4.00194556e-04
2778 1    27.35763420    28.79308766     8.79089824 3.32936430e-02
2781 1    28.96792933    29.72276942    11.29851240 3.87871257e-02
2782 1    27.35839961    28.79261338    13.80567190 8.08768541e-03
2783 1    25.74772049    31.58301488    13.80546887 2.10519063e-02
2784 1    27.35780470    32.51181945    11.29858066 6.80454674e-03
2785 1    28.96954071    29.72357469    16.31281245 1.42045505e-02
2786 1    27.35992791    28.79897088    18.81860388 5.76400975e-03
2787 1    25.74994056    31.58729440    18.82082708 9.58747970e-03
2788 1    27.35871809    32.51308779    16.31332783 4.14040979e-02
2789 1    28.97286452    29.72881915    21.32891164 6.90769570e-02
2790 1    27.35869609    28.80030465    23.84017584 4.70831681e-02
2791 1    25.75016377    31.58944873    23.83976430 5.31503996e-02
2792 1    27.35937960    32.51439604    21.33003404 1.86265136e-02
2793 1    28.97111177    29.72754945    26.34784916 4.67621110e-03
2794 1    27.35793608    28.79609494    28.85854354 3.74086431e-02
2795 1    25.74728576    31.58394790    28.85586284 2.49455081e-02
2796 1    27.35908356    32.51442964    26.34767693 2.35989793e-02
2797 1    28.96851832    29.72348653    31.36320701 2.76580251e-02
2798 1    27.35760477    28.79345011    33.87048613 9.98556808e-04
2799 1    25.74739644    31.58214805    33.87016233 2.90280858e-02